/*--------------------------------*- C++ -*----------------------------------*\
| =========                 |                                                 |
| \\      /  F ield         | OpenFOAM: The Open Source CFD Toolbox           |
|  \\    /   O peration     | Version:  v1812                                 |
|   \\  /    A nd           | Web:      www.OpenFOAM.com                      |
|    \\/     M anipulation  |                                                 |
\*---------------------------------------------------------------------------*/
FoamFile
{
    version     2.0;
    format      ascii;
    class       volVectorField;
    location    "8.9";
    object      U;
}
// * * * * * * * * * * * * * * * * * * * * * * * * * * * * * * * * * * * * * //

dimensions      [0 1 -1 0 0 0 0];


internalField   nonuniform List<vector> 
9600
(
(0.714492 0.000347023 0)
(1.23964 -0.00320257 0)
(0.840159 0.00754529 0)
(1.38012 0.00920274 0)
(0.423779 -0.01547 0)
(1.31061 0.0155885 0)
(0.792448 0.0106255 0)
(1.18824 0.0208146 0)
(0.82222 0.0147024 0)
(1.20957 0.0113133 0)
(0.76675 0.00979615 0)
(1.20268 -0.00113516 0)
(0.746655 -0.00363302 0)
(1.20221 0.0054408 0)
(0.813165 0.000530901 0)
(1.16312 0.0100564 0)
(0.839983 0.00851702 0)
(1.14082 0.0128335 0)
(0.850337 0.0131608 0)
(1.12177 0.0106561 0)
(0.721695 0.000545423 0)
(1.23238 -0.00393502 0)
(0.841015 0.00582002 0)
(1.37641 0.0135937 0)
(0.442731 -0.0151832 0)
(1.30531 0.0128943 0)
(0.802183 0.0111113 0)
(1.18428 0.0211134 0)
(0.837197 0.0141461 0)
(1.19893 0.0123638 0)
(0.796607 0.00944208 0)
(1.18266 -0.000282425 0)
(0.787538 -0.00413887 0)
(1.17091 0.00443448 0)
(0.864649 0.00106122 0)
(1.11759 0.00952371 0)
(0.910803 0.00935678 0)
(1.06757 0.0119266 0)
(0.952306 0.0148226 0)
(1.00891 0.00915958 0)
(0.73781 0.000693355 0)
(1.21576 -0.00451309 0)
(0.844276 0.00446518 0)
(1.36798 0.0171845 0)
(0.487999 -0.0151354 0)
(1.2898 0.00950037 0)
(0.831243 0.0120347 0)
(1.17032 0.0210694 0)
(0.873154 0.0136252 0)
(1.17428 0.0133105 0)
(0.856806 0.00930851 0)
(1.14461 0.000209795 0)
(0.860385 -0.00422801 0)
(1.11536 0.003253 0)
(0.938903 0.00209152 0)
(1.05941 0.00864123 0)
(0.974058 0.0103587 0)
(1.01873 0.0113327 0)
(0.991185 0.015538 0)
(0.993701 0.00989317 0)
(0.764241 0.000868988 0)
(1.18806 -0.00496539 0)
(0.851638 0.00308069 0)
(1.35202 0.020143 0)
(0.563683 -0.0148554 0)
(1.25537 0.00659379 0)
(0.880672 0.0130314 0)
(1.14548 0.0207582 0)
(0.923301 0.0134061 0)
(1.1383 0.013681 0)
(0.927421 0.00956258 0)
(1.09951 0.000329589 0)
(0.93116 -0.00378188 0)
(1.06252 0.00204961 0)
(0.991926 0.00297135 0)
(1.02711 0.00813257 0)
(1.00142 0.0109919 0)
(1.0081 0.0113108 0)
(0.998671 0.0158114 0)
(0.998607 0.0107832 0)
(0.800591 0.00108745 0)
(1.14992 -0.0053221 0)
(0.864894 0.00148372 0)
(1.32532 0.0226173 0)
(0.665105 -0.0141073 0)
(1.1991 0.00389888 0)
(0.938809 0.0138254 0)
(1.11577 0.0204514 0)
(0.972916 0.0134359 0)
(1.10107 0.0136674 0)
(0.985092 0.0100567 0)
(1.06252 0.000426081 0)
(0.976646 -0.00311509 0)
(1.02913 0.00105842 0)
(1.01382 0.00339072 0)
(1.01866 0.00809998 0)
(1.01106 0.0113349 0)
(1.01037 0.0115532 0)
(1.00431 0.0160563 0)
(1.00287 0.0114711 0)
(0.843712 0.00135278 0)
(1.10566 -0.00556673 0)
(0.884455 -0.000200894 0)
(1.286 0.0243472 0)
(0.7749 -0.012802 0)
(1.12945 0.00134397 0)
(0.988413 0.0142667 0)
(1.08974 0.0202448 0)
(1.01004 0.0136318 0)
(1.07215 0.0135188 0)
(1.01959 0.0105949 0)
(1.03993 0.00073153 0)
(0.997224 -0.00248337 0)
(1.0123 0.000448207 0)
(1.01577 0.00345176 0)
(1.01659 0.00812922 0)
(1.01508 0.0115679 0)
(1.01346 0.0118471 0)
(1.00962 0.0162139 0)
(1.0071 0.0121381 0)
(0.888058 0.00166041 0)
(1.0627 -0.00569192 0)
(0.907966 -0.00190391 0)
(1.23599 0.0252206 0)
(0.872231 -0.0110488 0)
(1.06309 -0.000673236 0)
(1.01764 0.0142568 0)
(1.07103 0.0201284 0)
(1.03122 0.0139332 0)
(1.05401 0.0133871 0)
(1.03387 0.0110931 0)
(1.02874 0.00123638 0)
(1.00354 -0.00189703 0)
(1.00356 0.000189145 0)
(1.00948 0.00329732 0)
(1.01209 0.00799172 0)
(1.01484 0.0116644 0)
(1.01437 0.012073 0)
(1.01215 0.0162635 0)
(1.00976 0.0128566 0)
(0.927562 0.00198534 0)
(1.02874 -0.00570837 0)
(0.930756 -0.00350874 0)
(1.18138 0.0253437 0)
(0.944527 -0.00907525 0)
(1.01442 -0.00198814 0)
(1.02503 0.0137699 0)
(1.05686 0.0200224 0)
(1.03914 0.0142678 0)
(1.04356 0.0133364 0)
(1.03568 0.0115388 0)
(1.0235 0.00182003 0)
(1.00444 -0.00126816 0)
(0.998348 0.000161544 0)
(1.00174 0.00307589 0)
(1.00509 0.00772128 0)
(1.01069 0.0115388 0)
(1.0124 0.012189 0)
(1.0118 0.0162573 0)
(1.01018 0.0135626 0)
(0.957946 0.00228407 0)
(1.00815 -0.00562968 0)
(0.948476 -0.00485482 0)
(1.12988 0.0249319 0)
(0.990403 -0.00712947 0)
(0.987889 -0.00267199 0)
(1.01725 0.0129489 0)
(1.04315 0.0198181 0)
(1.03828 0.0145476 0)
(1.03678 0.0133588 0)
(1.03181 0.0119304 0)
(1.02061 0.00238459 0)
(1.00425 -0.000597242 0)
(0.995554 0.000290813 0)
(0.995739 0.00292652 0)
(0.998028 0.00740177 0)
(1.0047 0.0112184 0)
(1.00835 0.0122159 0)
(1.00952 0.0161662 0)
(1.00909 0.0141434 0)
(0.978009 0.00251213 0)
(1.00021 -0.00546762 0)
(0.959647 -0.0058778 0)
(1.0873 0.0241868 0)
(1.01505 -0.00539839 0)
(0.978894 -0.00279872 0)
(1.00391 0.0120431 0)
(1.0289 0.0194538 0)
(1.03274 0.0147024 0)
(1.03127 0.0134026 0)
(1.02646 0.0122623 0)
(1.01869 0.00287338 0)
(1.00447 7.54326e-05 0)
(0.994935 0.000556326 0)
(0.992557 0.00289364 0)
(0.992806 0.00711121 0)
(0.999088 0.0108126 0)
(1.00373 0.0121624 0)
(1.00638 0.0159298 0)
(1.0073 0.014545 0)
(0.989294 0.00264469 0)
(1.00051 -0.00524155 0)
(0.965874 -0.00655787 0)
(1.05575 0.0232535 0)
(1.02521 -0.00396962 0)
(0.979578 -0.00252757 0)
(0.992765 0.0112469 0)
(1.0162 0.0189513 0)
(1.02588 0.014713 0)
(1.02634 0.0134144 0)
(1.02161 0.0125254 0)
(1.01742 0.00325869 0)
(1.0054 0.00072219 0)
(0.996036 0.000928172 0)
(0.992064 0.0029585 0)
(0.990093 0.00693091 0)
(0.995137 0.010408 0)
(0.999813 0.0120363 0)
(1.00327 0.0155733 0)
(1.00531 0.0147871 0)
(0.99468 0.00268328 0)
(1.004 -0.00497926 0)
(0.969984 -0.0069286 0)
(1.03409 0.0222415 0)
(1.02667 -0.00284006 0)
(0.983657 -0.00205334 0)
(0.987196 0.0106277 0)
(1.0074 0.0183865 0)
(1.02004 0.0146123 0)
(1.0222 0.0133701 0)
(1.01786 0.0127145 0)
(1.01659 0.00353805 0)
(1.00677 0.00130898 0)
(0.998165 0.00135646 0)
(0.993545 0.00310003 0)
(0.989724 0.00690092 0)
(0.99325 0.0100444 0)
(0.997308 0.0118806 0)
(1.00087 0.0151864 0)
(1.00355 0.0148892 0)
(0.996928 0.00264961 0)
(1.00725 -0.00471345 0)
(0.97406 -0.00705489 0)
(1.01969 0.0212348 0)
(1.02364 -0.00195199 0)
(0.98788 -0.00153918 0)
(0.986745 0.0101614 0)
(1.00311 0.0178335 0)
(1.01631 0.0144582 0)
(1.01916 0.0132836 0)
(1.01523 0.0128332 0)
(1.01592 0.00372583 0)
(1.00814 0.00181841 0)
(1.00062 0.00180662 0)
(0.996158 0.00328815 0)
(0.991156 0.00700104 0)
(0.993336 0.00975069 0)
(0.996513 0.0117421 0)
(0.99969 0.0148371 0)
(1.00252 0.0148581 0)
(0.997903 0.00257185 0)
(1.00889 -0.00447251 0)
(0.97871 -0.00700021 0)
(1.01005 0.0202912 0)
(1.01893 -0.00123992 0)
(0.991261 -0.00108952 0)
(0.989202 0.00978612 0)
(1.00216 0.0173311 0)
(1.01462 0.0143043 0)
(1.01725 0.0131819 0)
(1.0136 0.0129021 0)
(1.01524 0.00385154 0)
(1.0092 0.00224178 0)
(1.00286 0.00225252 0)
(0.999145 0.00347522 0)
(0.99371 0.00718296 0)
(0.995001 0.00954622 0)
(0.997371 0.0116293 0)
(0.999968 0.014553 0)
(1.00259 0.0147304 0)
(0.998538 0.00247369 0)
(1.00893 -0.00427166 0)
(0.983515 -0.00682197 0)
(1.00354 0.0194433 0)
(1.01427 -0.000660102 0)
(0.993847 -0.000750914 0)
(0.992448 0.00944725 0)
(1.00276 0.0168853 0)
(1.0142 0.0141801 0)
(1.0162 0.0130825 0)
(1.01279 0.0129478 0)
(1.01455 0.00394686 0)
(1.00984 0.00257609 0)
(1.00465 0.00267323 0)
(1.00192 0.00362441 0)
(0.996674 0.00739417 0)
(0.997604 0.00942476 0)
(0.999446 0.0115199 0)
(1.00149 0.0143416 0)
(1.00373 0.0145673 0)
(0.999152 0.00237107 0)
(1.00793 -0.0041133 0)
(0.987808 -0.00656497 0)
(0.99923 0.0186944 0)
(1.01056 -0.000181245 0)
(0.995898 -0.000521331 0)
(0.99522 0.00912063 0)
(1.00351 0.0164845 0)
(1.01424 0.0140872 0)
(1.01564 0.0129918 0)
(1.01261 0.0129823 0)
(1.01399 0.00404404 0)
(1.01017 0.00282805 0)
(1.00596 0.0030615 0)
(1.00415 0.00372333 0)
(0.999432 0.00758478 0)
(1.00041 0.00936573 0)
(1.00203 0.0113917 0)
(1.00368 0.0141939 0)
(1.00552 0.0144132 0)
(0.999776 0.00227271 0)
(1.00645 -0.0039903 0)
(0.991158 -0.0062634 0)
(0.996617 0.0180225 0)
(1.00809 0.000225153 0)
(0.997591 -0.000374964 0)
(0.997064 0.0088052 0)
(1.0037 0.0161153 0)
(1.01413 0.0140108 0)
(1.01523 0.0129024 0)
(1.01278 0.0130053 0)
(1.01365 0.00416677 0)
(1.01034 0.00301258 0)
(1.00688 0.00342072 0)
(1.00572 0.0037793 0)
(1.0016 0.00771976 0)
(1.0028 0.00934985 0)
(1.00445 0.0112381 0)
(1.00584 0.0140831 0)
(1.00733 0.014286 0)
(1.00035 0.00218212 0)
(1.00492 -0.00389098 0)
(0.993462 -0.00594281 0)
(0.995288 0.0174002 0)
(1.00676 0.000578845 0)
(0.998983 -0.000275081 0)
(0.998026 0.0085069 0)
(1.00323 0.0157705 0)
(1.01364 0.013932 0)
(1.01482 0.0127979 0)
(1.01304 0.0130098 0)
(1.01355 0.00432514 0)
(1.01048 0.00315003 0)
(1.00755 0.00375766 0)
(1.00674 0.00381585 0)
(1.00306 0.00778758 0)
(1.00448 0.00936127 0)
(1.00625 0.0110644 0)
(1.00747 0.0139802 0)
(1.00868 0.0141933 0)
(1.00083 0.00209926 0)
(1.00362 -0.00380247 0)
(0.994848 -0.00562164 0)
(0.994856 0.0168027 0)
(1.00625 0.000896275 0)
(1.00009 -0.000189492 0)
(0.998362 0.00823504 0)
(1.00231 0.0154453 0)
(1.01277 0.0138366 0)
(1.01437 0.0126648 0)
(1.01317 0.012984 0)
(1.01359 0.00451945 0)
(1.01063 0.00325979 0)
(1.00805 0.00408012 0)
(1.00735 0.00386265 0)
(1.00395 0.00779738 0)
(1.00544 0.00938947 0)
(1.00735 0.0108817 0)
(1.00842 0.0138669 0)
(1.00941 0.0141387 0)
(1.00118 0.00202198 0)
(1.00263 -0.00371308 0)
(0.995551 -0.00531194 0)
(0.994976 0.0162109 0)
(1.00623 0.00119159 0)
(1.00094 -9.70721e-05 0)
(0.998341 0.00799388 0)
(1.00127 0.0151361 0)
(1.01169 0.0137168 0)
(1.01391 0.0124992 0)
(1.0131 0.0129237 0)
(1.01367 0.00473817 0)
(1.0108 0.00335243 0)
(1.00845 0.00439128 0)
(1.00771 0.00393832 0)
(1.00447 0.00776923 0)
(1.00585 0.00943368 0)
(1.00788 0.0107017 0)
(1.0088 0.0137347 0)
(1.00958 0.014121 0)
(1.00141 0.0019474 0)
(1.00196 -0.00361477 0)
(0.995815 -0.00501849 0)
(0.995382 0.0156112 0)
(1.00639 0.00147377 0)
(1.00159 1.7101e-05 0)
(0.998154 0.00777718 0)
(1.00038 0.0148432 0)
(1.0106 0.0135683 0)
(1.01352 0.0123035 0)
(1.01284 0.012829 0)
(1.01372 0.00496922 0)
(1.01095 0.00343956 0)
(1.00877 0.00469028 0)
(1.00793 0.0040449 0)
(1.00479 0.00772115 0)
(1.00593 0.00949809 0)
(1.00806 0.0105336 0)
(1.00882 0.0135781 0)
(1.00941 0.0141369 0)
(1.00152 0.00187306 0)
(1.00156 -0.00350249 0)
(0.995839 -0.00474476 0)
(0.995909 0.0149999 0)
(1.00655 0.0017459 0)
(1.00214 0.000160972 0)
(0.997918 0.00757663 0)
(0.999733 0.0145636 0)
(1.00961 0.0133959 0)
(1.01324 0.0120785 0)
(1.01245 0.0127056 0)
(1.01369 0.00520242 0)
(1.01107 0.0035275 0)
(1.00903 0.00497721 0)
(1.00805 0.00418502 0)
(1.00502 0.00766421 0)
(1.00585 0.00958098 0)
(1.00806 0.0103813 0)
(1.00871 0.0133878 0)
(1.0091 0.0141824 0)
(1.00152 0.00179667 0)
(1.00137 -0.00337195 0)
(0.995755 -0.00449467 0)
(0.996473 0.0143804 0)
(1.00658 0.00200656 0)
(1.00262 0.000335724 0)
(0.997706 0.00738776 0)
(0.999354 0.0142905 0)
(1.00879 0.0132073 0)
(1.01309 0.0118266 0)
(1.01201 0.0125655 0)
(1.01357 0.0054307 0)
(1.01114 0.00361238 0)
(1.00924 0.00525479 0)
(1.00813 0.00436378 0)
(1.00521 0.00760299 0)
(1.00573 0.00967977 0)
(1.00801 0.0102512 0)
(1.00859 0.0131487 0)
(1.00879 0.0142494 0)
(1.00142 0.00171599 0)
(1.00134 -0.00322198 0)
(0.995644 -0.00426646 0)
(0.997031 0.0137573 0)
(1.00646 0.00225573 0)
(1.00307 0.00053527 0)
(0.99757 0.007206 0)
(0.999194 0.0140208 0)
(1.00814 0.013008 0)
(1.01303 0.0115514 0)
(1.01158 0.0124169 0)
(1.01336 0.00565779 0)
(1.01118 0.00369265 0)
(1.00939 0.00552255 0)
(1.00819 0.00457828 0)
(1.00541 0.007534 0)
(1.00563 0.00979496 0)
(1.00797 0.0101565 0)
(1.00855 0.0128475 0)
(1.00853 0.014317 0)
(1.00125 0.0016308 0)
(1.00142 -0.00305412 0)
(0.995551 -0.00405888 0)
(0.997556 0.0131342 0)
(1.00621 0.00249473 0)
(1.00347 0.000756928 0)
(0.997546 0.00702678 0)
(0.99919 0.0137488 0)
(1.00765 0.0128055 0)
(1.01302 0.0112541 0)
(1.01117 0.01226 0)
(1.01305 0.0058913 0)
(1.01118 0.00377176 0)
(1.0095 0.00577597 0)
(1.00825 0.00482602 0)
(1.00562 0.007452 0)
(1.00559 0.00991628 0)
(1.00796 0.0101132 0)
(1.0086 0.0124892 0)
(1.00838 0.0143467 0)
(1.00102 0.00153982 0)
(1.00156 -0.00286757 0)
(0.9955 -0.00387401 0)
(0.998021 0.01252 0)
(1.00587 0.00271513 0)
(1.00382 0.000993701 0)
(0.997645 0.00684877 0)
(0.999274 0.0134688 0)
(1.00729 0.0126046 0)
(1.01303 0.0109388 0)
(1.01082 0.0120965 0)
(1.01267 0.00613123 0)
(1.01117 0.00384757 0)
(1.00956 0.00601041 0)
(1.00831 0.00511009 0)
(1.00587 0.0073609 0)
(1.00562 0.0100239 0)
(1.00798 0.0101336 0)
(1.00875 0.0120999 0)
(1.00834 0.0142893 0)
(1.00077 0.0014434 0)
(1.00171 -0.00266529 0)
(0.99551 -0.00371024 0)
(0.9984 0.0119182 0)
(1.00551 0.00291517 0)
(1.00408 0.00123998 0)
(0.997857 0.00667572 0)
(0.999395 0.0131802 0)
(1.00702 0.0124132 0)
(1.01301 0.0106088 0)
(1.01054 0.0119228 0)
(1.01222 0.00638141 0)
(1.01114 0.00391661 0)
(1.00958 0.00621583 0)
(1.00836 0.00542854 0)
(1.00614 0.00726582 0)
(1.00571 0.0100991 0)
(1.00803 0.0102233 0)
(1.00896 0.0117157 0)
(1.00842 0.0140966 0)
(1.00054 0.00134115 0)
(1.00185 -0.00244871 0)
(0.995591 -0.00356534 0)
(0.998677 0.0113287 0)
(1.00518 0.00310144 0)
(1.00427 0.00149106 0)
(0.998154 0.0065106 0)
(0.999521 0.0128757 0)
(1.00681 0.0122387 0)
(1.01296 0.0102711 0)
(1.0103 0.0117311 0)
(1.01173 0.00665425 0)
(1.0111 0.00398193 0)
(1.0096 0.0063807 0)
(1.00838 0.00577737 0)
(1.00642 0.00717654 0)
(1.00586 0.0101229 0)
(1.00809 0.0103691 0)
(1.00918 0.011384 0)
(1.0086 0.0137533 0)
(1.00033 0.00123369 0)
(1.00195 -0.00221818 0)
(0.995745 -0.00343777 0)
(0.998855 0.0107575 0)
(1.00488 0.00326256 0)
(1.00439 0.00173821 0)
(0.998501 0.00635426 0)
(0.999643 0.0125479 0)
(1.00664 0.0120797 0)
(1.01287 0.00993793 0)
(1.01011 0.0115202 0)
(1.01123 0.0069537 0)
(1.01104 0.00405474 0)
(1.00963 0.00650309 0)
(1.00837 0.00615213 0)
(1.00669 0.00710413 0)
(1.00604 0.0100802 0)
(1.00816 0.0105404 0)
(1.00939 0.0111496 0)
(1.00886 0.0132954 0)
(1.00017 0.00112075 0)
(1.00201 -0.00197464 0)
(0.995964 -0.00332476 0)
(0.998955 0.0102032 0)
(1.00461 0.00340068 0)
(1.00446 0.00197774 0)
(0.998864 0.0062141 0)
(0.999763 0.0121951 0)
(1.00649 0.011928 0)
(1.01277 0.00961251 0)
(1.00994 0.0112877 0)
(1.01072 0.00726776 0)
(1.01096 0.00414701 0)
(1.00968 0.00658332 0)
(1.00834 0.00654754 0)
(1.00696 0.00706282 0)
(1.00626 0.00996611 0)
(1.00823 0.0107067 0)
(1.00956 0.0110376 0)
(1.00918 0.0127889 0)
(1.00006 0.00100233 0)
(1.00202 -0.0017239 0)
(0.996233 -0.00321555 0)
(0.999009 0.00966319 0)
(1.00436 0.00352467 0)
(1.0045 0.00220191 0)
(0.99922 0.00609662 0)
(0.99989 0.0118191 0)
(1.00633 0.0117763 0)
(1.01265 0.00930089 0)
(1.0098 0.0110237 0)
(1.01022 0.00758187 0)
(1.01086 0.00426987 0)
(1.00977 0.00661512 0)
(1.00829 0.006951 0)
(1.00719 0.00707724 0)
(1.00652 0.00979095 0)
(1.00831 0.0108306 0)
(1.00967 0.0110356 0)
(1.0095 0.012325 0)
(0.999976 0.000881776 0)
(1.002 -0.00146762 0)
(0.996532 -0.00311706 0)
(0.99905 0.00913487 0)
(1.0041 0.00363189 0)
(1.00451 0.00240843 0)
(0.999554 0.00600354 0)
(1.00003 0.0114281 0)
(1.00616 0.011622 0)
(1.01252 0.00901572 0)
(1.00967 0.0107239 0)
(1.00974 0.00789046 0)
(1.01072 0.00443205 0)
(1.00988 0.00659553 0)
(1.00824 0.00733986 0)
(1.00737 0.00716022 0)
(1.0068 0.00957834 0)
(1.00842 0.0108846 0)
(1.00975 0.0110911 0)
(1.00978 0.0119747 0)
(0.999924 0.000755841 0)
(1.00194 -0.00120613 0)
(0.996841 -0.00302348 0)
(0.999102 0.00862136 0)
(1.00384 0.00372664 0)
(1.00451 0.00258777 0)
(0.99986 0.00593474 0)
(1.00018 0.0110331 0)
(1.00597 0.0114607 0)
(1.01239 0.00876829 0)
(1.00955 0.0103972 0)
(1.00927 0.00818774 0)
(1.01055 0.00463286 0)
(1.01002 0.00653503 0)
(1.00819 0.0077029 0)
(1.0075 0.00731174 0)
(1.00709 0.00935081 0)
(1.00856 0.010872 0)
(1.0098 0.0111556 0)
(1.01001 0.0117425 0)
(0.999891 0.000629174 0)
(1.00185 -0.000945992 0)
(0.997145 -0.00292522 0)
(0.999175 0.00811418 0)
(1.00357 0.00381401 0)
(1.0045 0.00273223 0)
(1.00014 0.00588146 0)
(1.00034 0.0106407 0)
(1.00577 0.0112798 0)
(1.01224 0.00855117 0)
(1.00945 0.0100542 0)
(1.00881 0.00846202 0)
(1.01035 0.00487294 0)
(1.01019 0.00644559 0)
(1.00817 0.00803419 0)
(1.00757 0.00753035 0)
(1.00737 0.00911849 0)
(1.00873 0.0107991 0)
(1.00983 0.0112177 0)
(1.01018 0.0115899 0)
(0.999871 0.000502344 0)
(1.00175 -0.000690169 0)
(0.997431 -0.00281783 0)
(0.999271 0.00760568 0)
(1.0033 0.00390212 0)
(1.00448 0.00284059 0)
(1.0004 0.00583159 0)
(1.0005 0.0102581 0)
(1.00556 0.0110761 0)
(1.01207 0.00834989 0)
(1.00937 0.00970093 0)
(1.00838 0.00870152 0)
(1.0101 0.00515802 0)
(1.01036 0.00633171 0)
(1.00817 0.00831472 0)
(1.00758 0.00782064 0)
(1.00763 0.00889871 0)
(1.00894 0.0106527 0)
(1.00987 0.0112839 0)
(1.0103 0.0114857 0)
(0.999858 0.00037704 0)
(1.00163 -0.000443375 0)
(0.997695 -0.00269361 0)
(0.999383 0.00708638 0)
(1.00302 0.00399818 0)
(1.00445 0.00292419 0)
(1.00064 0.00577967 0)
(1.00065 0.00988724 0)
(1.00535 0.0108541 0)
(1.01188 0.008166 0)
(1.0093 0.00934455 0)
(1.00797 0.0089015 0)
(1.00981 0.00548953 0)
(1.01054 0.0061956 0)
(1.00822 0.00850586 0)
(1.00753 0.00817572 0)
(1.00784 0.00873262 0)
(1.00918 0.0104173 0)
(1.00993 0.011336 0)
(1.01036 0.0114332 0)
(0.999848 0.000255842 0)
(1.0015 -0.000209871 0)
(0.997932 -0.00254579 0)
(0.999508 0.00654366 0)
(1.00276 0.00410121 0)
(1.00441 0.00299007 0)
(1.00087 0.00572191 0)
(1.0008 0.00953847 0)
(1.00512 0.0106218 0)
(1.01166 0.00799757 0)
(1.00925 0.00898484 0)
(1.00758 0.00905787 0)
(1.00947 0.00587007 0)
(1.0107 0.00606681 0)
(1.00831 0.00858867 0)
(1.00744 0.00856816 0)
(1.00798 0.00866817 0)
(1.00945 0.0101027 0)
(1.01002 0.0113187 0)
(1.01038 0.0114403 0)
(0.99984 0.000139457 0)
(1.00136 5.83479e-06 0)
(0.99814 -0.00236107 0)
(0.999637 0.0059768 0)
(1.00249 0.00420668 0)
(1.00435 0.00304222 0)
(1.00108 0.00564173 0)
(1.00093 0.0092202 0)
(1.00489 0.0103871 0)
(1.01142 0.00784651 0)
(1.00921 0.00862965 0)
(1.00724 0.00916451 0)
(1.0091 0.00628766 0)
(1.01084 0.00597115 0)
(1.00847 0.0085617 0)
(1.00733 0.00895332 0)
(1.00802 0.00873065 0)
(1.00973 0.00976271 0)
(1.01016 0.0111859 0)
(1.01037 0.0114937 0)
(0.999833 3.14924e-05 0)
(1.00123 0.000198846 0)
(0.998317 -0.0021391 0)
(0.99977 0.00537692 0)
(1.00224 0.00430958 0)
(1.00427 0.00309949 0)
(1.00128 0.00552871 0)
(1.00106 0.00892204 0)
(1.00465 0.0101522 0)
(1.01115 0.00770601 0)
(1.00918 0.00828107 0)
(1.00693 0.0092177 0)
(1.00868 0.00672724 0)
(1.01093 0.00592549 0)
(1.00868 0.00843158 0)
(1.00724 0.00928569 0)
(1.00798 0.00890807 0)
(1.00997 0.00946714 0)
(1.01037 0.0109316 0)
(1.01037 0.0115223 0)
(0.999826 -6.76343e-05 0)
(1.00109 0.000358912 0)
(0.99846 -0.0018809 0)
(0.9999 0.00475564 0)
(1.00201 0.00439434 0)
(1.00417 0.00317098 0)
(1.00146 0.00538517 0)
(1.00118 0.00862851 0)
(1.0044 0.00992441 0)
(1.01085 0.0075723 0)
(1.00916 0.00792851 0)
(1.00667 0.00920854 0)
(1.00823 0.00717694 0)
(1.01097 0.00595161 0)
(1.00895 0.00821985 0)
(1.00719 0.00953047 0)
(1.00784 0.00916941 0)
(1.01013 0.00926673 0)
(1.01063 0.0105969 0)
(1.01042 0.0114551 0)
(0.999819 -0.00015334 0)
(1.00096 0.000480923 0)
(0.998571 -0.00159262 0)
(1.00003 0.00414267 0)
(1.0018 0.00444812 0)
(1.00405 0.00327021 0)
(1.00162 0.00521233 0)
(1.00129 0.00832081 0)
(1.00415 0.00970821 0)
(1.01052 0.00746166 0)
(1.00913 0.00757874 0)
(1.00646 0.00913057 0)
(1.00776 0.00761827 0)
(1.01093 0.00606062 0)
(1.00925 0.00795154 0)
(1.0072 0.00965496 0)
(1.00765 0.0094723 0)
(1.0102 0.00917285 0)
(1.01091 0.0102332 0)
(1.01053 0.0112752 0)
(0.999811 -0.000225391 0)
(1.00083 0.000555415 0)
(0.998649 -0.00127022 0)
(1.00014 0.00356056 0)
(1.00161 0.00444646 0)
(1.0039 0.0034086 0)
(1.00176 0.00503122 0)
(1.0014 0.0079946 0)
(1.00389 0.00950179 0)
(1.01015 0.00738407 0)
(1.00911 0.00724208 0)
(1.00631 0.00898197 0)
(1.00729 0.00802918 0)
(1.01079 0.00626052 0)
(1.00955 0.00766892 0)
(1.0073 0.00964672 0)
(1.00744 0.00978113 0)
(1.01016 0.0091856 0)
(1.01116 0.00988112 0)
(1.01071 0.0109968 0)
(0.999803 -0.000280191 0)
(1.00071 0.000581037 0)
(0.998698 -0.000933176 0)
(1.00025 0.00303238 0)
(1.00144 0.00437164 0)
(1.00373 0.00357497 0)
(1.00187 0.00486329 0)
(1.00152 0.00765222 0)
(1.00364 0.00929629 0)
(1.00975 0.00733626 0)
(1.00907 0.00692863 0)
(1.00623 0.00876291 0)
(1.00683 0.00838096 0)
(1.01056 0.00653783 0)
(1.00983 0.00742062 0)
(1.00749 0.00950814 0)
(1.00723 0.0100502 0)
(1.01 0.00930135 0)
(1.01135 0.00957982 0)
(1.01095 0.0106411 0)
(0.999794 -0.000317909 0)
(1.00061 0.000560315 0)
(0.998722 -0.000584566 0)
(1.00033 0.002581 0)
(1.00131 0.00420667 0)
(1.00355 0.00375303 0)
(1.00194 0.00472038 0)
(1.00163 0.00728584 0)
(1.00341 0.00908064 0)
(1.00931 0.00732102 0)
(1.009 0.00665989 0)
(1.00621 0.00848396 0)
(1.0064 0.00865017 0)
(1.01025 0.00686355 0)
(1.01006 0.00724494 0)
(1.00776 0.00925989 0)
(1.00706 0.0102191 0)
(1.00974 0.00948817 0)
(1.01144 0.00936717 0)
(1.01122 0.01023 0)
(0.999784 -0.000338901 0)
(1.00051 0.00049926 0)
(0.998728 -0.000239348 0)
(1.0004 0.0022222 0)
(1.00121 0.00395561 0)
(1.00335 0.00391963 0)
(1.00198 0.00461645 0)
(1.00174 0.00689122 0)
(1.00319 0.00884202 0)
(1.00885 0.00733808 0)
(1.00889 0.00645607 0)
(1.00624 0.00816477 0)
(1.00603 0.00882008 0)
(1.00986 0.00720334 0)
(1.0102 0.00716035 0)
(1.00809 0.00895491 0)
(1.00698 0.0102574 0)
(1.00942 0.0096905 0)
(1.01141 0.00926982 0)
(1.01149 0.00981484 0)
(0.999775 -0.000343239 0)
(1.00044 0.000408707 0)
(0.998721 9.12756e-05 0)
(1.00043 0.00195508 0)
(1.00114 0.0036454 0)
(1.00316 0.00405088 0)
(1.00197 0.00457009 0)
(1.00185 0.0064958 0)
(1.00301 0.00856508 0)
(1.00837 0.00736912 0)
(1.00874 0.00632649 0)
(1.0063 0.00783841 0)
(1.00573 0.00888877 0)
(1.00943 0.00751925 0)
(1.01025 0.00715582 0)
(1.00843 0.00864125 0)
(1.00698 0.0101715 0)
(1.00907 0.0098443 0)
(1.01124 0.00926463 0)
(1.0117 0.00946124 0)
(0.999765 -0.000330757 0)
(1.00038 0.00028959 0)
(0.998709 0.000393926 0)
(1.00043 0.0017838 0)
(1.00109 0.00329708 0)
(1.00299 0.00412125 0)
(1.00193 0.00459382 0)
(1.00193 0.00613856 0)
(1.00286 0.00824109 0)
(1.0079 0.00739197 0)
(1.00854 0.00627815 0)
(1.00639 0.00752526 0)
(1.00549 0.00885622 0)
(1.00897 0.00778104 0)
(1.0102 0.00720994 0)
(1.00877 0.00834373 0)
(1.00706 0.00998703 0)
(1.00874 0.00992265 0)
(1.01096 0.00929786 0)
(1.01179 0.0092115 0)
(0.999756 -0.000304938 0)
(1.00034 0.000155358 0)
(0.998703 0.000640793 0)
(1.0004 0.00170989 0)
(1.00107 0.00294902 0)
(1.00285 0.00410864 0)
(1.00185 0.00467014 0)
(1.00199 0.00584608 0)
(1.00274 0.00787827 0)
(1.00744 0.00737479 0)
(1.0083 0.00630397 0)
(1.00647 0.00724152 0)
(1.00532 0.00873466 0)
(1.00851 0.00797511 0)
(1.01005 0.00730426 0)
(1.00906 0.0080747 0)
(1.00721 0.00971702 0)
(1.00845 0.00992467 0)
(1.01061 0.00932548 0)
(1.01177 0.00905144 0)
(0.999748 -0.000269451 0)
(1.00031 2.65032e-05 0)
(0.998709 0.000823683 0)
(1.00033 0.001713 0)
(1.00105 0.00263835 0)
(1.00275 0.00401294 0)
(1.00176 0.00476466 0)
(1.00202 0.00562753 0)
(1.00264 0.00749769 0)
(1.00702 0.00729438 0)
(1.00802 0.00636361 0)
(1.00653 0.00701398 0)
(1.0052 0.00855914 0)
(1.00808 0.00809154 0)
(1.00983 0.00740477 0)
(1.0093 0.00784632 0)
(1.00742 0.0093818 0)
(1.00822 0.00985052 0)
(1.01022 0.00934165 0)
(1.01163 0.00893997 0)
(0.999742 -0.000228052 0)
(1.0003 -9.41747e-05 0)
(0.998736 0.000941817 0)
(1.00025 0.0017793 0)
(1.00104 0.00237752 0)
(1.00269 0.00382444 0)
(1.00167 0.00484767 0)
(1.002 0.00550275 0)
(1.00256 0.00713453 0)
(1.00663 0.00715013 0)
(1.00773 0.00641065 0)
(1.00657 0.00684582 0)
(1.00512 0.0083605 0)
(1.00767 0.00813226 0)
(1.00955 0.007481 0)
(1.00946 0.00766353 0)
(1.00767 0.00902205 0)
(1.00806 0.00969365 0)
(1.00982 0.00934401 0)
(1.0114 0.00884348 0)
(0.999739 -0.000186311 0)
(1.0003 -0.0002017 0)
(0.998788 0.000987946 0)
(1.00014 0.00188647 0)
(1.00101 0.00219604 0)
(1.00268 0.00356148 0)
(1.0016 0.00487516 0)
(1.00196 0.00546083 0)
(1.00248 0.00682031 0)
(1.00628 0.00694808 0)
(1.00743 0.00642094 0)
(1.00659 0.00671016 0)
(1.00507 0.00815246 0)
(1.00729 0.00812108 0)
(1.00922 0.00753814 0)
(1.00954 0.00752675 0)
(1.00792 0.00867891 0)
(1.00799 0.00946447 0)
(1.00942 0.00932059 0)
(1.01111 0.0087577 0)
(0.999738 -0.00014925 0)
(1.00031 -0.00027939 0)
(0.998868 0.000966039 0)
(1.00004 0.00200409 0)
(1.00097 0.00209478 0)
(1.00269 0.00326712 0)
(1.00157 0.00482602 0)
(1.0019 0.00547365 0)
(1.00238 0.00658383 0)
(1.00597 0.00672256 0)
(1.00714 0.00639201 0)
(1.00659 0.00658976 0)
(1.00506 0.00793754 0)
(1.00696 0.00806924 0)
(1.00886 0.00757664 0)
(1.00955 0.00741193 0)
(1.00816 0.00835151 0)
(1.008 0.00916773 0)
(1.00906 0.00924081 0)
(1.01075 0.00868207 0)
(0.999741 -0.000117651 0)
(1.00033 -0.00032592 0)
(0.998975 0.000883139 0)
(0.999949 0.00211776 0)
(1.00089 0.00207671 0)
(1.00273 0.00297047 0)
(1.0016 0.00467906 0)
(1.00184 0.00549401 0)
(1.00226 0.00642596 0)
(1.00568 0.00650626 0)
(1.00686 0.00631335 0)
(1.00658 0.0064757 0)
(1.00506 0.00772956 0)
(1.00666 0.00798893 0)
(1.00849 0.007609 0)
(1.00948 0.00733089 0)
(1.00837 0.00806024 0)
(1.00808 0.00883592 0)
(1.00876 0.00910001 0)
(1.01036 0.00862342 0)
(0.999747 -0.000104166 0)
(1.00033 -0.000324574 0)
(0.999108 0.000768486 0)
(0.999879 0.00219539 0)
(1.00079 0.00213599 0)
(1.00277 0.0027192 0)
(1.00168 0.00444402 0)
(1.0018 0.00549197 0)
(1.00213 0.00634635 0)
(1.0054 0.00632665 0)
(1.0066 0.00619292 0)
(1.00656 0.00632942 0)
(1.00509 0.00750787 0)
(1.00641 0.00786212 0)
(1.00811 0.00760156 0)
(1.00935 0.00725874 0)
(1.00853 0.00780068 0)
(1.0082 0.00848263 0)
(1.00855 0.00888396 0)
(1.00995 0.00855163 0)
(0.999759 -7.99094e-05 0)
(1.00034 -0.000342501 0)
(0.999256 0.000622024 0)
(0.999839 0.00221718 0)
(1.00068 0.00223282 0)
(1.00279 0.00252445 0)
(1.00181 0.00413872 0)
(1.00182 0.00542988 0)
(1.00198 0.00630951 0)
(1.00511 0.00619211 0)
(1.00634 0.00607881 0)
(1.00654 0.00616845 0)
(1.00513 0.00728058 0)
(1.00621 0.00771314 0)
(1.00775 0.00756199 0)
(1.00917 0.00718183 0)
(1.00863 0.00757384 0)
(1.00833 0.00813262 0)
(1.00843 0.00859859 0)
(1.00958 0.00842266 0)
(0.999767 -0.000106278 0)
(1.00033 -0.000202216 0)
(0.999424 0.000523003 0)
(0.999837 0.00221253 0)
(1.00055 0.00237404 0)
(1.00278 0.0024254 0)
(1.00197 0.00382385 0)
(1.00189 0.00529526 0)
(1.00185 0.00628075 0)
(1.00481 0.00609485 0)
(1.00609 0.00597091 0)
(1.00652 0.00600046 0)
(1.0052 0.00702968 0)
(1.00605 0.00752799 0)
(1.0074 0.00749661 0)
(1.00895 0.00709427 0)
(1.00866 0.0073675 0)
(1.00846 0.00781145 0)
(1.00837 0.00828641 0)
(1.00927 0.0082314 0)
(0.999794 -0.000103195 0)
(1.00033 -0.000222898 0)
(0.999571 0.000343818 0)
(0.999868 0.00210849 0)
(1.00043 0.00252416 0)
(1.00273 0.00243027 0)
(1.00214 0.00352559 0)
(1.00202 0.00505123 0)
(1.00174 0.00621798 0)
(1.00451 0.00603221 0)
(1.00581 0.00588226 0)
(1.00647 0.00584599 0)
(1.00528 0.00677563 0)
(1.00595 0.00730849 0)
(1.00707 0.00740952 0)
(1.0087 0.00701046 0)
(1.00865 0.00717343 0)
(1.00856 0.00751285 0)
(1.00835 0.00797664 0)
(1.00904 0.00798601 0)
(0.999802 -0.000122841 0)
(1.0003 -0.000131355 0)
(0.999752 0.000228596 0)
(0.999963 0.00197333 0)
(1.00033 0.00265466 0)
(1.00264 0.00252052 0)
(1.0023 0.00329453 0)
(1.00222 0.00472113 0)
(1.00169 0.00608328 0)
(1.00422 0.00597487 0)
(1.00554 0.00581271 0)
(1.00642 0.00569631 0)
(1.00538 0.00652635 0)
(1.00591 0.00706095 0)
(1.0068 0.00728016 0)
(1.00843 0.0069228 0)
(1.00859 0.00699359 0)
(1.00865 0.00721775 0)
(1.00836 0.00767011 0)
(1.00888 0.00770828 0)
(0.999836 -0.00016398 0)
(1.00029 5.37522e-05 0)
(0.999872 0.000221337 0)
(1.00007 0.00185262 0)
(1.00027 0.00272606 0)
(1.00252 0.00262289 0)
(1.0024 0.00313832 0)
(1.00244 0.0043617 0)
(1.0017 0.00586089 0)
(1.00394 0.00589263 0)
(1.00524 0.00574878 0)
(1.00633 0.00554704 0)
(1.00546 0.00626973 0)
(1.00589 0.00678987 0)
(1.00657 0.00709925 0)
(1.00815 0.00680258 0)
(1.00848 0.00682875 0)
(1.0087 0.00692787 0)
(1.00839 0.00735619 0)
(1.00876 0.00742049 0)
(0.99985 -0.000161456 0)
(1.00025 6.63115e-05 0)
(0.999998 0.000189884 0)
(1.00021 0.00169401 0)
(1.00024 0.00271763 0)
(1.00238 0.00270012 0)
(1.00246 0.00304496 0)
(1.00267 0.00401911 0)
(1.00178 0.00556237 0)
(1.00371 0.00577594 0)
(1.00494 0.00568992 0)
(1.00621 0.00542121 0)
(1.00553 0.0060218 0)
(1.00591 0.00650316 0)
(1.00638 0.00689077 0)
(1.00788 0.00664127 0)
(1.00831 0.00665947 0)
(1.0087 0.00664877 0)
(1.00842 0.00701227 0)
(1.00868 0.00710508 0)
(0.999875 -0.000189869 0)
(1.00022 0.00020965 0)
(1.00008 0.000246172 0)
(1.00035 0.00154724 0)
(1.00024 0.00266497 0)
(1.00224 0.00276421 0)
(1.00246 0.00302081 0)
(1.00286 0.00373755 0)
(1.0019 0.00522262 0)
(1.00353 0.00560632 0)
(1.00463 0.00561452 0)
(1.00605 0.0052998 0)
(1.00557 0.00578583 0)
(1.00595 0.00619929 0)
(1.00623 0.00666471 0)
(1.00762 0.00647122 0)
(1.00811 0.006491 0)
(1.00864 0.00642176 0)
(1.00843 0.00669143 0)
(1.00862 0.00679527 0)
(0.999895 -0.000201421 0)
(1.00018 0.000288237 0)
(1.00014 0.000317168 0)
(1.00048 0.00142524 0)
(1.00027 0.00258079 0)
(1.0021 0.00279821 0)
(1.00241 0.0030223 0)
(1.00302 0.00351975 0)
(1.00204 0.00488432 0)
(1.00341 0.00539717 0)
(1.00434 0.00553695 0)
(1.00585 0.00521079 0)
(1.00557 0.00560138 0)
(1.006 0.00592111 0)
(1.00613 0.0064243 0)
(1.00738 0.00630896 0)
(1.0079 0.00632143 0)
(1.00853 0.00622118 0)
(1.00841 0.00641025 0)
(1.00858 0.0064736 0)
(0.999916 -0.000200254 0)
(1.00016 0.000317132 0)
(1.00017 0.000381125 0)
(1.00059 0.00132628 0)
(1.00032 0.00246374 0)
(1.00199 0.00280442 0)
(1.00234 0.00304089 0)
(1.00313 0.00336395 0)
(1.0022 0.00456699 0)
(1.00334 0.00514346 0)
(1.00408 0.00541561 0)
(1.00563 0.00509733 0)
(1.00552 0.00540259 0)
(1.00603 0.00561401 0)
(1.00606 0.00610038 0)
(1.00716 0.00605901 0)
(1.00767 0.00609324 0)
(1.00838 0.00596277 0)
(1.00833 0.00612364 0)
(1.00853 0.00612414 0)
(0.999932 -0.000197328 0)
(1.00013 0.000338542 0)
(1.0002 0.000458022 0)
(1.00069 0.00126641 0)
(1.00039 0.00234939 0)
(1.00189 0.00277839 0)
(1.00224 0.00304748 0)
(1.00318 0.00324318 0)
(1.00234 0.00427373 0)