/*--------------------------------*- C++ -*----------------------------------*\
| =========                 |                                                 |
| \\      /  F ield         | OpenFOAM: The Open Source CFD Toolbox           |
|  \\    /   O peration     | Version:  v1906                                 |
|   \\  /    A nd           | Web:      www.OpenFOAM.com                      |
|    \\/     M anipulation  |                                                 |
\*---------------------------------------------------------------------------*/
FoamFile
{
    version     2.0;
    format      ascii;
    class       volVectorField;
    location    "0.9";
    object      U;
}
// * * * * * * * * * * * * * * * * * * * * * * * * * * * * * * * * * * * * * //

dimensions      [0 1 -1 0 0 0 0];


internalField   nonuniform List<vector> 
9600
(
(0.838902 -0.00389281 0)
(1.16342 0.00415406 0)
(0.892753 0.00411286 0)
(1.13424 0.00039695 0)
(0.805106 -0.00527249 0)
(1.15801 -0.000792031 0)
(0.891135 -0.00898442 0)
(1.13073 0.00739836 0)
(0.900172 0.000595372 0)
(1.12824 0.00945097 0)
(0.888255 -0.000241548 0)
(1.10814 0.00451354 0)
(0.889797 -0.00288377 0)
(1.11702 0.00162337 0)
(0.898804 -0.00201812 0)
(1.12279 -0.00125124 0)
(0.893627 -0.00439188 0)
(1.11975 -0.00360126 0)
(0.877219 -0.0055213 0)
(1.12135 -0.00435726 0)
(0.850349 -0.00399195 0)
(1.15424 0.00391962 0)
(0.90566 0.00415 0)
(1.12203 0.00157321 0)
(0.828115 -0.00568206 0)
(1.14224 -0.00152961 0)
(0.910102 -0.00893657 0)
(1.11907 0.00748209 0)
(0.923065 0.000512301 0)
(1.11058 0.00968283 0)
(0.922063 -5.67125e-05 0)
(1.08234 0.00467413 0)
(0.932682 -0.00313894 0)
(1.07844 0.001533 0)
(0.953887 -0.0021778 0)
(1.06711 -0.00114693 0)
(0.968068 -0.00404161 0)
(1.03987 -0.00360951 0)
(0.979959 -0.00459966 0)
(1.00471 -0.0046466 0)
(0.871633 -0.00411112 0)
(1.13397 0.00365699 0)
(0.928207 0.00430724 0)
(1.10027 0.00224314 0)
(0.865821 -0.00607211 0)
(1.11348 -0.00213543 0)
(0.940085 -0.00882934 0)
(1.09442 0.00744487 0)
(0.957042 0.000555797 0)
(1.08001 0.00983348 0)
(0.963135 0.00031794 0)
(1.04753 0.0045641 0)
(0.974152 -0.00305344 0)
(1.03741 0.0011332 0)
(0.993038 -0.00190623 0)
(1.02653 -0.00148573 0)
(1.00103 -0.0033362 0)
(1.00739 -0.00397336 0)
(0.998818 -0.00355071 0)
(0.989429 -0.0038079 0)
(0.899497 -0.00420539 0)
(1.10504 0.00338311 0)
(0.953524 0.00447439 0)
(1.07324 0.00277851 0)
(0.907717 -0.00626463 0)
(1.07883 -0.00270076 0)
(0.969979 -0.00872032 0)
(1.06457 0.00727492 0)
(0.985747 0.000744045 0)
(1.04952 0.00976986 0)
(0.990081 0.000767562 0)
(1.02167 0.00439877 0)
(0.993943 -0.00284185 0)
(1.01354 0.000763301 0)
(1.00361 -0.00169881 0)
(1.00981 -0.0016661 0)
(1.00373 -0.00290941 0)
(0.999837 -0.00389553 0)
(0.994719 -0.00296332 0)
(0.988127 -0.00287602 0)
(0.929035 -0.00426557 0)
(1.07302 0.00307943 0)
(0.975272 0.00464785 0)
(1.04681 0.00317115 0)
(0.944162 -0.00633469 0)
(1.04735 -0.00322891 0)
(0.990932 -0.00862448 0)
(1.03869 0.00708433 0)
(1.00193 0.000966268 0)
(1.02752 0.00967407 0)
(1.0011 0.00117515 0)
(1.00834 0.00432091 0)
(0.999177 -0.00263497 0)
(1.00323 0.000525179 0)
(1.00246 -0.00156635 0)
(1.00308 -0.00175285 0)
(1.00052 -0.00255135 0)
(0.996436 -0.00378017 0)
(0.991473 -0.00234003 0)
(0.985258 -0.00214609 0)
(0.955382 -0.00429309 0)
(1.04405 0.00279799 0)
(0.989926 0.00481052 0)
(1.02589 0.00341673 0)
(0.970311 -0.00633643 0)
(1.02491 -0.00364901 0)
(1.00102 -0.00855189 0)
(1.02076 0.00692766 0)
(1.00754 0.00116659 0)
(1.01451 0.00963581 0)
(1.00336 0.00149709 0)
(1.00306 0.00428995 0)
(0.999907 -0.00242745 0)
(0.999516 0.000361164 0)
(1.00008 -0.00143856 0)
(0.9999 -0.00182914 0)
(0.998042 -0.00224646 0)
(0.994481 -0.00362919 0)
(0.989972 -0.00180146 0)
(0.983712 -0.00138596 0)
(0.975427 -0.00429197 0)
(1.02221 0.00258359 0)
(0.997378 0.00493248 0)
(1.01234 0.0035414 0)
(0.986402 -0.00630336 0)
(1.01218 -0.00393442 0)
(1.00339 -0.00849516 0)
(1.00976 0.0067991 0)
(1.00739 0.00133587 0)
(1.00747 0.00961503 0)
(1.0028 0.0017368 0)
(1.0015 0.00424597 0)
(1.00037 -0.00221523 0)
(0.998764 0.000227947 0)
(0.998976 -0.00129602 0)
(0.998633 -0.00191337 0)
(0.996716 -0.00197252 0)
(0.993705 -0.00345227 0)
(0.989429 -0.00133666 0)
(0.983605 -0.000576337 0)
(0.988472 -0.00427096 0)
(1.00839 0.002445 0)
(0.99982 0.00500358 0)
(1.00516 0.00357798 0)
(0.995247 -0.00626177 0)
(1.00646 -0.00410324 0)
(1.0022 -0.00842612 0)
(1.00306 0.00667744 0)
(1.00514 0.0014755 0)
(1.00362 0.00956444 0)
(1.00197 0.00191769 0)
(1.0014 0.00415695 0)
(1.00119 -0.00200256 0)
(0.999278 0.000107862 0)
(0.998964 -0.00113468 0)
(0.99845 -0.00198176 0)
(0.996255 -0.00171456 0)
(0.993561 -0.00323577 0)
(0.98951 -0.000941452 0)
(0.984215 0.000267112 0)
(0.995685 -0.00423922 0)
(1.001 0.00236936 0)
(0.999915 0.00503134 0)
(1.00221 0.00355019 0)
(0.999768 -0.00622157 0)
(1.00445 -0.00418683 0)
(1.00015 -0.0083206 0)
(0.998708 0.00655084 0)
(1.00263 0.00158936 0)
(1.00144 0.00946413 0)
(1.00146 0.00205647 0)
(1.00175 0.00401879 0)
(1.00209 -0.0017905 0)
(1.00014 -5.78807e-06 0)
(0.999466 -0.000955267 0)
(0.998751 -0.00201807 0)
(0.996335 -0.00147523 0)
(0.993738 -0.00296069 0)
(0.989948 -0.000614 0)
(0.985157 0.00108139 0)
(0.998996 -0.00420117 0)
(0.997599 0.00233364 0)
(0.999491 0.00502826 0)
(1.00157 0.00347788 0)
(1.00196 -0.00617816 0)
(1.00381 -0.00421299 0)
(0.998325 -0.00817146 0)
(0.995781 0.00641642 0)
(1.0006 0.00168195 0)
(1.00023 0.00930943 0)
(1.00128 0.0021668 0)
(1.00217 0.00384179 0)
(1.0028 -0.00157542 0)
(1.00087 -0.000119346 0)
(1.00003 -0.000764886 0)
(0.999172 -0.00201885 0)
(0.996666 -0.00126211 0)
(0.994108 -0.00262333 0)
(0.990575 -0.000343992 0)
(0.986254 0.00183739 0)
(1.00017 -0.00415695 0)
(0.996179 0.00231439 0)
(0.999287 0.00500442 0)
(1.00203 0.00337968 0)
(1.00294 -0.00612156 0)
(1.00341 -0.00420185 0)
(0.996945 -0.00798484 0)
(0.993869 0.00627221 0)
(0.999228 0.00175745 0)
(0.999662 0.00910587 0)
(1.0013 0.00226141 0)
(1.00249 0.00363881 0)
(1.00321 -0.00135623 0)
(1.00132 -0.000231406 0)
(1.00041 -0.000575921 0)
(0.999524 -0.00198324 0)
(0.997054 -0.00108051 0)
(0.99457 -0.00223391 0)
(0.991293 -0.000110126 0)
(0.987398 0.00251763 0)
(1.00038 -0.00410546 0)
(0.995554 0.00229642 0)
(0.999368 0.00496325 0)
(1.0029 0.0032683 0)
(1.00331 -0.00604303 0)
(1.00292 -0.00416799 0)
(0.995951 -0.00777109 0)
(0.99271 0.00611619 0)
(0.998444 0.00182026 0)
(0.999513 0.00886124 0)
(1.00142 0.00235471 0)
(1.00269 0.00342128 0)
(1.00335 -0.00113186 0)
(1.00149 -0.000336296 0)
(1.00057 -0.000401793 0)
(0.999739 -0.00191238 0)
(0.997394 -0.000931829 0)
(0.995036 -0.0018108 0)
(0.992027 8.68167e-05 0)
(0.988514 0.00310497 0)
(1.00028 -0.0040459 0)
(0.995206 0.0022724 0)
(0.999585 0.00490561 0)
(1.00383 0.00315103 0)
(1.00338 -0.00593735 0)
(1.00235 -0.00412053 0)
(0.995262 -0.00754099 0)
(0.992076 0.0059462 0)
(0.99808 0.00187403 0)
(0.999599 0.00858399 0)
(1.00158 0.00245387 0)
(1.0028 0.0031992 0)
(1.00332 -0.000902588 0)
(1.00147 -0.000429901 0)
(1.00054 -0.000249953 0)
(0.999823 -0.0018083 0)
(0.997647 -0.000814758 0)
(0.995441 -0.00137313 0)
(0.992713 0.000275637 0)
(0.989549 0.0035888 0)
(1.00013 -0.00397827 0)
(0.994972 0.00224012 0)
(0.999815 0.00483297 0)
(1.0046 0.00303084 0)
(1.00334 -0.00580368 0)
(1.00179 -0.0040643 0)
(0.994815 -0.00730288 0)
(0.991778 0.00576101 0)
(0.997966 0.00192148 0)
(0.999781 0.00828295 0)
(1.00172 0.00255698 0)
(1.00284 0.00297997 0)
(1.0032 -0.000673938 0)
(1.00136 -0.000504378 0)
(1.00042 -0.000127578 0)
(0.999817 -0.00167063 0)
(0.99782 -0.000727128 0)
(0.995762 -0.000939452 0)
(0.993312 0.000498398 0)
(0.990472 0.00396991 0)
(1.00001 -0.00390327 0)
(0.994822 0.00219979 0)
(0.999999 0.00474793 0)
(1.00516 0.00290812 0)
(1.00328 -0.00564464 0)
(1.00133 -0.00400225 0)
(0.994559 -0.00706055 0)
(0.991685 0.0055616 0)
(0.997981 0.00196572 0)
(0.999973 0.00796238 0)
(1.0018 0.00266776 0)
(1.00284 0.00276777 0)
(1.00305 -0.000450635 0)
(1.00125 -0.0005549 0)
(1.00028 -3.21816e-05 0)
(0.999768 -0.00150562 0)
(0.997935 -0.000654617 0)
(0.996005 -0.000525692 0)
(0.993813 0.000753124 0)
(0.991274 0.00425589 0)
(0.999941 -0.00382204 0)
(0.99475 0.00215254 0)
(1.00012 0.00465371 0)
(1.00548 0.00278239 0)
(1.00321 -0.00546475 0)
(1.00101 -0.00393602 0)
(0.994453 -0.00681543 0)
(0.991713 0.0053495 0)
(0.998046 0.00200684 0)
(1.00013 0.00762814 0)
(1.00183 0.00278313 0)
(1.00281 0.0025658 0)
(1.00291 -0.000236941 0)
(1.00117 -0.000579417 0)
(1.00016 4.23941e-05 0)
(0.999707 -0.0013225 0)
(0.998019 -0.0005802 0)
(0.996189 -0.000142946 0)
(0.994227 0.00103989 0)
(0.991967 0.00446398 0)
(0.99991 -0.00373574 0)
(0.99475 0.00209954 0)
(1.0002 0.00455358 0)
(1.00561 0.00265314 0)
(1.00314 -0.00526912 0)
(1.0008 -0.00386662 0)
(0.99446 -0.00656688 0)
(0.991811 0.0051291 0)
(0.998124 0.00204442 0)
(1.00025 0.00728552 0)
(1.0018 0.00289483 0)
(1.00276 0.00237758 0)
(1.00279 -3.84058e-05 0)
(1.00111 -0.000575489 0)
(1.00006 9.75871e-05 0)
(0.999652 -0.00112822 0)
(0.99809 -0.000493321 0)
(0.99634 0.000201942 0)
(0.994574 0.00134938 0)
(0.992575 0.00461492 0)
(0.999901 -0.00364532 0)
(0.994804 0.0020417 0)
(1.00024 0.00445006 0)
(1.00561 0.0025204 0)
(1.00306 -0.00506242 0)
(1.00068 -0.00379447 0)
(0.994553 -0.00631549 0)
(0.991953 0.00490343 0)
(0.998197 0.00207995 0)
(1.00032 0.00693801 0)
(1.00171 0.00300167 0)
(1.00269 0.00220426 0)
(1.00267 0.000143961 0)
(1.00108 -0.000546928 0)
(0.999997 0.000138137 0)
(0.999607 -0.000930592 0)
(0.998159 -0.000386845 0)
(0.996477 0.000510562 0)
(0.994878 0.00166607 0)
(0.99312 0.00472355 0)
(0.999905 -0.00355162 0)
(0.994897 0.00198001 0)
(1.00026 0.00434462 0)
(1.00552 0.00238485 0)
(1.00296 -0.00484859 0)
(1.00061 -0.00371942 0)
(0.994703 -0.00606439 0)
(0.992122 0.0046763 0)
(0.998265 0.00211265 0)
(1.00037 0.0065898 0)
(1.00159 0.00310165 0)
(1.00261 0.00204524 0)
(1.00257 0.000309349 0)
(1.00106 -0.000498977 0)
(0.999957 0.000170944 0)
(0.999572 -0.000727997 0)
(0.998233 -0.000260399 0)
(0.996612 0.000792412 0)
(0.995155 0.00198031 0)
(0.993623 0.00480872 0)
(0.999914 -0.00345522 0)
(0.995014 0.00191489 0)
(1.00027 0.00423848 0)
(1.00539 0.00224721 0)
(1.00285 -0.00463114 0)
(1.00058 -0.00364083 0)
(0.994888 -0.00581523 0)
(0.99231 0.00445325 0)
(0.998328 0.00213941 0)
(1.0004 0.00624338 0)
(1.00146 0.00319216 0)
(1.00251 0.00190297 0)
(1.00246 0.000453516 0)
(1.00104 -0.000433622 0)
(0.999933 0.000204047 0)
(0.999547 -0.000519677 0)
(0.998313 -0.000114166 0)
(0.996754 0.00105545 0)
(0.995418 0.00228464 0)
(0.994094 0.00488515 0)
(0.999925 -0.00335641 0)
(0.995144 0.0018464 0)
(1.00028 0.00413204 0)
(1.00524 0.00210851 0)
(1.00273 -0.00441154 0)
(1.00055 -0.00355871 0)
(0.995092 -0.00556851 0)
(0.992509 0.00423482 0)
(0.99839 0.00216068 0)
(1.00043 0.00589968 0)
(1.00131 0.00327169 0)
(1.00241 0.00177547 0)
(1.00237 0.000579728 0)
(1.00102 -0.00035477 0)
(0.999921 0.000239174 0)
(0.99953 -0.000309939 0)
(0.998399 4.91665e-05 0)
(0.996908 0.00129977 0)
(0.995673 0.00257326 0)
(0.994541 0.00496032 0)
(0.999936 -0.0032555 0)
(0.995283 0.00177501 0)
(1.00029 0.00402434 0)
(1.00507 0.00197121 0)
(1.00262 -0.00419308 0)
(1.00053 -0.00347008 0)
(0.995305 -0.00532778 0)
(0.992716 0.00402308 0)
(0.998452 0.00217564 0)
(1.00047 0.00556022 0)
(1.00116 0.0033411 0)
(1.0023 0.00165856 0)
(1.00227 0.000693362 0)
(1.001 -0.000262401 0)
(0.999918 0.000273503 0)
(0.99952 -9.40406e-05 0)
(0.998491 0.00022181 0)
(0.997073 0.00151905 0)
(0.995926 0.00284078 0)
(0.994967 0.00503609 0)
(0.999947 -0.00315281 0)
(0.995427 0.00170138 0)
(1.00029 0.003915 0)
(1.0049 0.00183576 0)
(1.0025 -0.00397769 0)
(1.00051 -0.00337366 0)
(0.995521 -0.00509396 0)
(0.992929 0.00381882 0)
(0.998512 0.0021859 0)
(1.0005 0.00522376 0)
(1.00102 0.0034034 0)
(1.00219 0.00155204 0)
(1.00219 0.000791122 0)
(1.00097 -0.00015282 0)
(0.999923 0.000308474 0)
(0.999518 0.000124906 0)
(0.998586 0.000403768 0)
(0.99725 0.00171403 0)
(0.99618 0.00308793 0)
(0.995372 0.00511237 0)
(0.999958 -0.00304873 0)
(0.995574 0.00162609 0)
(1.00029 0.00380353 0)
(1.00473 0.00170358 0)
(1.00239 -0.00376603 0)
(1.00048 -0.00327005 0)
(0.995737 -0.0048664 0)
(0.993144 0.00362163 0)
(0.998569 0.00219251 0)
(1.00055 0.00489108 0)
(1.00088 0.00345958 0)
(1.00207 0.00145711 0)
(1.00211 0.000871155 0)
(1.00095 -2.54388e-05 0)
(0.999935 0.000346649 0)
(0.999525 0.000340865 0)
(0.998686 0.000603243 0)
(0.997439 0.00188805 0)
(0.996438 0.00331261 0)
(0.995758 0.00518763 0)
(0.999969 -0.00294361 0)
(0.995725 0.00155015 0)
(1.00029 0.0036879 0)
(1.00456 0.00157763 0)
(1.00228 -0.0035622 0)
(1.00046 -0.0031559 0)
(0.995953 -0.00464731 0)
(0.993364 0.00343082 0)
(0.998624 0.00219672 0)
(1.00059 0.00455678 0)
(1.00074 0.00351174 0)
(1.00196 0.00137603 0)
(1.00204 0.000931172 0)
(1.00092 0.000123133 0)
(0.999954 0.000389952 0)
(0.999544 0.000551027 0)
(0.998787 0.000822836 0)
(0.997637 0.00204203 0)
(0.996701 0.00350677 0)
(0.996123 0.00526442 0)
(0.999979 -0.00283749 0)
(0.995878 0.00147351 0)
(1.0003 0.00356798 0)
(1.00439 0.00145843 0)
(1.00217 -0.00336738 0)
(1.00043 -0.00303191 0)
(0.996169 -0.00443521 0)
(0.993586 0.0032437 0)
(0.998676 0.00220158 0)
(1.00064 0.00421599 0)
(1.00061 0.00355773 0)
(1.00184 0.00131375 0)
(1.00198 0.000969435 0)
(1.00089 0.00029276 0)
(0.999979 0.000441273 0)
(0.999576 0.000744202 0)
(0.99889 0.00106287 0)
(0.997842 0.00218713 0)
(0.996971 0.00366143 0)
(0.996471 0.00534683 0)
(0.999989 -0.00273101 0)
(0.996034 0.00139727 0)
(1.0003 0.00344271 0)
(1.00422 0.00134831 0)
(1.00206 -0.00318086 0)
(1.00041 -0.00290074 0)
(0.996385 -0.00422738 0)
(0.993811 0.00305666 0)
(0.998723 0.00221096 0)
(1.0007 0.00387587 0)
(1.00048 0.00359023 0)
(1.00171 0.001277 0)
(1.00193 0.000982923 0)
(1.00086 0.000477483 0)
(1.00001 0.000512588 0)
(0.999625 0.000915442 0)
(0.998997 0.00131084 0)
(0.99805 0.00233429 0)
(0.99725 0.00376696 0)
(0.996807 0.00541783 0)
(0.999999 -0.00262465 0)
(0.996192 0.00132302 0)
(1.0003 0.00331018 0)
(1.00404 0.00124877 0)
(1.00195 -0.0030033 0)
(1.00039 -0.00276161 0)
(0.9966 -0.00402307 0)
(0.994041 0.00286616 0)
(0.998765 0.00222891 0)
(1.00076 0.00354126 0)
(1.00037 0.0036032 0)
(1.00158 0.00127024 0)
(1.00189 0.000971791 0)
(1.00084 0.000673406 0)
(1.00004 0.000612337 0)
(0.99969 0.00106386 0)
(0.99911 0.00155262 0)
(0.998254 0.00249157 0)
(0.997535 0.00383197 0)
(0.99714 0.00544789 0)
(1.00001 -0.00251878 0)
(0.996351 0.00125159 0)
(1.0003 0.00316957 0)
(1.00387 0.00115857 0)
(1.00185 -0.00283383 0)
(1.00037 -0.00261761 0)
(0.996814 -0.00381773 0)
(0.994275 0.00266947 0)
(0.998803 0.00225339 0)
(1.00083 0.00321423 0)
(1.00026 0.0035921 0)
(1.00144 0.00130359 0)
(1.00186 0.000942937 0)
(1.00082 0.000872233 0)
(1.00007 0.000747784 0)
(0.999768 0.00119526 0)
(0.999233 0.00178142 0)
(0.998454 0.00266314 0)
(0.99782 0.00387963 0)
(0.997478 0.00542088 0)
(1.00002 -0.00241371 0)
(0.996511 0.00118392 0)
(1.0003 0.00301965 0)
(1.0037 0.0010776 0)
(1.00174 -0.00267055 0)
(1.00034 -0.00247433 0)
(0.997026 -0.00360768 0)
(0.994514 0.00246349 0)
(0.998837 0.0022824 0)
(1.0009 0.0029001 0)
(1.00017 0.00355111 0)
(1.0013 0.00137453 0)
(1.00184 0.000906715 0)
(1.00081 0.00105953 0)
(1.00009 0.000917553 0)
(0.999858 0.00131484 0)
(0.999367 0.00198502 0)
(0.998649 0.00284317 0)
(0.998097 0.00393587 0)
(0.997821 0.00535102 0)
(1.00003 -0.00231012 0)
(0.996671 0.00112034 0)
(1.00031 0.0028631 0)
(1.00353 0.00100438 0)
(1.00164 -0.00251231 0)
(1.00032 -0.00233117 0)
(0.997234 -0.00339238 0)
(0.994759 0.00225018 0)
(0.998867 0.00230991 0)
(1.00097 0.00261021 0)
(1.0001 0.00347604 0)
(1.00115 0.00147366 0)
(1.00182 0.000873305 0)
(1.00083 0.00122376 0)
(1.00012 0.00111213 0)
(0.999954 0.00142967 0)
(0.999515 0.00215691 0)
(0.998843 0.00301463 0)
(0.998361 0.00401197 0)
(0.998161 0.00527121 0)
(1.00004 -0.00220765 0)
(0.996831 0.00106208 0)
(1.00031 0.00269631 0)
(1.00337 0.000938132 0)
(1.00153 -0.0023577 0)
(1.00029 -0.00219193 0)
(0.997436 -0.00316805 0)
(0.995009 0.00203717 0)
(0.998896 0.00232981 0)
(1.00104 0.0023563 0)
(1.00005 0.00337164 0)
(1.001 0.00159804 0)
(1.00181 0.000858835 0)
(1.00086 0.00136315 0)
(1.00014 0.00132207 0)
(1.00005 0.00154318 0)
(0.999677 0.00229996 0)
(0.99904 0.00316656 0)
(0.998613 0.00409481 0)
(0.998488 0.00520963 0)
(1.00005 -0.00210732 0)
(0.996989 0.00100976 0)
(1.00031 0.00252305 0)
(1.0032 0.000873998 0)
(1.00143 -0.00219986 0)
(1.00027 -0.00206457 0)
(0.997631 -0.00293342 0)
(0.995262 0.00182683 0)
(0.998923 0.00233493 0)
(1.0011 0.00213751 0)
(1.00001 0.0032458 0)
(1.00085 0.00173377 0)
(1.00181 0.000871622 0)
(1.0009 0.0014782 0)
(1.00016 0.00154054 0)
(1.00015 0.00165612 0)
(0.99985 0.00241348 0)
(0.999243 0.00330451 0)
(0.998856 0.00416909 0)
(0.998796 0.00517335 0)
(1.00006 -0.00200918 0)
(0.997145 0.000962298 0)
(1.00031 0.00234798 0)
(1.00304 0.000804537 0)
(1.00133 -0.00203175 0)
(1.00025 -0.00195078 0)
(0.997818 -0.00269485 0)
(0.995516 0.00162428 0)
(0.998952 0.00231861 0)
(1.00117 0.00194869 0)
(0.999998 0.00310775 0)
(1.00071 0.00187415 0)
(1.0018 0.000907307 0)
(1.00097 0.00156887 0)
(1.00019 0.00176354 0)
(1.00024 0.00177672 0)
(1.00004 0.00249275 0)
(0.999454 0.00342946 0)
(0.999093 0.00423215 0)
(0.999084 0.00514455 0)
(1.00007 -0.00191274 0)
(0.997299 0.00092017 0)
(1.00031 0.00217014 0)
(1.00289 0.000729302 0)
(1.00123 -0.00185094 0)
(1.00023 -0.00184547 0)
(0.997997 -0.00245943 0)
(0.99577 0.00144274 0)
(0.998982 0.00227793 0)
(1.00123 0.00179325 0)
(1.00001 0.00296659 0)
(1.00057 0.00201721 0)
(1.00179 0.000967414 0)
(1.00106 0.00163672 0)
(1.00022 0.00198048 0)
(1.00032 0.00191334 0)
(1.00023 0.00253957 0)
(0.999675 0.00353196 0)
(0.999323 0.00429553 0)
(0.999355 0.00510857 0)
(1.00007 -0.00181858 0)
(0.997448 0.000881012 0)
(1.00031 0.00199866 0)
(1.00274 0.000639613 0)
(1.00113 -0.00165637 0)
(1.00021 -0.00174918 0)
(0.998169 -0.00222971 0)
(0.99602 0.00129576 0)
(0.999014 0.00221573 0)
(1.00129 0.00166204 0)
(1.00004 0.00282872 0)
(1.00043 0.00215677 0)
(1.00177 0.00104674 0)
(1.00117 0.00167752 0)
(1.00026 0.00218064 0)
(1.00039 0.00207345 0)
(1.00043 0.00256579 0)
(0.999912 0.00359768 0)
(0.999548 0.00436678 0)
(0.999609 0.00506832 0)
(1.00008 -0.00172575 0)
(0.997594 0.000842051 0)
(1.0003 0.00183711 0)
(1.0026 0.000530149 0)
(1.00104 -0.00145032 0)
(1.00019 -0.00165499 0)
(0.998336 -0.00201627 0)
(0.996265 0.0011841 0)
(0.999047 0.00214417 0)
(1.00134 0.00154448 0)
(1.00009 0.00269986 0)
(1.00031 0.00229135 0)
(1.00174 0.00114166 0)
(1.00129 0.00169229 0)
(1.00032 0.00235518 0)
(1.00044 0.00225827 0)
(1.00063 0.00258835 0)
(1.00017 0.00361377 0)
(0.999773 0.00443352 0)
(0.999844 0.00503631 0)
(1.00009 -0.00163415 0)
(0.997736 0.000801022 0)
(1.00029 0.00169142 0)
(1.00246 0.00039985 0)
(1.00094 -0.00123833 0)
(1.00016 -0.00155118 0)
(0.998498 -0.00183001 0)
(0.996504 0.0011049 0)
(0.999078 0.00207457 0)
(1.0014 0.00143384 0)
(1.00016 0.00257525 0)
(1.0002 0.00241789 0)
(1.0017 0.00124954 0)
(1.00142 0.00168276 0)
(1.0004 0.00249379 0)
(1.00048 0.00246476 0)
(1.00081 0.0026311 0)
(1.00045 0.00358678 0)
(1.00001 0.00447655 0)
(1.00006 0.00502317 0)
(1.00009 -0.00154254 0)
(0.997873 0.000754939 0)
(1.00027 0.00156401 0)
(1.00234 0.000251259 0)
(1.00085 -0.00103312 0)
(1.00013 -0.00143452 0)
(0.998655 -0.00167317 0)
(0.996738 0.00105288 0)
(0.999105 0.00201535 0)
(1.00145 0.00133171 0)
(1.00025 0.00244496 0)
(1.00011 0.00253513 0)
(1.00164 0.00137566 0)
(1.00156 0.00165546 0)
(1.00052 0.00258338 0)
(1.00051 0.00267556 0)
(1.00096 0.00270574 0)
(1.00073 0.00353369 0)
(1.00026 0.00448064 0)
(1.00026 0.0050214 0)
(1.0001 -0.00145088 0)
(0.998007 0.000703371 0)
(1.00025 0.00145647 0)
(1.00222 9.16992e-05 0)
(1.00077 -0.000848609 0)
(1.00009 -0.00128775 0)
(0.998807 -0.0015453 0)
(0.996969 0.001012 0)
(0.999127 0.00198012 0)
(1.0015 0.00124497 0)
(1.00037 0.00230142 0)
(1.00003 0.00263949 0)
(1.00157 0.00152426 0)
(1.00171 0.00162822 0)
(1.00066 0.0026242 0)
(1.00055 0.0028699 0)
(1.00109 0.00281191 0)
(1.00101 0.00347369 0)
(1.00053 0.00444255 0)
(1.00047 0.00501158 0)
(1.0001 -0.00135915 0)
(0.998137 0.000646333 0)
(1.00021 0.00137011 0)
(1.00211 -7.51542e-05 0)
(1.00069 -0.000696007 0)
(1.00005 -0.00110793 0)
(0.99895 -0.00143026 0)
(0.9972 0.000970458 0)
(0.999143 0.00197774 0)
(1.00153 0.00118167 0)
(1.0005 0.00213691 0)
(0.999974 0.00272331 0)
(1.00148 0.00169612 0)
(1.00184 0.00161496 0)
(1.00084 0.00261887 0)
(1.0006 0.00303072 0)
(1.00118 0.00294111 0)
(1.00128 0.00342366 0)
(1.00082 0.00437109 0)
(1.00067 0.00498594 0)
(1.0001 -0.00126649 0)
(0.998264 0.000583472 0)
(1.00017 0.00130131 0)
(1.002 -0.000237185 0)
(1.00063 -0.000587106 0)
(0.999995 -0.000899571 0)
(0.999082 -0.00132087 0)
(0.997432 0.000917754 0)
(0.999156 0.00199196 0)
(1.00155 0.00115324 0)
(1.00065 0.00195585 0)
(0.99995 0.00276868 0)
(1.00137 0.00188812 0)
(1.00195 0.00162945 0)
(1.00104 0.00257605 0)
(1.00067 0.00314994 0)
(1.00125 0.00308221 0)
(1.00153 0.00339156 0)
(1.00113 0.00427114 0)
(1.00089 0.00494127 0)
(1.0001 -0.00117188 0)
(0.998389 0.000512384 0)
(1.00012 0.00124958 0)
(1.00189 -0.000384426 0)
(1.00059 -0.00052811 0)
(0.999938 -0.000668214 0)
(0.999197 -0.00120894 0)
(0.997667 0.00084429 0)
(0.99917 0.00201179 0)
(1.00155 0.00116537 0)
(1.00081 0.00177653 0)
(0.99996 0.00276409 0)
(1.00125 0.00208589 0)
(1.00204 0.00168224 0)
(1.00126 0.00251324 0)
(1.00077 0.00322261 0)
(1.00131 0.00322346 0)
(1.00174 0.00338141 0)
(1.00144 0.00414672 0)
(1.00112 0.00487195 0)
(1.0001 -0.00107626 0)
(0.998511 0.000433394 0)
(1.00007 0.00121076 0)
(1.00178 -0.000506746 0)
(1.00057 -0.000519111 0)
(0.99988 -0.000431725 0)
(0.99929 -0.00107173 0)
(0.997902 0.000753895 0)
(0.99919 0.0020259 0)
(1.00152 0.00122167 0)
(1.00097 0.00161824 0)
(1.00001 0.00271 0)
(1.00113 0.00226804 0)
(1.00209 0.00177492 0)
(1.00148 0.00245007 0)
(1.0009 0.00324494 0)
(1.00135 0.00335055 0)
(1.00191 0.00339801 0)
(1.00175 0.00401022 0)
(1.00137 0.00476964 0)
(1.0001 -0.000978352 0)
(0.998632 0.000345559 0)
(1.00001 0.00117983 0)
(1.00167 -0.000593587 0)
(1.00056 -0.000554822 0)
(0.999828 -0.000210702 0)
(0.99936 -0.00090173 0)
(0.998134 0.000657394 0)
(0.999222 0.00201846 0)
(1.00147 0.00131312 0)
(1.00112 0.00149526 0)
(1.00009 0.00261173 0)
(1.00103 0.00241588 0)
(1.00211 0.00189703 0)
(1.0017 0.00240662 0)
(1.00107 0.00322848 0)
(1.00139 0.00345311 0)
(1.00203 0.00344547 0)
(1.00205 0.00388404 0)
(1.00165 0.00462792 0)
(1.0001 -0.000878663 0)
(0.998751 0.000248653 0)
(0.999941 0.00115404 0)
(1.00155 -0.000637829 0)
(1.00057 -0.000626994 0)
(0.999788 -2.02456e-05 0)
(0.999404 -0.000689431 0)
(0.998358 0.000567089 0)
(0.999271 0.00198199 0)
(1.00141 0.00142514 0)
(1.00124 0.00141923 0)
(1.0002 0.00248573 0)
(1.00095 0.00252047 0)
(1.00211 0.00203015 0)
(1.0019 0.0023884 0)
(1.00125 0.0031862 0)
(1.00145 0.00351752 0)
(1.00212 0.00351072 0)
(1.0023 0.00378953 0)
(1.00194 0.00445396 0)
(1.00009 -0.000778346 0)
(0.998869 0.000145253 0)
(0.999879 0.00112937 0)
(1.00142 -0.0006367 0)
(1.0006 -0.000721762 0)
(0.999768 0.000125212 0)
(0.999427 -0.000445069 0)
(0.998565 0.000501126 0)
(0.999339 0.00190496 0)
(1.00134 0.00153847 0)
(1.00134 0.00139691 0)
(1.00033 0.00235516 0)
(1.00089 0.00257405 0)
(1.00208 0.0021552 0)
(1.00207 0.00238805 0)
(1.00146 0.00312953 0)
(1.00153 0.0035404 0)
(1.00217 0.00356948 0)
(1.0025 0.00373394 0)
(1.00224 0.00426939 0)
(1.00008 -0.000677879 0)
(0.998986 4.05196e-05 0)
(0.999823 0.00109865 0)
(1.00128 -0.000587082 0)
(1.00064 -0.000825843 0)
(0.999774 0.000210991 0)
(0.999433 -0.000187427 0)
(0.998747 0.000471064 0)
(0.999424 0.00179746 0)
(1.00127 0.00163147 0)
(1.00142 0.00142393 0)
(1.00047 0.0022406 0)
(1.00087 0.00258804 0)
(1.00205 0.00226083 0)
(1.00222 0.00239665 0)
(1.00167 0.00306688 0)
(1.00163 0.00353379 0)
(1.00222 0.00360876 0)
(1.00266 0.0037086 0)
(1.00251 0.00410271 0)
(1.00008 -0.000578935 0)
(0.999102 -6.05328e-05 0)
(0.999777 0.00105491 0)
(1.00113 -0.000495472 0)
(1.00068 -0.000922039 0)
(0.999812 0.000226653 0)
(0.999431 8.23634e-05 0)
(0.9989 0.000495846 0)
(0.999521 0.00167772 0)
(1.00121 0.00169478 0)
(1.00147 0.00148086 0)
(1.00061 0.00215224 0)
(1.00087 0.0025773 0)
(1.00201 0.00234512 0)
(1.00234 0.00240871 0)
(1.00188 0.00299756 0)
(1.00175 0.00350223 0)
(1.00226 0.0036261 0)
(1.00277 0.00369342 0)
(1.00275 0.0039679 0)
(1.00007 -0.000484945 0)
(0.999216 -0.000150304 0)
(0.999746 0.000989224 0)
(1.00097 -0.000375537 0)
(1.00072 -0.000983403 0)
(0.999886 0.000180825 0)
(0.999436 0.000325621 0)
(0.999019 0.000583182 0)
(0.999622 0.00156256 0)
(1.00117 0.00171894 0)
(1.0015 0.00154768 0)
(1.00074 0.00209899 0)
(1.00089 0.00255509 0)
(1.00197 0.00241335 0)
(1.00245 0.00242722 0)
(1.00209 0.00292526 0)
(1.00189 0.00344378 0)
(1.00231 0.00362098 0)
(1.00284 0.00367453 0)
(1.00295 0.00386238 0)
(1.00006 -0.000397669 0)
(0.999328 -0.000224237 0)
(0.999731 0.000900122 0)
(1.00081 -0.000237661 0)
(1.00074 -0.000996584 0)
(0.999989 9.17043e-05 0)
(0.999459 0.000514836 0)
(0.99911 0.000712203 0)
(0.999716 0.00147802 0)
(1.00115 0.00169956 0)
(1.00153 0.00160738 0)
(1.00086 0.00207228 0)
(1.00092 0.00253294 0)
(1.00194 0.00246669 0)
(1.00252 0.00245146 0)
(1.00228 0.00285883 0)
(1.00204 0.00336275 0)
(1.00237 0.0035892 0)
(1.0029 0.00364679 0)
(1.0031 0.00377828 0)
(1.00006 -0.000319066 0)
(0.999433 -0.000277741 0)
(0.999735 0.000788918 0)
(1.00066 -9.55077e-05 0)
(1.00075 -0.000951663 0)
(1.00012 -2.77988e-05 0)
(0.999509 0.000636822 0)
(0.999179 0.000867615 0)
(0.999794 0.00143548 0)
(1.00114 0.00166359 0)
(1.00156 0.00164118 0)
(1.00097 0.00205687 0)
(1.00097 0.00251199 0)
(1.00191 0.00250736 0)
(1.00258 0.00247532 0)
(1.00246 0.00280267 0)
(1.00221 0.00327194 0)
(1.00245 0.00352989 0)
(1.00295 0.00360125 0)
(1.00321 0.00370326 0)
(1.00005 -0.000251066 0)
(0.99953 -0.000306939 0)
(0.999756 0.000659196 0)
(1.00051 3.57101e-05 0)
(1.00073 -0.000848576 0)
(1.00025 -0.000152603 0)
(0.999596 0.000668666 0)
(0.999241 0.0010294 0)
(0.999852 0.00144299 0)
(1.00114 0.00163117 0)
(1.00159 0.00165264 0)
(1.00109 0.00204158 0)
(1.00103 0.00249158 0)
(1.00189 0.00253906 0)
(1.00262 0.00249873 0)
(1.00262 0.00275432 0)
(1.00238 0.00318212 0)
(1.00254 0.00345598 0)
(1.003 0.0035338 0)
(1.0033 0.00362281 0)
(1.00005 -0.000193399 0)
(0.999618 -0.000315453 0)
(0.999792 0.000524744 0)
(1.00039 0.000147702 0)
(1.0007 -0.000700958 0)
(1.00039 -0.000253284 0)
(0.999721 0.000632781 0)
(0.999313 0.00116043 0)
(0.99989 0.00150013 0)
(1.00114 0.00160763 0)
(1.00163 0.00164956 0)
(1.0012 0.00201585 0)
(1.0011 0.00246265 0)
(1.00187 0.00255813 0)
(1.00265 0.00252061 0)
(1.00276 0.00271317 0)
(1.00255 0.00309231 0)
(1.00263 0.0033799 0)
(1.00305 0.0034573 0)
(1.00337 0.00352834 0)
(1.00004 -0.000147167 0)
(0.999694 -0.000303001 0)
(0.999841 0.000392848 0)
(1.00029 0.000234478 0)
(1.00065 -0.000527324 0)
(1.00051 -0.000304603 0)
(0.999878 0.000555064 0)
(0.999407 0.00123965 0)
(0.999915 0.00157786 0)
(1.00113 0.00162023 0)
(1.00167 0.00163835 0)
(1.00133 0.00198202 0)
(1.00119 0.00242332 0)
(1.00187 0.00256117 0)
(1.00267 0.00253444 0)
(1.00289 0.00267909 0)
(1.00272 0.00300149 0)
(1.00274 0.00329544 0)
(1.00309 0.00338589 0)
(1.00343 0.00342302 0)
(1.00004 -0.000110884 0)
(0.999759 -0.000271719 0)
(0.999899 0.000269373 0)
(1.00021 0.000289422 0)
(1.00058 -0.000347404 0)
(1.00061 -0.000293934 0)
(1.00006 0.000456959 0)
(0.999532 0.00125584 0)
(0.999941 0.00164767 0)
(1.0011 0.00166587 0)
(1.00171 0.00164013 0)
(1.00145 0.0019408 0)
(1.00129 0.00237366 0)
(1.00188 0.0025488 0)
(1.00268 0.00253537 0)
(1.00299 0.00264584 0)
(1.00288 0.00291764 0)
(1.00285 0.00319767 0)
(1.00313 0.00331919 0)
(1.00346 0.00332586 0)
(1.00004 -8.4425e-05 0)
(0.999811 -0.000226121 0)
(0.999961 0.000166087 0)
(1.00016 0.000311188 0)
(1.00052 -0.00016958 0)
(1.00068 -0.000231106 0)
(1.00024 0.000370803 0)
(0.999686 0.00121152 0)
(0.999981 0.0016965 0)
(1.00107 0.00171542 0)
(1.00172 0.00166459 0)
(1.00156 0.00190483 0)
(1.0014 0.00231051 0)
(1.0019 0.00251913 0)
(1.00269 0.00252374 0)
(1.00307 0.00260352 0)
(1.00303 0.00283837 0)
(1.00298 0.00309138 0)
(1.00317 0.00323976 0)
(1.00348 0.0032456 0)
(1.00004 -6.50236e-05 0)
(0.999852 -0.000172807 0)
(1.00002 8.93132e-05 0)
(1.00014 0.00030614 0)
(1.00045 -1.09397e-05 0)
(1.00073 -0.000134982 0)
(1.00041 0.000315019 0)
(0.999867 0.00113502 0)
(1.00004 0.00170303 0)
(1.00104 0.00176548 0)
(1.00173 0.00169619 0)
(1.00167 0.00188894 0)
(1.00151 0.0022478 0)
(1.00194 0.00246986 0)
(1.00269 0.00250053 0)
(1.00315 0.00255285 0)
(1.00317 0.00275445 0)
(1.00311 0.0029852 0)
(1.00323 0.00313989 0)
(1.00348 0.00316924 0)
(1.00005 -5.06315e-05 0)
(0.999883 -0.000118755 0)
(1.00008 4.21922e-05 0)
(1.00014 0.000286103 0)
(1.0004 0.000124158 0)
(1.00075 -1.08875e-05 0)
(1.00056 0.000300209 0)
(1.00006 0.00105094 0)
(1.00013 0.00166008 0)
(1.00101 0.00179998 0)
(1.00172 0.00172761 0)
(1.00175 0.00187901 0)
(1.00162 0.00219873 0)
(1.00199 0.00241021 0)
(1.0027 0.00246058 0)
(1.0032 0.00249754 0)
(1.00329 0.0026616 0)
(1.00323 0.00287727 0)
(1.0033 0.00303052 0)
(1.00348 0.00308065 0)
(1.00005 -3.82555e-05 0)
(0.999905 -6.96071e-05 0)
(1.00012 2.38278e-05 0)
(1.00016 0.000261347 0)
(1.00037 0.000232006 0)
(1.00075 0.000125124 0)
(1.00069 0.00033004 0)
(1.00025 0.00097587 0)
(1.00024 0.00159558 0)
(1.001 0.00179735 0)
(1.00171 0.00175864 0)
(1.00183 0.00186785 0)
(1.00172 0.00215757 0)
(1.00204 0.00235694 0)
(1.00271 0.00240856 0)
(1.00324 0.0024343 0)
(1.0034 0.00256366 0)
(1.00336 0.00275707 0)
(1.00337 0.00291527 0)
(1.00349 0.00297392 0)
(1.00005 -2.74386e-05 0)
(0.999921 -2.63274e-05 0)
(1.00016 2.72967e-05 0)
(1.00019 0.000243596 0)
(1.00036 0.000307893 0)
(1.00075 0.000250663 0)
(1.00079 0.000388786 0)
(1.00043 0.000923607 0)
(1.00036 0.00152484 0)
(1.00101 0.00176745 0)
(1.0017 0.001769 0)
(1.00189 0.0018591 0)
(1.00182 0.00211294 0)
(1.00208 0.00230905 0)
(1.0027 0.00235859 0)
(1.00327 0.00236473 0)
(1.00349 0.00246416 0)
(1.00348 0.00262754 0)
(1.00345 0.00278812 0)
(1.0035 0.0028576 0)
(1.00006 -1.75975e-05 0)
(0.999934 1.24629e-05 0)
(1.00019 4.61601e-05 0)
(1.00022 0.000237954 0)
(1.00036 0.000363224 0)
(1.00075 0.000359583 0)
(1.00086 0.000457164 0)
(1.00059 0.000899795 0)
(1.00049 0.00145358 0)