/*--------------------------------*- C++ -*----------------------------------*\
| =========                 |                                                 |
| \\      /  F ield         | OpenFOAM: The Open Source CFD Toolbox           |
|  \\    /   O peration     | Version:  v1812                                 |
|   \\  /    A nd           | Web:      www.OpenFOAM.com                      |
|    \\/     M anipulation  |                                                 |
\*---------------------------------------------------------------------------*/
FoamFile
{
    version     2.0;
    format      ascii;
    class       volScalarField;
    location    "3.4";
    object      p;
}
// * * * * * * * * * * * * * * * * * * * * * * * * * * * * * * * * * * * * * //

dimensions      [0 2 -2 0 0 0 0];


internalField   nonuniform List<scalar> 
9600
(
3.28421e-11
-0.00237633
-0.000868818
0.000153492
-0.00391219
-0.00121229
0.00217431
0.000338052
-0.000814008
3.65731e-06
-0.000604772
-0.00174937
-0.00192459
-0.00175025
-0.00270403
-0.00193946
-0.00364639
-0.00218111
-0.00191489
-0.000584513
2.60314e-06
-0.00235601
-0.000875853
0.000126259
-0.00388498
-0.00119729
0.00213028
0.000338851
-0.000817521
-3.17012e-05
-0.000580007
-0.00175972
-0.00190656
-0.00176661
-0.00268293
-0.0019832
-0.003572
-0.00219964
-0.00189059
-0.000695128
6.20294e-06
-0.00233675
-0.000891987
9.39768e-05
-0.00385637
-0.00118416
0.00208828
0.000342463
-0.000828863
-5.28064e-05
-0.000581624
-0.00177662
-0.00188701
-0.00178313
-0.002656
-0.00201956
-0.00348592
-0.00223952
-0.00186916
-0.000849475
9.42568e-06
-0.00231825
-0.000909135
5.84744e-05
-0.00382627
-0.0011703
0.0020489
0.000342707
-0.000845493
-7.29729e-05
-0.00057083
-0.00179919
-0.00186663
-0.00179782
-0.00262382
-0.00205513
-0.00340859
-0.00228709
-0.00186221
-0.0010108
1.22647e-05
-0.0023001
-0.000925169
2.20838e-05
-0.00378934
-0.00115766
0.00200934
0.0003375
-0.000867021
-9.1941e-05
-0.000561799
-0.00182702
-0.00184384
-0.00181065
-0.00258774
-0.00209355
-0.00333743
-0.00233238
-0.0018725
-0.00116768
1.48427e-05
-0.00228252
-0.000939217
-1.16204e-05
-0.00374336
-0.00114999
0.0019689
0.000328207
-0.000891187
-0.00010921
-0.000552965
-0.00185775
-0.00181932
-0.00182233
-0.00254922
-0.0021344
-0.00326988
-0.00237168
-0.00190226
-0.00131293
1.71419e-05
-0.0022655
-0.000949997
-4.09061e-05
-0.00368861
-0.00114797
0.00192871
0.00031689
-0.000915533
-0.000125024
-0.000542563
-0.00188952
-0.0017945
-0.00183325
-0.00251005
-0.0021745
-0.00320654
-0.0024072
-0.00194831
-0.00144367
1.91952e-05
-0.00224868
-0.000957187
-6.59985e-05
-0.00362684
-0.00115017
0.00188949
0.000304962
-0.000938916
-0.000139773
-0.000529471
-0.0019215
-0.00177025
-0.00184362
-0.00247134
-0.00221109
-0.00315226
-0.0024387
-0.00200523
-0.00156573
2.11469e-05
-0.00223164
-0.000961564
-8.8244e-05
-0.00356028
-0.00115514
0.00185098
0.000293199
-0.000961099
-0.000153691
-0.000513485
-0.00195353
-0.00174698
-0.00185323
-0.00243367
-0.00224326
-0.0031096
-0.00246351
-0.00207158
-0.00168798
2.31882e-05
-0.00221412
-0.000964322
-0.000109132
-0.00349078
-0.00116178
0.00181245
0.000281913
-0.000982278
-0.00016718
-0.000495079
-0.00198564
-0.00172496
-0.00186127
-0.00239796
-0.00227035
-0.00307887
-0.00248116
-0.00214856
-0.00181603
2.54882e-05
-0.00219605
-0.000966493
-0.000129755
-0.00341947
-0.00116943
0.00177311
0.000271084
-0.00100292
-0.000180761
-0.000474855
-0.00201789
-0.00170449
-0.00186667
-0.00236558
-0.0022909
-0.00306004
-0.00249399
-0.00223466
-0.00195229
2.8163e-05
-0.00217746
-0.0009687
-0.000150732
-0.00334688
-0.00117769
0.0017324
0.000260565
-0.00102347
-0.000194856
-0.000453337
-0.00205021
-0.00168596
-0.00186843
-0.00233781
-0.00230294
-0.00305355
-0.00250485
-0.00232537
-0.00209887
3.1278e-05
-0.00215846
-0.000971167
-0.000172365
-0.00327321
-0.0011863
0.00168999
0.000250265
-0.00104423
-0.000209747
-0.000430992
-0.00208227
-0.00166999
-0.00186558
-0.00231565
-0.00230682
-0.00305914
-0.00251683
-0.00241548
-0.00225715
3.48641e-05
-0.00213914
-0.000973867
-0.00019475
-0.00319847
-0.00119502
0.00164568
0.000240177
-0.00106539
-0.000225535
-0.000408227
-0.00211357
-0.00165738
-0.00185718
-0.0022999
-0.00230306
-0.00307517
-0.00253389
-0.00250013
-0.0024262
3.89308e-05
-0.00211955
-0.000976659
-0.00021787
-0.00312264
-0.00120359
0.00159933
0.000230317
-0.00108708
-0.000242151
-0.000385366
-0.00214356
-0.00164899
-0.0018425
-0.00229103
-0.00229321
-0.00309883
-0.00256037
-0.00257533
-0.00260286
4.34772e-05
-0.00209972
-0.000979389
-0.000241655
-0.00304578
-0.00121178
0.00155082
0.000220749
-0.00110943
-0.000259473
-0.00036309
-0.00217168
-0.00164559
-0.00182125
-0.00228886
-0.00227946
-0.00312644
-0.00259979
-0.00263891
-0.00278241
4.84976e-05
-0.00207963
-0.000981952
-0.000266001
-0.00296798
-0.00121935
0.0015
0.000211598
-0.0011325
-0.000277414
-0.000341058
-0.00219741
-0.00164786
-0.00179335
-0.00229262
-0.00226476
-0.00315428
-0.00265432
-0.00269106
-0.00295914
5.39667e-05
-0.00205923
-0.000984286
-0.000290779
-0.00288943
-0.00122604
0.00144667
0.000202996
-0.00115633
-0.00029597
-0.000319619
-0.00222035
-0.00165647
-0.00175864
-0.00230099
-0.00225281
-0.00317951
-0.00272475
-0.00273375
-0.00312701
5.98465e-05
-0.00203844
-0.000986385
-0.000315839
-0.00281041
-0.00123157
0.00139065
0.000195063
-0.00118096
-0.000315148
-0.000298942
-0.0022403
-0.00167175
-0.00171771
-0.00231195
-0.00224655
-0.00320051
-0.0028101
-0.00276991
-0.00328011
6.6096e-05
-0.00201711
-0.000988318
-0.000341013
-0.00273122
-0.00123568
0.00133176
0.000187942
-0.00120641
-0.000335101
-0.000278954
-0.00225723
-0.00169394
-0.00167192
-0.00232331
-0.00224788
-0.00321658
-0.00290819
-0.00280303
-0.00341283
7.26481e-05
-0.00199506
-0.000990195
-0.000366115
-0.00265222
-0.00123807
0.00126982
0.000181712
-0.0012326
-0.00035618
-0.000259233
-0.00227122
-0.00172314
-0.00162241
-0.00233362
-0.00225846
-0.00322715
-0.0030166
-0.00283729
-0.00352056
7.93997e-05
-0.00197209
-0.000992147
-0.000390936
-0.0025738
-0.00123849
0.0012047
0.000176386
-0.0012594
-0.000378769
-0.00023936
-0.00228264
-0.00175882
-0.00156999
-0.00234184
-0.00227911
-0.00323176
-0.00313298
-0.00287748
-0.00359998
8.62327e-05
-0.00194796
-0.000994348
-0.000415244
-0.00249632
-0.00123668
0.00113629
0.000171989
-0.00128649
-0.000403669
-0.000218677
-0.00229168
-0.0018007
-0.00151544
-0.00234698
-0.00231033
-0.00323023
-0.00325439
-0.00292829
-0.00364945
9.30097e-05
-0.00192237
-0.000997013
-0.000438808
-0.00242014
-0.00123245
0.00106461
0.000168362
-0.00131325
-0.000431874
-0.000196531
-0.00229806
-0.00184834
-0.00145972
-0.00234836
-0.00235289
-0.00322248
-0.00337658
-0.00299405
-0.00366972
9.95482e-05
-0.00189497
-0.00100036
-0.000461373
-0.00234567
-0.00122563
0.000989877
0.000165044
-0.0013389
-0.000464244
-0.000172595
-0.00230107
-0.00190303
-0.00140455
-0.00234526
-0.00240775
-0.00320876
-0.00349397
-0.00307887
-0.00366481
0.000105631
-0.00186538
-0.00100462
-0.000482708
-0.00227321
-0.0012162
0.000912446
0.000161504
-0.00136261
-0.000501801
-0.000146801
-0.00229964
-0.00196556
-0.00135045
-0.00233589
-0.00247606
-0.00319069
-0.00359918
-0.0031859
-0.00364341
0.000111025
-0.00183318
-0.00101002
-0.000502666
-0.00220294
-0.00120429
0.000832805
0.000157047
-0.00138331
-0.000545291
-0.000119714
-0.00229263
-0.00203634
-0.00129888
-0.00231793
-0.00255863
-0.00317213
-0.00368351
-0.00331521
-0.00361953
0.000115464
-0.00179789
-0.00101679
-0.0005211
-0.00213508
-0.00119009
0.000751725
0.000150591
-0.00139994
-0.000594905
-9.26191e-05
-0.00227842
-0.00211568
-0.00125272
-0.0022887
-0.00265439
-0.00315901
-0.00373912
-0.00346093
-0.00361054
0.000118636
-0.00175907
-0.00102506
-0.000537852
-0.00206971
-0.00117407
0.000670307
0.000141094
-0.0014118
-0.000650548
-6.70175e-05
-0.00225508
-0.00220364
-0.00121546
-0.00224612
-0.00276068
-0.0031586
-0.00376126
-0.00360967
-0.00363323
0.000120202
-0.00171624
-0.00103493
-0.000552913
-0.00200664
-0.00115704
0.000590002
0.000127858
-0.00141873
-0.000711784
-4.4641e-05
-0.00222104
-0.00229918
-0.00119032
-0.00218911
-0.00287333
-0.0031782
-0.00375094
-0.00374419
-0.0036973
0.00011981
-0.00166886
-0.00104645
-0.000566299
-0.00194543
-0.00113998
0.000512379
0.000110384
-0.00142114
-0.000777604
-2.75226e-05
-0.0021756
-0.00240013
-0.00118125
-0.00211592
-0.00298564
-0.00322321
-0.00371643
-0.00384752
-0.00379825
0.000117111
-0.00161649
-0.00105944
-0.000577136
-0.00188543
-0.00112386
0.000438558
8.85954e-05
-0.00141981
-0.000846629
-1.77277e-05
-0.00211878
-0.00250349
-0.00119228
-0.00202815
-0.00308946
-0.00329597
-0.00367036
-0.00390747
-0.00391717
0.000111789
-0.00155878
-0.00107357
-0.000588992
-0.00182589
-0.00109459
0.000369249
6.32981e-05
-0.00141585
-0.000917596
-1.67989e-05
-0.00205086
-0.00260629
-0.00122682
-0.0019292
-0.00317708
-0.00339492
-0.00362534
-0.00392087
-0.00402973
0.000103519
-0.0014953
-0.00108835
-0.000601345
-0.00176572
-0.00108543
0.000304575
3.59009e-05
-0.00141059
-0.000989604
-2.58307e-05
-0.00197297
-0.00270544
-0.00128701
-0.00182345
-0.00324168
-0.00351585
-0.00359185
-0.00389373
-0.0041155
9.19219e-05
-0.00142591
-0.0011028
-0.000615207
-0.00170353
-0.00108097
0.00024331
8.01045e-06
-0.00140479
-0.0010623
-4.58862e-05
-0.00188686
-0.00279757
-0.00137371
-0.00171602
-0.00327684
-0.00365338
-0.00357781
-0.00383563
-0.00416218
7.67209e-05
-0.00135091
-0.00111545
-0.000631759
-0.00163858
-0.00108169
0.000183537
-1.88969e-05
-0.00139862
-0.00113587
-7.81283e-05
-0.00178456
-0.0028787
-0.00148685
-0.00161339
-0.00327641
-0.00380086
-0.00359014
-0.00375532
-0.00416486
5.78293e-05
-0.00127128
-0.00112452
-0.000651404
-0.00157086
-0.00108598
0.000123476
-4.41057e-05
-0.00139212
-0.00121054
-0.000123713
-0.00168781
-0.00294467
-0.00162487
-0.00152378
-0.00323529
-0.00394842
-0.00363615
-0.00366219
-0.00412162
3.52695e-05
-0.00118848
-0.00112796
-0.000673896
-0.00150111
-0.00109161
6.16682e-05
-6.75942e-05
-0.00138499
-0.00128656
-0.000183044
-0.00158892
-0.00299163
-0.00178431
-0.00145594
-0.00315124
-0.00408138
-0.00372167
-0.00357008
-0.00403189
9.2134e-06
-0.00110421
-0.00112363
-0.000698669
-0.00143068
-0.0010976
-3.47607e-06
-8.9873e-05
-0.00137579
-0.00136361
-0.00025673
-0.00149022
-0.00301738
-0.00196021
-0.00141884
-0.00302855
-0.00418323
-0.00384556
-0.00349747
-0.00389966
-2.00879e-05
-0.00101989
-0.00110992
-0.000724947
-0.00136105
-0.00110274
-7.40159e-05
-0.000112345
-0.00136175
-0.00144061
-0.000345216
-0.00139421
-0.00301721
-0.00214544
-0.00142052
-0.00287892
-0.00423968
-0.00399755
-0.00346389
-0.00373878
-5.23403e-05
-0.000937017
-0.00108581
-0.000751622
-0.00129357
-0.00110671
-0.000151308
-0.000136655
-0.00134022
-0.00151562
-0.00044871
-0.00130517
-0.00298654
-0.00233087
-0.00146476
-0.00271675
-0.00424143
-0.00415986
-0.00348314
-0.00357161
-8.6382e-05
-0.000857191
-0.00105124
-0.00077762
-0.00122897
-0.00111196
-0.000236754
-0.000166255
-0.00131038
-0.00158449
-0.000565331
-0.00122791
-0.00292586
-0.00250704
-0.0015509
-0.00255761
-0.00418575
-0.00431212
-0.00355729
-0.00342374
-0.000120888
-0.000781119
-0.00100756
-0.000801726
-0.00116726
-0.00110898
-0.00032995
-0.000207865
-0.0012755
-0.00164224
-0.000690997
-0.00116648
-0.00283873
-0.00266359
-0.00167399
-0.00241653
-0.00407685
-0.00443565
-0.00367769
-0.00331855
-0.000155588
-0.000709782
-0.000955126
-0.000822573
-0.00111044
-0.001081
-0.000427525
-0.000265637
-0.0012381
-0.00168469
-0.000821788
-0.00112515
-0.00273132
-0.00279098
-0.00182475
-0.00230568
-0.00392419
-0.00451449
-0.00382813
-0.003271
-0.000189037
-0.00064394
-0.00089476
-0.000839336
-0.00106414
-0.00106609
-0.000526417
-0.000333927
-0.0011983
-0.00170983
-0.000953352
-0.00110753
-0.00261169
-0.0028845
-0.00199249
-0.00223426
-0.00374287
-0.0045373
-0.00398791
-0.00328503
-0.00021946
-0.000584207
-0.000830605
-0.00085232
-0.00102994
-0.00104334
-0.000612792
-0.000408999
-0.00116201
-0.00171947
-0.00108147
-0.00111314
-0.00248854
-0.00294275
-0.00216619
-0.00220675
-0.00355101
-0.0044996
-0.00413481
-0.00335452
-0.000245435
-0.000531454
-0.000764959
-0.000859777
-0.00100346
-0.00101539
-0.000684741
-0.000488571
-0.00113587
-0.00171669
-0.00120136
-0.00113895
-0.00236832
-0.0029673
-0.00233565
-0.00222138
-0.00336634
-0.00440537
-0.00424809
-0.00346392
-0.000266417
-0.000486019
-0.000699339
-0.000859956
-0.000989752
-0.000989561
-0.000742777
-0.000569689
-0.00112055
-0.00170437
-0.00130985
-0.00118269
-0.00225718
-0.00296098
-0.00249097
-0.00227077
-0.00320212
-0.00426646
-0.00431089
-0.0035903
-0.000281627
-0.000448022
-0.000635723
-0.00085128
-0.000987038
-0.000971673
-0.0007877
-0.000645325
-0.00111453
-0.001688
-0.0014068
-0.00123935
-0.0021579
-0.00292642
-0.00262302
-0.00234551
-0.00306808
-0.0041002
-0.00431645
-0.0037088
-0.000290648
-0.00041665
-0.000576109
-0.000834082
-0.000993687
-0.000964195
-0.00082015
-0.000711382
-0.00111619
-0.00167046
-0.0014917
-0.00130387
-0.00207105
-0.00286811
-0.00272699
-0.0024372
-0.00297066
-0.00392504
-0.0042691
-0.00379819
-0.000293166
-0.000390622
-0.000523544
-0.000809359
-0.00100391
-0.000967852
-0.000844885
-0.000766921
-0.00112124
-0.00165088
-0.00156409
-0.00137458
-0.00199952
-0.00279219
-0.00280079
-0.00253582
-0.00290901
-0.00375512
-0.00418028
-0.00384542
-0.00028946
-0.000368226
-0.0004804
-0.000779205
-0.00101217
-0.000981823
-0.000867928
-0.00081159
-0.00112593
-0.00162974
-0.00162461
-0.00145
-0.00194609
-0.00270446
-0.0028419
-0.00263039
-0.00287731
-0.00359985
-0.00406352
-0.00384906
-0.000280602
-0.000348033
-0.000447394
-0.000745701
-0.00101187
-0.00100359
-0.000894971
-0.000847633
-0.00112842
-0.00160747
-0.0016731
-0.00152587
-0.0019106
-0.00261211
-0.00285095
-0.00271218
-0.00286895
-0.00346497
-0.00393161
-0.00381434
-0.000267896
-0.000330226
-0.000423831
-0.000710522
-0.00100167
-0.00102885
-0.000929134
-0.000880556
-0.00112809
-0.00158151
-0.00170886
-0.00159869
-0.0018916
-0.00252212
-0.00283251
-0.00277446
-0.00287621
-0.00335244
-0.0037942
-0.0037484
-0.000252497
-0.000313355
-0.000407995
-0.000677128
-0.000982501
-0.00105168
-0.000969387
-0.000915492
-0.00112595
-0.00154998
-0.00173047
-0.00166604
-0.00188771
-0.00243944
-0.0027931
-0.00281251
-0.00288932
-0.00326093
-0.00365816
-0.00365992
-0.000235678
-0.000296788
-0.000397607
-0.000648444
-0.000956174
-0.00106773
-0.00101372
-0.000955203
-0.00112464
-0.00151411
-0.00173574
-0.00172349
-0.00189658
-0.00236781
-0.00273912
-0.00282577
-0.00289908
-0.00318683
-0.0035286
-0.00355777
-0.000218405
-0.000279779
-0.000390849
-0.000626399
-0.000926171
-0.00107492
-0.00105762
-0.000999621
-0.0011277
-0.00147637
-0.00172524
-0.00176581
-0.00191194
-0.00230962
-0.00267704
-0.0028174
-0.00290049
-0.00312534
-0.00340822
-0.00344772
-0.000201327
-0.000262398
-0.000385828
-0.00061129
-0.000897224
-0.00107343
-0.00109544
-0.00104704
-0.00113777
-0.00143915
-0.00170183
-0.00179045
-0.00192648
-0.00226367
-0.00261306
-0.00279198
-0.00289184
-0.00307151
-0.00329711
-0.00333238
-0.000185048
-0.000245281
-0.00038073
-0.000602483
-0.000872943
-0.00106453
-0.00112342
-0.00109441
-0.00115572
-0.00140604
-0.00166788
-0.0017973
-0.0019357
-0.00222577
-0.00255066
-0.00275293
-0.00287137
-0.00302108
-0.00319493
-0.00321499
-0.000170021
-0.000229049
-0.000375025
-0.000598401
-0.000854744
-0.00105131
-0.00114078
-0.00113684
-0.00117936
-0.0013811
-0.00162698
-0.00178614
-0.00193596
-0.00219163
-0.00249052
-0.00270408
-0.00283831
-0.00297059
-0.00310112
-0.00309881
-0.000156461
-0.000214482
-0.000368793
-0.000596891
-0.000842754
-0.00103775
-0.001149
-0.00117011
-0.00120493
-0.00136527
-0.00158532
-0.00175965
-0.00192276
-0.00215707
-0.00243202
-0.00264962
-0.0027948
-0.00291697
-0.00301358
-0.00298515
-0.000144508
-0.000202369
-0.00036274
-0.00059606
-0.000836167
-0.00102668
-0.00114992
-0.00119276
-0.00122824
-0.00135552
-0.00154724
-0.0017236
-0.001895
-0.00211699
-0.00237244
-0.00259012
-0.00274318
-0.00285857
-0.00293007
-0.00287562
-0.000134405
-0.000193081
-0.000357771
-0.000595152
-0.000833654
-0.00101953
-0.00114654
-0.00120545
-0.00124577
-0.00134835
-0.00151199
-0.00168285
-0.00185679
-0.00206869
-0.0023089
-0.00252396
-0.00268337
-0.00279465
-0.00284808
-0.00277143
-0.000126458
-0.000186699
-0.000354829
-0.000594493
-0.000833464
-0.00101611
-0.00114202
-0.00120999
-0.00125543
-0.00134142
-0.00147841
-0.00163764
-0.00181004
-0.0020124
-0.00223985
-0.00245085
-0.00261469
-0.00272453
-0.00276481
-0.00267105
-0.000121089
-0.000183388
-0.000354636
-0.000594854
-0.000834462
-0.00101556
-0.00113825
-0.00120863
-0.00125642
-0.00133148
-0.00144641
-0.00158887
-0.00175417
-0.0019476
-0.00216345
-0.00236974
-0.00253634
-0.00264698
-0.00267862
-0.00257189
-0.000118918
-0.000183261
-0.000357585
-0.000597256
-0.000836352
-0.00101693
-0.00113593
-0.00120432
-0.0012505
-0.00131499
-0.00141257
-0.0015383
-0.00169046
-0.00187317
-0.0020779
-0.00227817
-0.00244626
-0.00255913
-0.00258708
-0.00247183
-0.000120654
-0.000186628
-0.000363748
-0.000602696
-0.000839943
-0.00101976
-0.00113476
-0.00119854
-0.00124031
-0.00129312
-0.00137354
-0.00148349
-0.00162012
-0.00178849
-0.00198169
-0.0021747
-0.00234282
-0.00245858
-0.00248653
-0.00236782
-0.000126802
-0.000193968
-0.000373408
-0.000611518
-0.000846269
-0.0010245
-0.0011352
-0.00119189
-0.00122619
-0.00126753
-0.00133012
-0.00142166
-0.00154197
-0.00169321
-0.00187195
-0.00205662
-0.00222348
-0.00234309
-0.00237437
-0.00225691
-0.000137837
-0.000206036
-0.000387078
-0.000624085
-0.000856169
-0.0010317
-0.00113768
-0.00118632
-0.00120943
-0.00123741
-0.00128263
-0.00135274
-0.00145375
-0.00158635
-0.00174592
-0.00191878
-0.0020824
-0.00220642
-0.00224508
-0.00213431
-0.000154518
-0.000223383
-0.000405145
-0.000641116
-0.000870669
-0.00104283
-0.00114272
-0.00118259
-0.0011928
-0.00120411
-0.00123016
-0.00127722
-0.00135396
-0.00146375
-0.00160018
-0.00175511
-0.00191129
-0.00203771
-0.00208689
-0.00198959
-0.00017754
-0.000245522
-0.000428333
-0.000663401
-0.000890247
-0.00105884
-0.00115291
-0.00118291
-0.00117828
-0.00117064
-0.00117272
-0.00119316
-0.00124189
-0.00132148
-0.00142959
-0.00155987
-0.0017
-0.00182231
-0.00187967
-0.00180153
-0.000208593
-0.000276212
-0.000456664
-0.000690879
-0.000915872
-0.00108016
-0.00116986
-0.00119137
-0.0011705
-0.00114073
-0.00111321
-0.0010991
-0.00111457
-0.00115619
-0.00122776
-0.00132668
-0.00144145
-0.00154876
-0.00160368
-0.001541
-0.000247871
-0.000314957
-0.0004921
-0.000724746
-0.000947661
-0.00110843
-0.00119526
-0.00121283
-0.00117977
-0.00112462
-0.00105913
-0.000995872
-0.000959059
-0.000951291
-0.000981328
-0.00105215
-0.00114556
-0.00123243
-0.0012701
-0.00119429
-0.000292454
-0.000357767
-0.000538422
-0.000768664
-0.000985546
-0.00114181
-0.00122886
-0.00124993
-0.00121905
-0.0011564
-0.00104899
-0.000896742
-0.000735971
-0.000592521
-0.000500775
-0.000498516
-0.00059979
-0.000777253
-0.000961359
-0.00105972
-0.000348576
-0.00041372
-0.000594909
-0.000819982
-0.00102722
-0.00117531
-0.00126163
-0.0012938
-0.00128253
-0.00126084
-0.00122412
-0.00111959
-0.000877158
-0.000512345
-0.000145569
0.000154535
0.000413987
0.000669913
0.000923568
0.00111485
-0.000420433
-0.000487857
-0.000662816
-0.000878873
-0.00107348
-0.0012069
-0.00128552
-0.0013244
-0.00131346
-0.00119975
-0.000931826
-0.000587661
-0.000265126
-1.92415e-06
0.00020005
0.000362069
0.000489402
0.000592363
0.000670318
0.000681326
-0.000509026
-0.000562075
-0.000735823
-0.000952023
-0.00115465
-0.00129827
-0.00134365
-0.00124331
-0.00104117
-0.000832345
-0.000643879
-0.000483144
-0.000344928
-0.000179423
2.19523e-05
0.000275474
0.000590792
0.000939143
0.00126855
0.00149191
-0.00064724
-0.000676108
-0.000774738
-0.000902429
-0.00101682
-0.00107928
-0.00108043
-0.00102358
-0.000909052
-0.000767809
-0.000605493
-0.000405057
-0.00021127
-4.15327e-05
7.26474e-05
7.67072e-05
-3.73586e-05
-0.000258232
-0.000529337
-0.000764872
-0.000817177
-0.000855396
-0.000866404
-0.000888896
-0.000940833
-0.000996144
-0.00102652
-0.00101821
-0.000943521
-0.00080775
-0.000654335
-0.000457356
-0.000231702
-1.09237e-05
0.000245556
0.000542167
0.000870086
0.00119472
0.0014602
0.0015902
-0.00091952
-0.000948145
-0.000930591
-0.000912461
-0.000927861
-0.000956576
-0.000967426
-0.000941013
-0.000860046
-0.00071195
-0.000540934
-0.000347557
-0.000120078
9.27253e-05
0.00029165
0.000478541
0.000639575
0.000764524
0.000825634
0.000778695
0.000779667
-0.00246635
-0.00817622
-0.0122644
-0.0125754
-0.0108753
-0.00890966
-0.00722369
-0.00590213
-0.00490708
-0.00419623
-0.00374794
-0.00347766
-0.00315723
-0.0025989
-0.00192911
-0.00139358
-0.00102316
-0.00072657
-0.000426167
-3.24543e-05
0.000453911
0.000929423
0.00136857
0.00184355
0.00237488
0.00290103
0.00336452
0.0037714
0.0041841
0.00463591
0.0050798
0.00546527
0.00582218
0.00621227
0.00663949
0.00707052
0.00750441
0.00796885
0.00846057
0.00894371
0.00941478
0.00990803
0.0104301
0.0109351
0.0114164
0.0119222
0.0124582
0.0129854
0.0135087
0.0140707
0.0146605
0.0152347
0.0158213
0.0164335
0.0170346
0.0176375
0.018269
0.0189101
0.0195694
0.0202538
0.0209433
0.0216332
0.0223373
0.0230512
0.0237834
0.0245441
0.0253256
0.0261152
0.0269132
0.0277214
0.0285452
0.0293904
0.0302562
0.0311419
0.0320414
0.0329549
0.033881
0.0348267
0.0357914
0.0367761
0.0377788
0.0388003
0.0398408
0.0408987
0.0419765
0.0430726
0.0441928
0.045331
0.0464931
0.0476703
0.0488762
0.0500963
0.051345
0.0526073
0.0538957
0.0551968
0.0565053
0.0577181
0.0589201
0.000463607
-0.00255234
-0.00806905
-0.0121261
-0.0125041
-0.0108433
-0.00888958
-0.00720848
-0.00588976
-0.00489653
-0.00418685
-0.00373976
-0.00347112
-0.00315238
-0.00259502
-0.00192544
-0.00139006
-0.00101993
-0.00072368
-0.000423702
-3.0318e-05
0.000456001
0.000931495
0.00137047
0.00184527
0.00237651
0.00290263
0.00336606
0.0037728
0.00418535
0.00463711
0.005081
0.00546644
0.00582324
0.00621324
0.00664043
0.00707143
0.00750526
0.00796963
0.00846132
0.00894444
0.00941546
0.00990865
0.0104307
0.0109357
0.0114169
0.0119227
0.0124587
0.0129859
0.0135091
0.0140711
0.0146609
0.0152351
0.0158216
0.0164339
0.0170349
0.0176378
0.0182693
0.0189104
0.0195697
0.0202541
0.0209436
0.0216335
0.0223375
0.0230514
0.0237836
0.0245443
0.0253258
0.0261154
0.0269134
0.0277216
0.0285454
0.0293906
0.0302564
0.0311421
0.0320415
0.0329551
0.0338812
0.0348268
0.0357916
0.0367762
0.0377789
0.0388005
0.0398409
0.0408989
0.0419766
0.0430727
0.0441929
0.0453311
0.0464932
0.0476704
0.0488763
0.0500964
0.0513451
0.0526073
0.0538958
0.0551969
0.0565054
0.0577182
0.0589202
5.14433e-05
-0.00269212
-0.00787909
-0.0118666
-0.0123743
-0.0107953
-0.0088658
-0.00719185
-0.00587652
-0.00488578
-0.00417784
-0.00373151
-0.00346341
-0.00314577
-0.0025897
-0.00192115
-0.00138657
-0.00101692
-0.000720927
-0.000421331
-2.83316e-05
0.000457836
0.000933266
0.00137212
0.00184684
0.00237807
0.00290415
0.00336748
0.00377406
0.00418648
0.0046382
0.00508211
0.00546747
0.00582415
0.00621408
0.00664124
0.00707221
0.00750599
0.00797032
0.008462
0.00894509
0.00941605
0.0099092
0.0104312
0.0109362
0.0114174
0.0119231
0.0124592
0.0129863
0.0135095
0.0140714
0.0146613
0.0152354
0.0158219
0.0164342
0.0170352
0.0176381
0.0182695
0.0189106
0.0195699
0.0202544
0.0209438
0.0216337
0.0223377
0.0230516
0.0237838
0.0245445
0.025326
0.0261156
0.0269136
0.0277218
0.0285456
0.0293907
0.0302565
0.0311422
0.0320417
0.0329552
0.0338813
0.0348269
0.0357917
0.0367763
0.037779
0.0388006
0.039841
0.040899
0.0419767
0.0430728
0.044193
0.0453312
0.0464933
0.0476705
0.0488764
0.0500965
0.0513452
0.0526074
0.0538959
0.055197
0.0565054
0.0577183
0.0589203
-0.000350399
-0.00282216
-0.00762458
-0.0115172
-0.0121814
-0.0107201
-0.00882909
-0.00716762
-0.00585834
-0.00487231
-0.00416814
-0.00372284
-0.00345345
-0.00313507
-0.00258052
-0.00191468
-0.00138212
-0.00101307
-0.000716988
-0.000417724
-2.55962e-05
0.000459799
0.000934942
0.00137387
0.00184871
0.00237988
0.0029058
0.00336901
0.00377551
0.00418782
0.00463945
0.00508331
0.00546858
0.00582512
0.00621496
0.00664207
0.00707302
0.00750676
0.00797107
0.00846273
0.00894578
0.00941668
0.0099098
0.0104318
0.0109368
0.0114179
0.0119236
0.0124596
0.0129867
0.0135099
0.0140718
0.0146616
0.0152358
0.0158223
0.0164345
0.0170356
0.0176384
0.0182698
0.0189109
0.0195702
0.0202546
0.020944
0.0216339
0.022338
0.0230518
0.023784
0.0245447
0.0253262
0.0261158
0.0269138
0.027722
0.0285457
0.0293909
0.0302567
0.0311424
0.0320418
0.0329553
0.0338814
0.0348271
0.0357918
0.0367765
0.0377791
0.0388007
0.0398411
0.0408991
0.0419768
0.0430729
0.0441931
0.0453313
0.0464934
0.0476705
0.0488764
0.0500965
0.0513453
0.0526075
0.0538959
0.055197
0.0565056
0.0577185
0.0589206
-0.000726433
-0.00293582
-0.00734785
-0.0111367
-0.0119598
-0.0106304
-0.00878471
-0.00713731
-0.00583497
-0.00485529
-0.00415713
-0.00371354
-0.00344074
-0.00311923
-0.00256647
-0.00190559
-0.00137664
-0.00100801
-0.00071078
-0.000411338
-2.08529e-05
0.000462452
0.00093668
0.00137592
0.00185115
0.00238208
0.00290751
0.0033706
0.00377726
0.00418959
0.00464105
0.00508473
0.00546991
0.00582635
0.00621602
0.006643
0.00707391
0.00750767
0.00797197
0.00846357
0.00894657
0.00941745
0.00991053
0.0104326
0.0109375
0.0114185
0.0119242
0.0124602
0.0129873
0.0135103
0.0140722
0.0146621
0.0152362
0.0158226
0.0164349
0.0170359
0.0176387
0.0182701
0.0189112
0.0195704
0.0202549
0.0209443
0.0216342
0.0223382
0.0230521
0.0237842
0.0245449
0.0253264
0.026116
0.026914
0.0277221
0.0285459
0.029391
0.0302568
0.0311425
0.032042
0.0329555
0.0338816
0.0348272
0.035792
0.0367766
0.0377792
0.0388008
0.0398412
0.0408992
0.0419769
0.043073
0.0441932
0.0453314
0.0464935
0.0476706
0.0488765
0.0500966
0.0513453
0.0526076
0.053896
0.0551971
0.0565057
0.0577187
0.0589209
-0.00107314
-0.00305445
-0.00708148
-0.0107495
-0.0117232
-0.0105338
-0.00873787
-0.00710394
-0.00580786
-0.0048353
-0.00414473
-0.00370346
-0.00342578
-0.00309922
-0.00254844
-0.00189456
-0.00137069
-0.00100213
-0.00070219
-0.0004014
-1.30356e-05
0.000466605
0.000938915
0.00137853
0.00185439
0.00238477
0.00290918
0.00337204
0.00377918
0.00419179
0.004643
0.00508643
0.00547164
0.00582807
0.00621743
0.00664407
0.00707492
0.00750879
0.00797306
0.00846452
0.00894747
0.0094184
0.00991148
0.0104334
0.0109382
0.0114192
0.0119248
0.0124608
0.0129878
0.0135109
0.0140728
0.0146626
0.0152366
0.0158231
0.0164354
0.0170363
0.0176391
0.0182705
0.0189115
0.0195708
0.0202552
0.0209446
0.0216345
0.0223385
0.0230523
0.0237844
0.0245451
0.0253267
0.0261163
0.0269142
0.0277224
0.0285461
0.0293912
0.030257
0.0311427
0.0320421
0.0329557
0.0338817
0.0348273
0.0357921
0.0367767
0.0377794
0.0388009
0.0398413
0.0408993
0.041977
0.0430731
0.0441933
0.0453315
0.0464936
0.0476707
0.0488766
0.0500967
0.0513454
0.0526077
0.0538961
0.0551972
0.0565058
0.057719
0.0589214
-0.0013952
-0.00319301
-0.00683678
-0.0103578
-0.01147
-0.0104296
-0.00868928
-0.00706848
-0.00577763
-0.00481252
-0.00413066
-0.00369243
-0.00340935
-0.00307675
-0.00252811
-0.00188264
-0.00136498
-0.000996164
-0.000691935
-0.000388291
-1.9854e-06
0.000472852
0.000942292
0.00138212
0.00185864
0.00238804
0.00291081
0.00337322
0.00378112
0.0041942
0.00464507
0.00508824
0.0054738
0.0058305
0.00621943
0.00664544
0.00707616
0.00751021
0.00797439
0.00846555
0.00894845
0.00941956
0.00991266
0.0104344
0.0109392
0.0114202
0.0119257
0.0124616
0.0129885
0.0135115
0.0140734
0.0146632
0.0152372
0.0158236
0.0164359
0.0170368
0.0176395
0.0182709
0.0189119
0.0195711
0.0202556
0.020945
0.0216348
0.0223388
0.0230526
0.0237847
0.0245454
0.0253269
0.0261165
0.0269144
0.0277226
0.0285463
0.0293914
0.0302572
0.0311429
0.0320423
0.0329558
0.0338819
0.0348275
0.0357923
0.0367769
0.0377795
0.0388011
0.0398415
0.0408994
0.0419771
0.0430733
0.0441934
0.0453316
0.0464937
0.0476708
0.0488767
0.0500968
0.0513455
0.0526078
0.0538962
0.0551973
0.056506
0.0577195
0.0589221
-0.00169738
-0.00334985
-0.00661049
-0.00995713
-0.0111961
-0.0103156
-0.00863902
-0.00703181
-0.00574481
-0.00478693
-0.00411463
-0.00368034
-0.00339201
-0.00305298
-0.00250648
-0.00187018
-0.00135954
-0.000990483
-0.000680989
-0.000373229
1.1514e-05
0.000481146
0.000947196
0.00138702
0.00186396
0.00239189
0.00291249
0.00337428
0.00378307
0.00419663
0.00464692
0.00508981
0.00547617
0.00583364
0.00622219
0.0066473
0.00707778
0.00751209
0.0079761
0.0084667
0.00894948
0.00942089
0.00991407
0.0104356
0.0109403
0.0114214
0.0119269
0.0124625
0.0129893
0.0135124
0.0140741
0.0146639
0.0152379
0.0158243
0.0164366
0.0170374
0.0176401
0.0182714
0.0189124
0.0195716
0.020256
0.0209454
0.0216352
0.0223391
0.0230529
0.023785
0.0245457
0.0253272
0.0261168
0.0269147
0.0277228
0.0285465
0.0293916
0.0302574
0.0311431
0.0320425
0.032956
0.0338821
0.0348277
0.0357924
0.0367771
0.0377797
0.0388012
0.0398416
0.0408996
0.0419773
0.0430734
0.0441936
0.0453317
0.0464938
0.0476709
0.0488768
0.0500969
0.0513456
0.0526079
0.0538963
0.0551975
0.0565063
0.05772
0.058923
-0.00197709
-0.00351407
-0.00639975
-0.00954802
-0.0109007
-0.0101905
-0.00858744
-0.00699488
-0.0057098
-0.00475835
-0.00409635
-0.00366714
-0.00337404
-0.00302835
-0.00248382
-0.00185701
-0.00135396
-0.00098492
-0.000669848
-0.000357275
2.64462e-05
0.000490986
0.000953561
0.00139323
0.00187028
0.00239624
0.00291426
0.00337536
0.00378515
0.00419909
0.00464841
0.00509082
0.00547838
0.00583724
0.00622567
0.00664977
0.00707993
0.00751454
0.00797827
0.00846808
0.00895059
0.00942237
0.00991563
0.0104368
0.0109415
0.0114229
0.0119284
0.0124636
0.0129903
0.0135134
0.0140751
0.0146647
0.0152387
0.0158252
0.0164374
0.0170381
0.0176407
0.0182721
0.018913
0.0195721
0.0202566
0.020946
0.0216357
0.0223396
0.0230533
0.0237854
0.0245461
0.0253276
0.0261172
0.0269151
0.0277231
0.0285468
0.0293919
0.0302577
0.0311434
0.0320428
0.0329563
0.0338823
0.0348279
0.0357927
0.0367773
0.0377799
0.0388014
0.0398418
0.0408998
0.0419774
0.0430736
0.0441937
0.0453319
0.046494
0.0476711
0.048877
0.050097
0.0513458
0.052608
0.0538964
0.0551976
0.0565065
0.0577206
0.0589241
-0.00222867
-0.00367767
-0.00620827
-0.00913554
-0.0105833
-0.0100523
-0.00853398
-0.00695815
-0.00567285
-0.00472654
-0.00407551
-0.00365269
-0.00335544
-0.00300293
-0.00246009
-0.00184295
-0.00134791
-0.0009792