/*--------------------------------*- C++ -*----------------------------------*\
| =========                 |                                                 |
| \\      /  F ield         | OpenFOAM: The Open Source CFD Toolbox           |
|  \\    /   O peration     | Version:  v1812                                 |
|   \\  /    A nd           | Web:      www.OpenFOAM.com                      |
|    \\/     M anipulation  |                                                 |
\*---------------------------------------------------------------------------*/
FoamFile
{
    version     2.0;
    format      ascii;
    class       surfaceScalarField;
    location    "3.4";
    object      phi;
}
// * * * * * * * * * * * * * * * * * * * * * * * * * * * * * * * * * * * * * //

dimensions      [0 3 -1 0 0 0 0];
oriented        oriented;


internalField   nonuniform List<scalar> 
19000
(
1.18891e-06
2.03083e-07
1.2093e-06
-2.33289e-08
1.15782e-06
8.36083e-07
1.0657e-06
-6.58239e-07
1.18242e-06
-3.94303e-07
1.19572e-06
1.56493e-07
1.13472e-06
1.02952e-07
1.15596e-06
6.97754e-07
1.13241e-06
3.74609e-07
1.10817e-06
4.11168e-09
1.14285e-06
3.64716e-08
1.12296e-06
-4.76172e-07
1.15306e-06
1.24444e-07
1.12312e-06
-1.45391e-07
1.14705e-06
-6.89755e-08
1.13773e-06
1.62687e-08
1.14341e-06
9.88264e-09
1.14404e-06
1.87828e-07
1.13867e-06
1.98719e-07
2.69536e-07
1.11899e-06
1.24277e-06
1.84573e-07
1.26581e-06
-4.63695e-08
1.21079e-06
8.91099e-07
1.11668e-06
-5.6412e-07
1.23674e-06
-5.1437e-07
1.25331e-06
1.39924e-07
1.1887e-06
1.67563e-07
1.21706e-06
6.69398e-07
1.18888e-06
4.02785e-07
1.16801e-06
2.49797e-08
1.19622e-06
8.26941e-09
1.17923e-06
-4.5919e-07
1.20198e-06
1.01703e-07
1.18349e-06
-1.26902e-07
1.19562e-06
-8.11078e-08
1.20534e-06
6.54812e-09
1.18841e-06
2.68068e-08
1.2157e-06
1.60539e-07
1.17815e-06
2.36276e-07
2.4636e-07
1.20132e-06
1.29725e-06
1.70111e-07
1.32243e-06
-7.15496e-08
1.26915e-06
9.44379e-07
1.17768e-06
-4.72655e-07
1.2886e-06
-6.25287e-07
1.31785e-06
1.10672e-07
1.24723e-06
2.38178e-07
1.2764e-06
6.40237e-07
1.24855e-06
4.30633e-07
1.23426e-06
3.92623e-08
1.25263e-06
-1.00971e-08
1.24376e-06
-4.50316e-07
1.25657e-06
8.88928e-08
1.25338e-06
-1.23718e-07
1.251e-06
-7.87289e-08
1.27027e-06
-1.27148e-08
1.24756e-06
4.95116e-08
1.26684e-06
1.41262e-07
1.24689e-06
2.56224e-07
2.55301e-07
1.23795e-06
1.35268e-06
1.61538e-07
1.37959e-06
-9.84619e-08
1.33382e-06
9.90147e-07
1.25121e-06
-3.9004e-07
1.34104e-06
-7.1512e-07
1.38411e-06
6.76024e-08
1.31068e-06
3.11607e-07
1.33236e-06
6.18561e-07
1.31163e-06
4.51355e-07
1.30323e-06
4.76626e-08
1.31308e-06
-1.99455e-08
1.31131e-06
-4.48541e-07
1.31916e-06
8.1036e-08
1.32408e-06
-1.28638e-07
1.31602e-06
-7.06653e-08
1.33106e-06
-2.77557e-08
1.31726e-06
6.33179e-08
1.3211e-06
1.37418e-07
1.31611e-06
2.61214e-07
2.71813e-07
1.2996e-06
1.41022e-06
1.59667e-07
1.4376e-06
-1.25836e-07
1.40473e-06
1.02301e-06
1.33535e-06
-3.20658e-07
1.39544e-06
-7.75206e-07
1.44768e-06
1.53579e-08
1.3805e-06
3.78786e-07
1.38915e-06
6.09908e-07
1.37947e-06
4.61043e-07
1.375e-06
5.21328e-08
1.3793e-06
-2.42528e-08
1.3804e-06
-4.49638e-07
1.38781e-06
7.36222e-08
1.39477e-06
-1.35591e-07
1.38695e-06
-6.2845e-08
1.39416e-06
-3.49735e-08
1.38771e-06
6.97689e-08
1.38436e-06
1.4077e-07
1.38269e-06
2.62884e-07
2.85941e-07
1.36856e-06
1.47144e-06
1.63907e-07
1.49735e-06
-1.51754e-07
1.48068e-06
1.03969e-06
1.42566e-06
-2.65641e-07
1.4537e-06
-8.03249e-07
1.50766e-06
-3.86008e-08
1.45645e-06
4.29994e-07
1.45309e-06
6.13269e-07
1.45284e-06
4.613e-07
1.4507e-06
5.42718e-08
1.45183e-06
-2.5382e-08
1.45206e-06
-4.49868e-07
1.45989e-06
6.57886e-08
1.46701e-06
-1.4271e-07
1.46063e-06
-5.64607e-08
1.46158e-06
-3.59244e-08
1.45689e-06
7.44582e-08
1.45062e-06
1.47034e-07
1.44919e-06
2.64321e-07
2.98481e-07
1.43665e-06
1.53778e-06
1.72346e-07
1.56028e-06
-1.7426e-07
1.55979e-06
1.04018e-06
1.51775e-06
-2.23601e-07
1.51786e-06
-8.03356e-07
1.56695e-06
-8.76914e-08
1.53625e-06
4.60694e-07
1.5268e-06
6.22718e-07
1.53161e-06
4.5649e-07
1.53052e-06
5.53619e-08
1.52966e-06
-2.45281e-08
1.52707e-06
-4.47272e-07
1.53436e-06
5.84989e-08
1.54124e-06
-1.49589e-07
1.53619e-06
-5.14141e-08
1.53299e-06
-3.27207e-08
1.52734e-06
8.01022e-08
1.51815e-06
1.56225e-07
1.51658e-06
2.65894e-07
3.10474e-07
1.50459e-06
1.60999e-06
1.82486e-07
1.62777e-06
-1.92039e-07
1.64031e-06
1.02764e-06
1.60897e-06
-1.92262e-07
1.58908e-06
-7.83464e-07
1.62948e-06
-1.28091e-07
1.6173e-06
4.72871e-07
1.60824e-06
6.31781e-07
1.61477e-06
4.49959e-07
1.61371e-06
5.64208e-08
1.61125e-06
-2.20681e-08
1.6054e-06
-4.41417e-07
1.61129e-06
5.26085e-08
1.61721e-06
-1.55512e-07
1.61347e-06
-4.76786e-08
1.60771e-06
-2.6955e-08
1.60113e-06
8.66785e-08
1.58879e-06
1.68568e-07
1.58682e-06
2.67866e-07
3.21864e-07
1.57543e-06
1.68789e-06
1.92166e-07
1.70061e-06
-2.04758e-07
1.7214e-06
1.00686e-06
1.69867e-06
-1.69539e-07
1.6673e-06
-7.5209e-07
1.69792e-06
-1.58709e-07
1.69859e-06
4.72196e-07
1.69377e-06
6.366e-07
1.7008e-06
4.4293e-07
1.69938e-06
5.78462e-08
1.69547e-06
-1.81637e-08
1.68675e-06
-4.32697e-07
1.69103e-06
4.83272e-08
1.69502e-06
-1.59498e-07
1.69253e-06
-4.51891e-08
1.68521e-06
-1.96303e-08
1.67888e-06
9.30074e-08
1.66435e-06
1.83091e-07
1.66215e-06
2.70074e-07
3.32019e-07
1.65199e-06
1.77078e-06
2.00109e-07
1.77894e-06
-2.12919e-07
1.80338e-06
9.82422e-07
1.78761e-06
-1.53777e-07
1.75162e-06
-7.16095e-07
1.77313e-06
-1.8022e-07
1.78079e-06
4.64535e-07
1.78106e-06
6.36328e-07
1.78855e-06
4.35441e-07
1.78698e-06
5.94202e-08
1.78199e-06
-1.31772e-08
1.77109e-06
-4.21802e-07
1.77405e-06
4.53742e-08
1.77532e-06
-1.6077e-07
1.77388e-06
-4.37498e-08
1.76546e-06
-1.12152e-08
1.76057e-06
9.79047e-08
1.74551e-06
1.98143e-07
1.74368e-06
2.71911e-07
3.39983e-07
1.73571e-06
1.85795e-06
2.05906e-07
1.86246e-06
-2.17427e-07
1.88734e-06
9.57537e-07
1.87715e-06
-1.43579e-07
1.84093e-06
-6.79881e-07
1.85479e-06
-1.94076e-07
1.86526e-06
4.54061e-07
1.86974e-06
6.31848e-07
1.87783e-06
4.27352e-07
1.87651e-06
6.07411e-08
1.871e-06
-7.6661e-09
1.85863e-06
-4.09428e-07
1.8608e-06
4.32044e-08
1.85897e-06
-1.58943e-07
1.85836e-06
-4.31375e-08
1.84898e-06
-1.83882e-09
1.84617e-06
1.00719e-07
1.83215e-06
2.12161e-07
1.83121e-06
2.72846e-07
3.44771e-07
1.82643e-06
1.94905e-06
2.0969e-07
1.95084e-06
-2.1921e-07
1.97459e-06
9.33789e-07
1.96864e-06
-1.37635e-07
1.9344e-06
-6.45636e-07
1.9422e-06
-2.01878e-07
1.95324e-06
4.43022e-07
1.96062e-06
6.24464e-07
1.96931e-06
4.18665e-07
1.96845e-06
6.16003e-08
1.96294e-06
-2.15536e-09
1.94962e-06
-3.96111e-07
1.95163e-06
4.11964e-08
1.9467e-06
-1.54011e-07
1.94676e-06
-4.32027e-08
1.93646e-06
8.467e-09
1.93575e-06
1.01422e-07
1.92388e-06
2.24037e-07
1.92387e-06
2.72855e-07
3.45689e-07
1.92295e-06
2.04406e-06
2.11824e-07
2.04388e-06
-2.19038e-07
2.06614e-06
9.1153e-07
2.06317e-06
-1.34664e-07
2.03153e-06
-6.13998e-07
2.03476e-06
-2.051e-07
2.04551e-06
4.32264e-07
2.05473e-06
6.15244e-07
2.06395e-06
4.09445e-07
2.06348e-06
6.20743e-08
2.0583e-06
3.02055e-09
2.04433e-06
-3.82134e-07
2.04671e-06
3.88181e-08
2.03894e-06
-1.46241e-07
2.03962e-06
-4.38834e-08
2.02849e-06
1.95892e-08
2.02944e-06
1.00479e-07
2.02032e-06
2.33154e-07
2.02079e-06
2.72389e-07
3.4259e-07
2.02388e-06
2.14313e-06
2.127e-07
2.14158e-06
-2.17488e-07
2.16269e-06
8.90413e-07
2.1615e-06
-1.3347e-07
2.13226e-06
-5.84757e-07
2.13214e-06
-2.0498e-07
2.14256e-06
4.21843e-07
2.1529e-06
6.04895e-07
2.16264e-06
3.9971e-07
2.16229e-06
6.24227e-08
2.15758e-06
7.72712e-09
2.14301e-06
-3.67561e-07
2.1461e-06
3.5734e-08
2.13591e-06
-1.36051e-07
2.13717e-06
-4.51451e-08
2.1255e-06
3.12579e-08
2.12733e-06
9.86525e-08
2.12122e-06
2.39257e-07
2.12159e-06
2.72026e-07
3.35968e-07
2.12821e-06
2.24653e-06
2.12659e-07
2.24401e-06
-2.14965e-07
2.2646e-06
8.69823e-07
2.26415e-06
-1.33019e-07
2.23677e-06
-5.57375e-07
2.23426e-06
-2.02475e-07
2.24465e-06
4.11459e-07
2.25567e-06
5.93871e-07
2.26596e-06
3.89417e-07
2.26544e-06
6.29458e-08
2.26121e-06
1.19617e-08
2.24597e-06
-3.52329e-07
2.24989e-06
3.18208e-08
2.23775e-06
-1.23913e-07
2.2395e-06
-4.6898e-08
2.2277e-06
4.30642e-08
2.22955e-06
9.68025e-08
2.2265e-06
2.42306e-07
2.22635e-06
2.72171e-07
3.26792e-07
2.23553e-06
2.35458e-06
2.11954e-07
2.35133e-06
-2.11717e-07
2.37203e-06
8.49129e-07
2.37152e-06
-1.32514e-07
2.34545e-06
-5.31306e-07
2.34123e-06
-1.98257e-07
2.35199e-06
4.00707e-07
2.36337e-06
5.82482e-07
2.37429e-06
3.78498e-07
2.37336e-06
6.38815e-08
2.36953e-06
1.57848e-08
2.35356e-06
-3.36356e-07
2.35826e-06
2.71269e-08
2.34464e-06
-1.10299e-07
2.34668e-06
-4.89399e-08
2.33522e-06
5.4524e-08
2.3363e-06
9.57258e-08
2.33621e-06
2.42396e-07
2.33543e-06
2.72947e-07
3.16213e-07
2.34601e-06
2.4676e-06
2.10745e-07
2.46374e-06
-2.07851e-07
2.48506e-06
8.27813e-07
2.48394e-06
-1.31402e-07
2.45879e-06
-5.06158e-07
2.45326e-06
-1.92727e-07
2.46475e-06
3.89223e-07
2.47626e-06
5.70976e-07
2.48785e-06
3.66901e-07
2.48637e-06
6.5359e-08
2.48288e-06
1.928e-08
2.46614e-06
-3.19619e-07
2.47145e-06
2.18214e-08
2.45683e-06
-9.56766e-08
2.45884e-06
-5.09568e-08
2.44821e-06
6.51612e-08
2.44793e-06
9.60058e-08
2.45053e-06
2.39795e-07
2.44928e-06
2.74196e-07
3.05289e-07
2.4602e-06
2.58593e-06
2.09106e-07
2.58144e-06
-2.03361e-07
2.60376e-06
8.05496e-07
2.6017e-06
-1.29345e-07
2.57728e-06
-4.81735e-07
2.57062e-06
-1.86068e-07
2.5831e-06
3.76747e-07
2.59452e-06
5.59551e-07
2.60681e-06
3.54611e-07
2.60478e-06
6.73941e-08
2.60151e-06
2.25442e-08
2.58408e-06
-3.02192e-07
2.58976e-06
1.61503e-08
2.57457e-06
-8.04926e-08
2.57619e-06
-5.25776e-08
2.56679e-06
7.45611e-08
2.56486e-06
9.79367e-08
2.56967e-06
2.34989e-07
2.56835e-06
2.75513e-07
2.94875e-07
2.57877e-06
2.70989e-06
2.07047e-07
2.70469e-06
-1.98164e-07
2.72825e-06
7.81936e-07
2.72506e-06
-1.26157e-07
2.70135e-06
-4.58025e-07
2.6936e-06
-1.78312e-07
2.70721e-06
3.63137e-07
2.71839e-06
5.48363e-07
2.73134e-06
3.41662e-07
2.72883e-06
6.99034e-08
2.72568e-06
2.56966e-08
2.70774e-06
-2.84252e-07
2.71349e-06
1.04037e-08
2.69817e-06
-6.51738e-08
2.69901e-06
-5.34239e-08
2.69115e-06
8.24212e-08
2.68757e-06
1.01522e-07
2.69395e-06
2.28612e-07
2.69309e-06
2.76365e-07
2.85571e-07
2.7024e-06
2.83978e-06
2.04536e-07
2.83376e-06
-1.92148e-07
2.8587e-06
7.56996e-07
2.85429e-06
-1.21741e-07
2.8314e-06
-4.35137e-07
2.8225e-06
-1.6941e-07
2.83728e-06
3.48361e-07
2.84813e-06
5.37508e-07
2.86165e-06
3.28146e-07
2.85882e-06
7.27272e-08
2.85563e-06
2.88911e-08
2.83743e-06
-2.66056e-07
2.84297e-06
4.86792e-09
2.82786e-06
-5.00698e-08
2.82765e-06
-5.32101e-08
2.82146e-06
8.86155e-08
2.81645e-06
1.06528e-07
2.82374e-06
2.21322e-07
2.82385e-06
2.7626e-07
2.77706e-07
2.83171e-06
2.97591e-06
2.01518e-07
2.96896e-06
-1.85191e-07
2.99535e-06
7.30602e-07
2.98965e-06
-1.16042e-07
2.96775e-06
-4.1324e-07
2.95765e-06
-1.59302e-07
2.97354e-06
3.32469e-07
2.98403e-06
5.27016e-07
2.99797e-06
3.14209e-07
2.99505e-06
7.56462e-08
2.99162e-06
3.23199e-08
2.97345e-06
-2.47889e-07
2.97854e-06
-2.18503e-10
2.9639e-06
-3.5432e-08
2.96246e-06
-5.17672e-08
2.95789e-06
9.31863e-08
2.95182e-06
1.12596e-07
2.95948e-06
2.13659e-07
2.96088e-06
2.74859e-07
2.71354e-07
2.96723e-06
3.11859e-06
1.97939e-07
3.11058e-06
-1.77184e-07
3.13846e-06
7.02716e-07
3.13144e-06
-1.09016e-07
3.1107e-06
-3.925e-07
3.09936e-06
-1.47959e-07
3.11625e-06
3.15572e-07
3.12642e-06
5.16849e-07
3.14057e-06
3.0006e-07
3.13782e-06
7.83988e-08
3.13394e-06
3.61946e-08
3.11606e-06
-2.30012e-07
3.12054e-06
-4.69085e-09
3.10651e-06
-2.14063e-08
3.10379e-06
-4.90418e-08
3.10067e-06
9.63018e-08
3.09394e-06
1.19329e-07
3.10156e-06
2.06036e-07
3.10445e-06
2.71973e-07
2.66394e-07
3.10941e-06
3.2681e-06
1.93746e-07
3.25896e-06
-1.68038e-07
3.28835e-06
6.73322e-07
3.27997e-06
-1.00631e-07
3.26051e-06
-3.73041e-07
3.24796e-06
-1.35411e-07
3.2657e-06
2.97833e-07
3.27565e-06
5.06897e-07
3.28975e-06
2.85959e-07
3.28745e-06
8.0702e-08
3.28293e-06
4.07107e-08
3.26552e-06
-2.12601e-07
3.26932e-06
-8.49475e-09
3.25594e-06
-8.01935e-09
3.25196e-06
-4.50595e-08
3.25011e-06
9.81482e-08
3.24304e-06
1.26399e-07
3.25031e-06
1.98764e-07
3.25479e-06
2.67498e-07
2.62561e-07
3.25862e-06
3.42478e-06
1.88897e-07
3.41442e-06
-1.57682e-07
3.44533e-06
6.42415e-07
3.43558e-06
-9.08785e-08
3.41746e-06
-3.54923e-07
3.4038e-06
-1.21753e-07
3.42217e-06
2.79467e-07
3.43209e-06
4.96978e-07
3.44584e-06
2.72211e-07
3.44427e-06
8.22726e-08
3.43896e-06
4.60128e-08
3.42208e-06
-1.95717e-07
3.42527e-06
-1.16888e-08
3.41246e-06
4.79846e-09
3.40727e-06
-3.98769e-08
3.40655e-06
9.88725e-08
3.39938e-06
1.33573e-07
3.40603e-06
1.92112e-07
3.41217e-06
2.61354e-07
2.59494e-07
3.41524e-06
3.58895e-06
1.8336e-07
3.57734e-06
-1.46069e-07
3.60974e-06
6.10011e-07
3.59864e-06
-7.97847e-08
3.58186e-06
-3.38137e-07
3.56726e-06
-1.07154e-07
3.58598e-06
2.6075e-07
3.59612e-06
4.86839e-07
3.60917e-06
2.59158e-07
3.60859e-06
8.28575e-08
3.60245e-06
5.21438e-08
3.58602e-06
-1.79283e-07
3.58875e-06
-1.44189e-08
3.57641e-06
1.71426e-08
3.57007e-06
-3.3538e-08
3.57035e-06
9.8594e-08
3.56327e-06
1.40645e-07
3.56901e-06
1.86376e-07
3.57686e-06
2.53507e-07
2.56706e-07
3.57964e-06
3.76095e-06
1.77111e-07
3.74806e-06
-1.33172e-07
3.78191e-06
5.76159e-07
3.76955e-06
-6.74275e-08
3.75402e-06
-3.22608e-07
3.73872e-06
-9.18483e-08
3.75745e-06
2.42015e-07
3.76813e-06
4.76158e-07
3.78014e-06
2.47151e-07
3.78072e-06
8.22731e-08
3.77385e-06
5.90208e-08
3.75765e-06
-1.63081e-07
3.76013e-06
-1.69041e-08
3.74818e-06
2.90902e-08
3.74067e-06
-2.60214e-08
3.74188e-06
9.73783e-08
3.73515e-06
1.4738e-07
3.73965e-06
1.81873e-07
3.74905e-06
2.44104e-07
2.53581e-07
3.75218e-06
3.94116e-06
1.70135e-07
3.92698e-06
-1.18992e-07
3.9622e-06
5.40947e-07
3.94871e-06
-5.39415e-08
3.9343e-06
-3.08197e-07
3.91859e-06
-7.6145e-08
3.93694e-06
2.23667e-07
3.94853e-06
4.64572e-07
3.95917e-06
2.36514e-07
3.96099e-06
8.04491e-08
3.95358e-06
6.643e-08
3.93733e-06
-1.46829e-07
3.93974e-06
-1.93189e-08
3.92823e-06
4.06024e-08
3.91944e-06
-1.7234e-08
3.9215e-06
9.5322e-08
3.91548e-06
1.53403e-07
3.91844e-06
1.7891e-07
3.92897e-06
2.33577e-07
2.49417e-07
3.93313e-06
4.12996e-06
1.62427e-07
4.11452e-06
-1.03558e-07
4.15095e-06
5.04518e-07
4.13654e-06
-3.95246e-08
4.12304e-06
-2.94697e-07
4.10733e-06
-6.0437e-08
4.12482e-06
2.06178e-07
4.13769e-06
4.51697e-07
4.14671e-06
2.27498e-07
4.14971e-06
7.74531e-08
4.14209e-06
7.40427e-08
4.12549e-06
-1.30223e-07
4.12792e-06
-2.17527e-08
4.11703e-06
5.14928e-08
4.10684e-06
-7.04148e-09
4.10954e-06
9.26155e-08
4.10465e-06
1.58293e-07
4.106e-06
1.77566e-07
4.11689e-06
2.22685e-07
2.43601e-07
4.12271e-06
4.32773e-06
1.53996e-07
4.31112e-06
-8.69406e-08
4.34856e-06
4.67073e-07
4.33347e-06
-2.44367e-08
4.32062e-06
-2.81843e-07
4.30537e-06
-4.51899e-08
4.32148e-06
1.90069e-07
4.336e-06
4.37174e-07
4.34328e-06
2.20221e-07
4.34721e-06
7.35236e-08
4.3398e-06
8.14572e-08
4.32258e-06
-1.1301e-07
4.325e-06
-2.41679e-08
4.31503e-06
6.14569e-08
4.30332e-06
4.66999e-09
4.30641e-06
8.95267e-08
4.30303e-06
1.61677e-07
4.30292e-06
1.77674e-07
4.31328e-06
2.12326e-07
2.35821e-07
4.32106e-06
4.5349e-06
1.44865e-07
4.51721e-06
-6.92477e-08
4.5554e-06
4.28882e-07
4.53997e-06
-9.00705e-09
4.52743e-06
-2.69296e-07
4.51318e-06
-3.09468e-08
4.52738e-06
1.75875e-07
4.54381e-06
4.20737e-07
4.54941e-06
2.14622e-07
4.55389e-06
6.90411e-08
4.54707e-06
8.82775e-08
4.52913e-06
-9.50644e-08
4.53134e-06
-2.63813e-08
4.52263e-06
7.01709e-08
4.50949e-06
1.7813e-08
4.51252e-06
8.6495e-08
4.5109e-06
1.63295e-07
4.50978e-06
1.78795e-07
4.51881e-06
2.03291e-07
2.2629e-07
4.52834e-06
4.7519e-06
1.35078e-07
4.73329e-06
-5.06397e-08
4.77189e-06
3.9029e-07
4.75651e-06
6.36345e-09
4.74387e-06
-2.56647e-07
4.7312e-06
-1.82821e-08
4.74302e-06
1.64054e-07
4.76141e-06
4.02348e-07
4.76564e-06
2.10391e-07
4.77021e-06
6.44774e-08
4.76432e-06
9.41664e-08
4.74563e-06
-7.63791e-08
4.74738e-06
-2.81273e-08
4.74019e-06
7.7357e-08
4.72587e-06
3.21381e-08
4.72834e-06
8.4024e-08
4.72859e-06
1.63046e-07
4.72703e-06
1.80356e-07
4.73431e-06
1.96009e-07
2.15755e-07
4.74485e-06
4.97917e-06
1.24703e-07
4.95986e-06
-3.13271e-08
4.99842e-06
3.51726e-07
4.9836e-06
2.11895e-08
4.97038e-06
-2.4343e-07
4.95986e-06
-7.75697e-09
4.969e-06
1.54907e-07
4.98903e-06
3.82317e-07
4.99248e-06
2.06948e-07
4.99667e-06
6.02808e-08
4.99192e-06
9.89248e-08
4.97262e-06
-5.70812e-08
4.97357e-06
-2.90752e-08
4.96811e-06
8.2816e-08
4.95297e-06
4.72714e-08
4.9544e-06
8.25943e-08
4.95649e-06
1.60956e-07
4.95503e-06
1.81819e-07
4.96056e-06
1.90476e-07
2.05218e-07
4.9711e-06
5.21719e-06
1.1383e-07
5.19744e-06
-1.15767e-08
5.23544e-06
3.13725e-07
5.22174e-06
3.48927e-08
5.20745e-06
-2.29148e-07
5.19953e-06
1.64612e-10
5.206e-06
1.48443e-07
5.22704e-06
3.61276e-07
5.23036e-06
2.03629e-07
5.23386e-06
5.67732e-08
5.23029e-06
1.025e-07
5.2106e-06
-3.7389e-08
5.21042e-06
-2.88988e-08
5.20675e-06
8.64822e-08
5.19128e-06
6.27417e-08
5.19129e-06
8.25844e-08
5.19506e-06
1.57186e-07
5.1941e-06
1.8278e-07
5.19817e-06
1.86408e-07
1.9548e-07
5.20791e-06
5.46644e-06
1.02577e-07
5.44658e-06
8.28598e-09
5.48336e-06
2.7695e-07
5.47145e-06
4.67996e-08
5.45563e-06
-2.13329e-07
5.45059e-06
5.19928e-09
5.45481e-06
1.44232e-07
5.47599e-06
3.4009e-07
5.4797e-06
1.99921e-07
5.48236e-06
5.41081e-08
5.47989e-06
1.04979e-07
5.46008e-06
-1.7578e-08
5.45847e-06
-2.7295e-08
5.45658e-06
8.83755e-08
5.44125e-06
7.80714e-08
5.4396e-06
8.42304e-08
5.44477e-06
1.52022e-07
5.44466e-06
1.82884e-07
5.44763e-06
1.8344e-07
1.86991e-07
5.45612e-06
5.72745e-06
9.10813e-08
5.70786e-06
2.78816e-08
5.74255e-06
2.42255e-07
5.73321e-06
5.614e-08
5.71554e-06
-1.95653e-07
5.71333e-06
7.40207e-09
5.71621e-06
1.41354e-07
5.73665e-06
3.1965e-07
5.74097e-06
1.95601e-07
5.74277e-06
5.23092e-08
5.74119e-06
1.06555e-07
5.72155e-06
2.06685e-09
5.71827e-06
-2.4011e-08
5.71803e-06
8.8616e-08
5.70339e-06
9.27116e-08
5.69993e-06
8.76816e-08
5.70609e-06
1.45862e-07
5.70721e-06
1.81763e-07
5.70935e-06
1.81309e-07
1.79812e-07
5.71652e-06
6.00077e-06
7.95088e-08
5.98186e-06
4.67831e-08
6.01331e-06
2.10813e-07
6.00747e-06
6.19719e-08
5.98794e-06
-1.76119e-07
5.98806e-06
7.27843e-09
5.99069e-06
1.38731e-07
6.00989e-06
3.00449e-07
6.0147e-06
1.90788e-07
6.01563e-06
5.13754e-08
6.0147e-06
1.07491e-07
5.99549e-06
2.12791e-08
5.99033e-06
-1.88593e-08
5.99156e-06
8.73924e-08
5.97823e-06
1.06042e-07
5.97295e-06
9.29559e-08
5.97955e-06
1.39262e-07
5.98228e-06
1.79031e-07
5.98381e-06
1.79785e-07
1.73867e-07
5.98975e-06
6.28696e-06
6.80354e-08
6.26921e-06
6.45389e-08
6.29611e-06
1.8391e-07
6.29462e-06
6.34616e-08
6.27365e-06
-1.55147e-07
6.27522e-06
5.70936e-09
6.2785e-06
1.35451e-07
6.29625e-06
2.82696e-07
6.30119e-06
1.85851e-07
6.30127e-06
5.12946e-08
6.30077e-06
1.0799e-07
6.28224e-06
3.98045e-08
6.27523e-06
-1.18436e-08
6.27768e-06
8.49438e-08
6.26628e-06
1.17434e-07
6.25937e-06
9.98722e-08
6.26574e-06
1.32888e-07
6.27032e-06
1.74455e-07
6.27164e-06
1.78462e-07
1.69151e-07
6.27636e-06
6.58666e-06
5.6842e-08
6.57052e-06
8.06864e-08
6.59271e-06
1.61713e-07
6.59507e-06
6.11044e-08
6.57342e-06
-1.33502e-07
6.57538e-06
3.75346e-09
6.57949e-06
1.31337e-07
6.59531e-06
2.66883e-07
6.59994e-06
1.81219e-07
6.59955e-06
5.16877e-08
6.59963e-06
1.0791e-07
6.58226e-06
5.71677e-08
6.57356e-06
-3.1421e-09
6.577e-06
8.15034e-08
6.56804e-06
1.26392e-07
6.55992e-06
1.07995e-07
6.56534e-06
1.27472e-07
6.57176e-06
1.68029e-07
6.57344e-06
1.76788e-07
1.65628e-07
6.57696e-06
6.90053e-06
4.61014e-08
6.88645e-06
9.47689e-08
6.90439e-06
1.43776e-07
6.90944e-06
5.605e-08
6.88788e-06
-1.11938e-07
6.8894e-06
2.22872e-09
6.89393e-06
1.26803e-07
6.90737e-06
2.53448e-07
6.91186e-06
1.76729e-07
6.91126e-06
5.22838e-08
6.91206e-06
1.07109e-07
6.89628e-06
7.29566e-08
6.88616e-06
6.97317e-09
6.89021e-06
7.74583e-08
6.884e-06
1.32598e-07
6.8753e-06
1.16699e-07
6.87916e-06
1.23607e-07
6.88705e-06
1.60143e-07
6.8897e-06
1.74135e-07
1.63099e-07
6.89223e-06
7.22926e-06
3.59796e-08
7.21773e-06
1.06294e-07
7.23178e-06
1.29733e-07
7.23851e-06
4.93189e-08
7.21759e-06
-9.10169e-08
7.21815e-06
1.66303e-09
7.22368e-06
1.2127e-07
7.23525e-06
2.41878e-07
7.23901e-06
1.72971e-07
7.23798e-06
5.33161e-08
7.2393e-06
1.05784e-07
7.22529e-06
8.69703e-08
7.21395e-06
1.8319e-08
7.21802e-06
7.3379e-08
7.21472e-06
1.35902e-07
7.20613e-06
1.25286e-07
7.20814e-06
1.21601e-07
7.21673e-06
1.51546e-07
7.22086e-06
1.7001e-07
1.61109e-07
7.22285e-06
7.57358e-06
2.66295e-08
7.56522e-06
1.14649e-07
7.57553e-06
1.19421e-07
7.58315e-06
4.17016e-08
7.56331e-06
-7.11803e-08
7.56298e-06
1.9977e-09
7.56939e-06
1.14856e-07
7.57979e-06
2.31483e-07
7.58237e-06
1.70386e-07
7.58042e-06
5.52663e-08
7.58228e-06
1.03931e-07
7.57019e-06
9.90538e-08
7.5578e-06
3.07091e-08
7.56127e-06
6.99158e-08
7.56081e-06
1.36359e-07
7.55304e-06
1.33055e-07
7.55317e-06
1.21469e-07
7.56164e-06
1.43077e-07
7.5674e-06
1.64256e-07
1.59054e-07
7.56945e-06
7.93427e-06
1.81749e-08
7.92946e-06
1.19455e-07
7.93668e-06
1.12204e-07
7.94419e-06
3.41921e-08
7.92642e-06
-5.34143e-08
7.92572e-06
2.69704e-09
7.93348e-06
1.071e-07
7.94289e-06
2.22075e-07
7.94261e-06
1.70665e-07
7.93918e-06
5.86901e-08
7.94173e-06
1.01381e-07
7.93178e-06
1.09005e-07
7.91868e-06
4.38093e-08
7.92091e-06
6.76882e-08
7.92294e-06
1.34331e-07
7.91662e-06
1.39369e-07
7.91512e-06
1.22971e-07
7.92273e-06
1.35469e-07
7.92988e-06
1.5711e-07
1.56331e-07
7.9326e-06
8.31214e-06
1.07211e-08
8.31086e-06
1.20726e-07
8.31637e-06
1.06696e-07
8.32321e-06
2.73585e-08
8.30809e-06
-3.83015e-08
8.30668e-06
4.10814e-09
8.31542e-06
9.83647e-08
8.32175e-06
2.15746e-07
8.31965e-06
1.72765e-07
8.3153e-06
6.30381e-08
8.31845e-06
9.8232e-08
8.31072e-06
1.16733e-07
8.29744e-06
5.70845e-08
8.29794e-06
6.71961e-08
8.30188e-06
1.30392e-07
8.29751e-06
1.43736e-07
8.29485e-06
1.2563e-07
8.30106e-06
1.29256e-07
8.30908e-06
1.49092e-07
1.52529e-07
8.31288e-06
8.70803e-06
4.35586e-09
8.71036e-06
1.18393e-07
8.71416e-06
1.02896e-07
8.72187e-06
1.96511e-08
8.70693e-06
-2.33671e-08
8.69636e-06
1.46779e-08
8.7019e-06
9.28291e-08
8.71379e-06
2.03849e-07
8.71463e-06
1.71925e-07
8.71008e-06
6.75907e-08
8.7133e-06
9.50136e-08
8.70776e-06
1.22272e-07
8.69478e-06
7.00684e-08
8.69342e-06
6.85513e-08
8.69844e-06
1.25372e-07
8.69631e-06
1.45871e-07
8.69311e-06
1.28827e-07
8.69764e-06
1.24724e-07
8.70591e-06
1.40829e-07
1.47505e-07
8.71093e-06
9.12285e-06
-8.76775e-10
9.12846e-06
1.12783e-07
9.12981e-06
1.01544e-07
9.13347e-06
1.59917e-08
9.1193e-06
-9.1946e-09
9.10948e-06
2.45035e-08
9.11539e-06
8.69105e-08
9.12829e-06
1.90949e-07
9.12948e-06
1.70738e-07
9.12404e-06
7.30295e-08
9.12699e-06
9.20659e-08
9.12358e-06
1.2568e-07
9.11142e-06
8.22326e-08
9.10839e-06
7.15773e-08
9.1137e-06
1.20061e-07
9.11381e-06
1.45765e-07
9.11077e-06
1.31866e-07
9.1136e-06
1.21889e-07
9.12149e-06
1.32943e-07
1.41395e-07
9.1276e-06
9.55754e-06
-4.95489e-09
9.56538e-06
1.04939e-07
9.5654e-06
1.01525e-07
9.56727e-06
1.41245e-08
9.55671e-06
1.36269e-09
9.54618e-06
3.50339e-08
9.54966e-06
8.34275e-08
9.5626e-06
1.78014e-07
9.56457e-06
1.68766e-07
9.55826e-06
7.93449e-08
9.56057e-06
8.97476e-08
9.55908e-06
1.27175e-07
9.54817e-06
9.31376e-08
9.54382e-06
7.59284e-08
9.54876e-06
1.15127e-07
9.55081e-06
1.43713e-07
9.54852e-06
1.34151e-07
9.54991e-06
1.20503e-07
9.55688e-06
1.2597e-07
1.34535e-07
9.56374e-06
1.00131e-05
-7.90111e-09
1.00226e-05
9.5452e-08
1.00224e-05
1.01679e-07
1.00231e-05
1.34469e-08
1.00149e-05
9.58232e-09
1.00041e-05
4.57581e-08
1.00051e-05
8.24917e-08
1.00175e-05
1.65566e-07
1.00205e-05
1.65802e-07
1.00138e-05
8.60468e-08
1.00151e-05
8.84783e-08
1.00152e-05
1.27082e-07
1.00059e-05
1.02435e-07
1.00006e-05
8.12028e-08
1.00048e-05
1.10956e-07
1.00083e-05
1.40187e-07
1.00072e-05
1.35278e-07
1.00076e-05
1.20075e-07
1.00133e-05
1.20263e-07
1.27415e-07
1.00204e-05
1.04905e-05
-9.79798e-09
1.05014e-05
8.45672e-08
1.05015e-05
1.01644e-07
1.05006e-05
1.43144e-08
1.04946e-05
1.56178e-08
1.04842e-05
5.60732e-08
1.04828e-05
8.38866e-08
1.04941e-05
1.54289e-07
1.04981e-05
1.61833e-07
1.04915e-05
9.2609e-08
1.04917e-05
8.83428e-08
1.04929e-05
1.25851e-07
1.04854e-05
1.09927e-07
1.04797e-05
8.6954e-08
1.04828e-05
1.07786e-07
1.04873e-05
1.35696e-07
1.04875e-05
1.35118e-07
1.04875e-05
1.20034e-07
1.04919e-05
1.15897e-07
1.20584e-07
1.04987e-05
1.0991e-05
-1.07978e-08
1.10027e-05
7.2911e-08
1.10035e-05
1.00782e-07
1.10006e-05
1.72217e-08
1.09963e-05
1.99066e-08
1.09872e-05
6.51888e-08
1.0984e-05
8.70778e-08
1.09936e-05
1.44739e-07
1.09984e-05
1.5702e-07
1.09924e-05
9.86128e-08
1.09915e-05
8.92415e-08
1.09934e-05
1.23923e-07
1.09877e-05
1.15643e-07
1.09819e-05
9.2743e-08
1.09841e-05
1.05651e-07
1.0989e-05
1.30741e-07
1.09904e-05
1.33679e-07
1.09906e-05
1.19915e-07
1.09938e-05
1.12637e-07
1.14473e-07
1.09999e-05
1.15157e-05
-1.10886e-08
1.15273e-05
6.12633e-08
1.15295e-05
9.854e-08
1.15241e-05
2.26356e-08
1.15207e-05
2.33152e-08
1.15139e-05
7.20568e-08
1.15097e-05
9.12263e-08
1.15173e-05
1.37164e-07
1.15225e-05
1.51779e-07
1.15173e-05
1.03788e-07
1.15156e-05
9.09717e-08
1.15179e-05
1.21646e-07
1.15139e-05
1.19676e-07
1.15084e-05
9.81972e-08
1.15096e-05
1.0444e-07
1.15146e-05
1.25725e-07
1.15172e-05
1.31127e-07
1.15177e-05
1.19408e-07
1.15202e-05
1.10122e-07
1.09298e-07
1.15254e-05
1.20656e-05
-1.08742e-08
1.20764e-05
5.04395e-08
1.208e-05
9.49756e-08
1.20721e-05
3.05103e-08
1.20689e-05
2.65649e-08
1.20651e-05
7.5876e-08
1.20609e-05
9.53283e-08
1.20665e-05
1.31623e-07
1.20716e-05
1.46623e-07
1.20674e-05
1.08e-07
1.20651e-05
9.32592e-08
1.20675e-05
1.19276e-07
1.20651e-05
1.22126e-07
1.20602e-05
1.03062e-07
1.20607e-05
1.03986e-07
1.20654e-05
1.20947e-07
1.20689e-05
1.27704e-07
1.20699e-05
1.18342e-07
1.2072e-05
1.0802e-07
1.05006e-07
1.20763e-05
1.26421e-05
-1.03382e-08
1.26511e-05
4.14418e-08
1.26551e-05
9.09218e-08
1.26464e-05
3.91727e-08
1.26429e-05
3.01299e-08
1.26419e-05
7.6855e-08
1.26388e-05
9.84737e-08
1.26424e-05
1.2793e-07
1.26471e-05
1.41966e-07
1.26438e-05
1.11267e-07
1.26413e-05
9.58021e-08
1.26436e-05
1.17009e-07
1.26425e-05
1.23178e-07
1.26384e-05
1.07129e-07
1.26383e-05
1.04112e-07
1.26427e-05
1.16594e-07
1.26467e-05
1.23667e-07
1.26484e-05
1.16649e-07
1.26504e-05
1.06062e-07
1.0139e-07
1.2654e-05
1.32462e-05
-9.62977e-09
1.32524e-05
3.52373e-08
1.32574e-05
8.59121e-08
1.32494e-05
4.71687e-08
1.32449e-05
3.4669e-08
1.32457e-05
7.6075e-08
1.3244e-05
1.00142e-07
1.32464e-05
1.25525e-07
1.32503e-05
1.38044e-07
1.32478e-05
1.1379e-07
1.32453e-05
9.83726e-08
1.32473e-05
1.14941e-07
1.32474e-05
1.23078e-07
1.32443e-05
1.10228e-07
1.32439e-05
1.04581e-07
1.32476e-05
1.128e-07
1.32521e-05
1.19255e-07
1.32544e-05
1.14344e-07
1.32563e-05
1.04078e-07
9.82207e-08
1.32595e-05
1.38794e-05
-8.90848e-09
1.3884e-05
3.06905e-08
1.38895e-05
8.04275e-08
1.38824e-05
5.42847e-08
1.38766e-05
4.03982e-08
1.38779e-05
7.48319e-08
1.38778e-05
1.00225e-07
1.38796e-05
1.23698e-07
1.38827e-05
1.34917e-07
1.38807e-05
1.15792e-07
1.38783e-05
1.00839e-07
1.38801e-05
1.13091e-07
1.38811e-05
1.22067e-07
1.38791e-05
1.12286e-07
1.38786e-05
1.05103e-07
1.38817e-05
1.09617e-07
1.38863e-05
1.14725e-07
1.38891e-05
1.11476e-07
1.38912e-05
1.01986e-07
9.52987e-08
1.38941e-05
1.4543e-05
-8.27307e-09
1.45457e-05
2.80229e-08
1.45517e-05
7.44203e-08
1.45461e-05
5.99237e-08
1.45394e-05
4.70276e-08
1.45401e-05
7.41555e-08
1.45413e-05
9.90052e-08
1.45432e-05
1.21801e-07
1.45457e-05
1.32451e-07
1.45441e-05
1.17396e-07
1.45418e-05
1.03162e-07
1.45433e-05
1.11512e-07
1.45451e-05
1.20327e-07
1.4544e-05
1.1336e-07
1.45437e-05
1.05441e-07
1.45463e-05
1.06943e-07
1.45507e-05
1.10343e-07
1.45541e-05
1.08119e-07
1.45563e-05
9.97343e-08
9.24925e-08
1.45591e-05
1.52384e-05
-7.77218e-09
1.52399e-05
2.64897e-08
1.52457e-05
6.8684e-08
1.52416e-05
6.3949e-08
1.52347e-05
5.39978e-08
1.52342e-05
7.46049e-08
1.52361e-05
9.70758e-08
1.52385e-05
1.19456e-07
1.52406e-05
1.3033e-07
1.52393e-05
1.18677e-07
1.52372e-05
1.05312e-07
1.52384e-05
1.10234e-07
1.52407e-05
1.18069e-07
1.52406e-05
1.13454e-07
1.52406e-05
1.05498e-07
1.52429e-05
1.04604e-07
1.5247e-05
1.06268e-07
1.52507e-05
1.04423e-07
1.52532e-05
9.72426e-08
8.97588e-08
1.52559e-05
1.59669e-05
-7.37835e-09
1.59677e-05
2.57149e-08
1.59727e-05
6.36725e-08
1.59702e-05
6.64276e-08
1.59636e-05
6.06584e-08
1.5962e-05
7.62334e-08
1.59639e-05
9.51609e-08
1.59667e-05
1.16603e-07
1.59689e-05
1.28126e-07
1.59679e-05
1.19664e-07
1.5966e-05
1.07255e-07
1.5967e-05
1.09214e-07
1.59695e-05
1.15581e-07
1.59703e-05
1.12615e-07
1.59707e-05
1.0517e-07
1.59728e-05
1.02468e-07
1.59766e-05
1.02506e-07
1.59804e-05
1.00578e-07
1.59832e-05
9.44423e-08
8.70804e-08
1.59859e-05
1.67302e-05
-7.01748e-09
1.67303e-05
2.56753e-08
1.67344e-05
5.95602e-08
1.67333e-05
6.74991e-08
1.67276e-05
6.63942e-08
1.67251e-05
7.87591e-08
1.67264e-05
9.3854e-08
1.67295e-05
1.13449e-07
1.67321e-05
1.25565e-07
1.67315e-05
1.20243e-07
1.67298e-05
1.08939e-07
1.67306e-05
1.08427e-07
1.67332e-05
1.13024e-07
1.67347e-05
1.11035e-07
1.67356e-05
1.04297e-07
1.67376e-05
1.00437e-07
1.67411e-05
9.90162e-08
1.6745e-05
9.67482e-08
1.6748e-05
9.13762e-08
8.44014e-08
1.67507e-05
1.753e-05
-6.62122e-09
1.75299e-05
2.57696e-08
1.75327e-05
5.67122e-08
1.75325e-05
6.76824e-08
1.75281e-05
7.08679e-08
1.75251e-05
8.173e-08
1.75255e-05
9.34036e-08
1.75286e-05
1.10359e-07
1.75316e-05
1.22629e-07
1.75316e-05
1.20191e-07
1.75303e-05
1.10279e-07
1.75309e-05
1.07841e-07
1.75334e-05
1.10453e-07
1.75355e-05
1.08985e-07
1.75369e-05
1.02853e-07
1.7539e-05
9.83466e-08
1.75423e-05
9.5767e-08
1.7546e-05
9.29854e-08
1.75493e-05
8.81321e-08
8.16361e-08
1.7552e-05
1.83679e-05
-6.13127e-09
1.83677e-05
2.59122e-08
1.83695e-05
5.4947e-08
1.83697e-05
6.74756e-08
1.83665e-05
7.40101e-08
1.83636e-05
8.46621e-08
1.83633e-05
9.37208e-08
1.83659e-05
1.07724e-07
1.83691e-05
1.19466e-07
1.83699e-05
1.19393e-07
1.8369e-05
1.11151e-07
1.83695e-05
1.07339e-07
1.8372e-05
1.0799e-07
1.83744e-05
1.06574e-07
1.83763e-05
1.00983e-07
1.83786e-05
9.60511e-08
1.83817e-05
9.26631e-08
1.83853e-05
8.93122e-08
1.83887e-05
8.47497e-08
7.87509e-08
1.83916e-05
1.92458e-05
-5.51934e-09
1.92457e-05
2.60203e-08
1.92466e-05
5.40241e-08
1.92468e-05
6.72881e-08
1.92448e-05
7.60389e-08
1.92423e-05
8.71254e-08
1.92414e-05
9.4566e-08
1.92434e-05
1.05801e-07
1.92466e-05
1.16259e-07
1.9248e-05
1.17938e-07
1.92478e-05
1.11398e-07
1.92484e-05
1.06764e-07
1.92506e-05