/*--------------------------------*- C++ -*----------------------------------*\
| =========                 |                                                 |
| \\      /  F ield         | OpenFOAM: The Open Source CFD Toolbox           |
|  \\    /   O peration     | Version:  v1906                                 |
|   \\  /    A nd           | Web:      www.OpenFOAM.com                      |
|    \\/     M anipulation  |                                                 |
\*---------------------------------------------------------------------------*/
FoamFile
{
    version     2.0;
    format      ascii;
    class       volVectorField;
    location    "3.4";
    object      U;
}
// * * * * * * * * * * * * * * * * * * * * * * * * * * * * * * * * * * * * * //

dimensions      [0 1 -1 0 0 0 0];


internalField   nonuniform List<vector> 
9600
(
(0.823354 0.00217671 0)
(1.1942 -8.08114e-05 0)
(0.890941 0.00957978 0)
(1.08272 -0.00943037 0)
(0.7514 -0.00417821 0)
(1.25936 0.00259299 0)
(0.80412 0.00089834 0)
(1.11964 0.0128552 0)
(0.873072 0.00706819 0)
(1.05905 -0.000312931 0)
(0.844445 0.00148329 0)
(1.10142 -0.0124546 0)
(0.832414 0.0040456 0)
(1.12908 -0.00502357 0)
(0.804271 -0.00162461 0)
(1.14764 0.000359879 0)
(0.810167 0.000298803 0)
(1.13438 0.0084395 0)
(0.828957 0.00849692 0)
(1.11059 0.0137877 0)
(0.831102 0.00196951 0)
(1.18299 -0.00038051 0)
(0.898438 0.0101735 0)
(1.07243 -0.00788897 0)
(0.760728 -0.00650465 0)
(1.24419 0.00220524 0)
(0.821012 0.0022053 0)
(1.10556 0.0125278 0)
(0.893304 0.00767668 0)
(1.04368 0.000397556 0)
(0.8701 0.000384581 0)
(1.07564 -0.0119273 0)
(0.860811 0.00312221 0)
(1.09297 -0.00403038 0)
(0.848903 -0.00264255 0)
(1.09656 0.000529731 0)
(0.878175 0.000817495 0)
(1.05809 0.00715922 0)
(0.931475 0.0104553 0)
(0.991062 0.0118817 0)
(0.847339 0.00176416 0)
(1.16063 -0.000644375 0)
(0.913235 0.0109445 0)
(1.05943 -0.00669703 0)
(0.784038 -0.00819681 0)
(1.21218 0.00198216 0)
(0.857181 0.0034455 0)
(1.07474 0.0119251 0)
(0.923475 0.00829257 0)
(1.02028 0.000725452 0)
(0.907046 -0.000115188 0)
(1.04059 -0.0115484 0)
(0.905334 0.00254638 0)
(1.04758 -0.00370414 0)
(0.910753 -0.00274205 0)
(1.03671 -0.000101042 0)
(0.944547 0.00158369 0)
(1.00004 0.00606828 0)
(0.975247 0.0116598 0)
(0.968694 0.0121548 0)
(0.87061 0.00164227 0)
(1.12979 -0.000925138 0)
(0.933006 0.0115473 0)
(1.04687 -0.00557671 0)
(0.820158 -0.00958049 0)
(1.16618 0.00144836 0)
(0.903942 0.00462923 0)
(1.0371 0.0113838 0)
(0.950945 0.00875573 0)
(0.999983 0.000947617 0)
(0.93978 -0.000406374 0)
(1.01136 -0.0114644 0)
(0.943887 0.00232412 0)
(1.01555 -0.00381623 0)
(0.955852 -0.00246714 0)
(1.00227 -0.000796981 0)
(0.976806 0.00222821 0)
(0.984156 0.0058241 0)
(0.981765 0.0119661 0)
(0.97573 0.0132231 0)
(0.897737 0.00159469 0)
(1.09511 -0.00122929 0)
(0.954128 0.0120127 0)
(1.03708 -0.00456366 0)
(0.862321 -0.0106304 0)
(1.11444 0.000655037 0)
(0.94779 0.00581256 0)
(1.00646 0.0110918 0)
(0.96979 0.00905049 0)
(0.989758 0.00109105 0)
(0.961933 -0.000546662 0)
(0.995717 -0.0114923 0)
(0.96716 0.00215638 0)
(1.00153 -0.00401971 0)
(0.979136 -0.00214814 0)
(0.99127 -0.001214 0)
(0.986809 0.00265512 0)
(0.984527 0.0059111 0)
(0.982438 0.012014 0)
(0.979567 0.0141394 0)
(0.924821 0.00161197 0)
(1.06209 -0.00153058 0)
(0.972878 0.012321 0)
(1.03117 -0.0037403 0)
(0.902239 -0.0112274 0)
(1.06698 -0.000204341 0)
(0.979263 0.00683069 0)
(0.990399 0.0110707 0)
(0.981411 0.00914179 0)
(0.988844 0.00115511 0)
(0.97562 -0.000603139 0)
(0.991699 -0.0115096 0)
(0.97842 0.00193927 0)
(0.998348 -0.00420309 0)
(0.989684 -0.00193069 0)
(0.990557 -0.00132668 0)
(0.989177 0.00288718 0)
(0.98535 0.00604558 0)
(0.9826 0.0121083 0)
(0.979596 0.014852 0)
(0.948487 0.00168199 0)
(1.0353 -0.00180117 0)
(0.986823 0.0124298 0)
(1.02857 -0.00310749 0)
(0.934429 -0.011388 0)
(1.03093 -0.00101346 0)
(0.996404 0.00752151 0)
(0.987185 0.01123 0)
(0.989681 0.00908571 0)
(0.992907 0.00117953 0)
(0.98478 -0.000596009 0)
(0.993718 -0.0114738 0)
(0.983729 0.00171991 0)
(0.998966 -0.00441038 0)
(0.994624 -0.00175846 0)
(0.992484 -0.00125056 0)
(0.990101 0.00303948 0)
(0.984808 0.00635198 0)
(0.981576 0.0122226 0)
(0.978074 0.0154408 0)
(0.966846 0.00178175 0)
(1.01681 -0.0020228 0)
(0.995478 0.0123513 0)
(1.02755 -0.00263707 0)
(0.957611 -0.0112141 0)
(1.00814 -0.00170679 0)
(1.00259 0.00786493 0)
(0.990443 0.0114306 0)
(0.996741 0.00897275 0)
(0.998276 0.0012015 0)
(0.991647 -0.000550493 0)
(0.997373 -0.0113599 0)
(0.986916 0.00153531 0)
(0.999944 -0.00462075 0)
(0.996891 -0.00161145 0)
(0.994272 -0.00108057 0)
(0.990952 0.00325329 0)
(0.984297 0.00686432 0)
(0.980356 0.0122962 0)
(0.976607 0.0159868 0)
(0.9797 0.0018859 0)
(1.00597 -0.00218736 0)
(0.999903 0.0121385 0)
(1.02638 -0.00229811 0)
(0.973311 -0.0108304 0)
(0.996311 -0.00224825 0)
(1.00271 0.00793936 0)
(0.994763 0.0115685 0)
(1.00259 0.0088424 0)
(1.00295 0.00123082 0)
(0.996947 -0.000473359 0)
(1.00055 -0.0111655 0)
(0.989465 0.00139536 0)
(1.00032 -0.00478577 0)
(0.997596 -0.00150525 0)
(0.995104 -0.000850926 0)
(0.99168 0.00351665 0)
(0.984459 0.00748434 0)
(0.980184 0.0123567 0)
(0.976499 0.0165285 0)
(0.988011 0.00197655 0)
(1.0006 -0.0022975 0)
(1.00172 0.0118539 0)
(1.02424 -0.00206239 0)
(0.983821 -0.0103449 0)
(0.991626 -0.0026414 0)
(1.00056 0.00784876 0)
(0.997744 0.0116059 0)
(1.00671 0.00869977 0)
(1.00614 0.00126493 0)
(1.00087 -0.000366681 0)
(1.00273 -0.0109081 0)
(0.991746 0.00129867 0)
(1.00018 -0.00487299 0)
(0.997445 -0.00144516 0)
(0.995025 -0.000563001 0)
(0.992133 0.00374097 0)
(0.985224 0.00813833 0)
(0.981386 0.0124314 0)
(0.978231 0.0170056 0)
(0.993129 0.00204586 0)
(0.998391 -0.00236294 0)
(1.0023 0.0115486 0)
(1.02128 -0.00190691 0)
(0.99098 -0.00983192 0)
(0.99074 -0.00290651 0)
(0.998195 0.0076821 0)
(0.999168 0.0115519 0)
(1.00909 0.00854594 0)
(1.00783 0.00129694 0)
(1.00357 -0.000241672 0)
(1.00404 -0.0106069 0)
(0.993796 0.00123413 0)
(0.999882 -0.0048678 0)
(0.996997 -0.0014171 0)
(0.994456 -0.00023165 0)
(0.992348 0.00387486 0)
(0.986345 0.00877956 0)
(0.983573 0.012491 0)
(0.981401 0.0173264 0)
(0.996225 0.00209332 0)
(0.997678 -0.00239455 0)
(1.00244 0.011253 0)
(1.01808 -0.00181221 0)
(0.99591 -0.00933462 0)
(0.991465 -0.00306507 0)
(0.996347 0.00749525 0)
(0.999609 0.0114331 0)
(1.01021 0.00838051 0)
(1.00843 0.00131887 0)
(1.00527 -0.000110469 0)
(1.00476 -0.0102784 0)
(0.995571 0.00118337 0)
(0.999663 -0.00476439 0)
(0.996602 -0.0014098 0)
(0.993822 0.000132654 0)
(0.992475 0.00391768 0)
(0.98762 0.00935048 0)
(0.986155 0.01251 0)
(0.985191 0.01744 0)
(0.998098 0.00212204 0)
(0.99755 -0.00240148 0)
(1.0025 0.0109777 0)
(1.01521 -0.00176121 0)
(0.999234 -0.00887098 0)
(0.992625 -0.00314304 0)
(0.995112 0.00731164 0)
(0.999618 0.0112746 0)
(1.01064 0.0082021 0)
(1.00843 0.00133042 0)
(1.00625 1.59211e-05 0)
(1.0051 -0.00993007 0)
(0.997004 0.00112444 0)
(0.999584 -0.00456364 0)
(0.996394 -0.00142743 0)
(0.993372 0.000529386 0)
(0.992637 0.00388842 0)
(0.988892 0.00980277 0)
(0.988645 0.0125028 0)
(0.988835 0.0173411 0)
(0.999225 0.00213627 0)
(0.9976 -0.00239094 0)
(1.00261 0.0107207 0)
(1.01296 -0.00173853 0)
(1.00135 -0.00844325 0)
(0.993691 -0.00316101 0)
(0.994375 0.00713521 0)
(0.999516 0.0110921 0)
(1.01078 0.00801297 0)
(1.0082 0.00133779 0)
(1.00673 0.000130541 0)
(1.00525 -0.00956533 0)
(0.998065 0.00104559 0)
(0.999583 -0.00428004 0)
(0.996361 -0.00147054 0)
(0.993163 0.00095065 0)
(0.99289 0.00381593 0)
(0.990048 0.0101148 0)
(0.990753 0.0125015 0)
(0.991859 0.0170532 0)
(0.999884 0.00213971 0)
(0.997675 -0.00236764 0)
(1.00278 0.0104747 0)
(1.01136 -0.00173062 0)
(1.00259 -0.00804505 0)
(0.994486 -0.00313613 0)
(0.994004 0.00696278 0)
(0.999438 0.0108942 0)
(1.01084 0.00781457 0)
(1.00795 0.00134674 0)
(1.0069 0.00023382 0)
(1.00529 -0.00918502 0)
(0.998788 0.000944285 0)
(0.999582 -0.00393046 0)
(0.996441 -0.0015293 0)
(0.993141 0.00138065 0)
(0.993226 0.00373838 0)
(0.991027 0.0102834 0)
(0.992376 0.0125261 0)
(0.994117 0.0166221 0)
(1.00025 0.00213551 0)
(0.997733 -0.0023359 0)
(1.00299 0.0102312 0)
(1.0103 -0.00172585 0)
(1.00324 -0.0076686 0)
(0.995007 -0.00308172 0)
(0.993892 0.00678837 0)
(0.999422 0.0106877 0)
(1.01088 0.00760395 0)
(1.00777 0.00136452 0)
(1.0069 0.00032563 0)
(1.00529 -0.00878419 0)
(0.999254 0.000818744 0)
(0.999535 -0.00353182 0)
(0.996576 -0.00158877 0)
(0.993227 0.00180341 0)
(0.99361 0.00368919 0)
(0.991828 0.0103152 0)
(0.993545 0.0125813 0)
(0.995686 0.0161076 0)
(1.00044 0.00212576 0)
(0.997776 -0.00229756 0)
(1.00319 0.00998265 0)
(1.00963 -0.00171586 0)
(1.00353 -0.00730785 0)
(0.995326 -0.00300494 0)
(0.993953 0.00660341 0)
(0.999459 0.0104794 0)
(1.01092 0.00737836 0)
(1.00763 0.00139278 0)
(1.00679 0.000408468 0)
(1.00527 -0.008362 0)
(0.999552 0.000671995 0)
(0.999438 -0.00309711 0)
(0.996738 -0.00165952 0)
(0.993368 0.00219714 0)
(0.994008 0.00368928 0)
(0.992491 0.0102269 0)
(0.994361 0.0126582 0)
(0.996742 0.0155675 0)
(1.00053 0.00211135 0)
(0.99782 -0.00225152 0)
(1.00336 0.00972431 0)
(1.00918 -0.00169569 0)
(1.00362 -0.00695796 0)
(0.995533 -0.00291045 0)
(0.994121 0.00640321 0)
(0.999528 0.0102712 0)
(1.01091 0.00714053 0)
(1.00753 0.00142996 0)
(1.00663 0.000488144 0)
(1.00526 -0.00792314 0)
(0.999758 0.00051508 0)
(0.999308 -0.00264181 0)
(0.996912 -0.00173073 0)
(0.993547 0.00254182 0)
(0.994399 0.00375041 0)
(0.993071 0.0100451 0)
(0.994936 0.0127336 0)
(0.997462 0.015041 0)
(1.00055 0.00209285 0)
(0.997883 -0.00219885 0)
(1.00346 0.00945238 0)
(1.00886 -0.00166178 0)
(1.00362 -0.00661784 0)
(0.995708 -0.00279929 0)
(0.994343 0.00618481 0)
(0.999608 0.0100659 0)
(1.01085 0.0068895 0)
(1.00743 0.00147947 0)
(1.00643 0.000559604 0)
(1.00526 -0.00746627 0)
(0.999922 0.000352082 0)
(0.999168 -0.0021807 0)
(0.997094 -0.00176688 0)
(0.993763 0.00282832 0)
(0.994777 0.00387499 0)
(0.993618 0.00980203 0)
(0.995367 0.0127857 0)
(0.997982 0.0145538 0)
(1.00054 0.0020701 0)
(0.997979 -0.0021386 0)
(1.00351 0.00916381 0)
(1.0086 -0.00161196 0)
(1.00358 -0.00628945 0)
(0.995903 -0.00266968 0)
(0.994585 0.00594561 0)
(0.99969 0.00986817 0)
(1.01072 0.0066237 0)
(1.00733 0.00153856 0)
(1.00618 0.000633073 0)
(1.00528 -0.00700231 0)
(1.00007 0.000191562 0)
(0.99904 -0.00172045 0)
(0.997276 -0.00176581 0)
(0.99402 0.00305963 0)
(0.995137 0.00405223 0)
(0.994165 0.00952108 0)
(0.995723 0.0128006 0)
(0.998388 0.0141257 0)
(1.00049 0.00204253 0)
(0.998115 -0.00206801 0)
(1.00349 0.00885786 0)
(1.00836 -0.00154621 0)
(1.00352 -0.00597417 0)
(0.996143 -0.00252202 0)
(0.994826 0.00568694 0)
(0.99977 0.00967627 0)
(1.01052 0.00635117 0)
(1.00722 0.00160154 0)
(1.00589 0.000710682 0)
(1.0053 -0.0065399 0)
(1.00022 4.53152e-05 0)
(0.998933 -0.00127574 0)
(0.997452 -0.00172975 0)
(0.994318 0.0032441 0)
(0.995478 0.00426333 0)
(0.994724 0.00921369 0)
(0.996044 0.0127682 0)
(0.998728 0.0137688 0)
(1.00042 0.00200944 0)
(0.998289 -0.0019856 0)
(1.00343 0.00853514 0)
(1.00814 -0.00146356 0)
(1.00343 -0.00567425 0)
(0.996427 -0.002356 0)
(0.995059 0.00541032 0)
(0.999848 0.00949063 0)
(1.01027 0.00607069 0)
(1.0071 0.00166646 0)
(1.00557 0.000791584 0)
(1.00533 -0.00608048 0)
(1.00037 -8.06219e-05 0)
(0.998849 -0.00084777 0)
(0.997619 -0.00165806 0)
(0.994651 0.00338415 0)
(0.995794 0.00449648 0)
(0.995296 0.00889223 0)
(0.996355 0.0126826 0)
(0.999019 0.0134859 0)
(1.00033 0.00197053 0)
(0.998491 -0.00189201 0)
(1.00334 0.00819395 0)
(1.00791 -0.00136277 0)
(1.00332 -0.00539211 0)
(0.996742 -0.00217233 0)
(0.995281 0.00511852 0)
(0.999924 0.00931143 0)
(1.00998 0.0057844 0)
(1.00698 0.00172436 0)
(1.00522 0.000893349 0)
(1.00535 -0.00563606 0)
(1.00053 -0.00018622 0)
(0.998784 -0.00043262 0)
(0.997772 -0.00154596 0)
(0.995013 0.00348447 0)
(0.996085 0.00475041 0)
(0.995871 0.00856808 0)
(0.99667 0.0125327 0)
(0.999266 0.0132674 0)
(1.00022 0.00192516 0)
(0.998705 -0.00178568 0)
(1.00322 0.00783409 0)
(1.0077 -0.00124392 0)
(1.00319 -0.0051288 0)
(0.99707 -0.00197019 0)
(0.9955 0.0048141 0)
(0.999993 0.00913464 0)
(1.00966 0.00550621 0)
(1.00686 0.00176487 0)
(1.00485 0.00101091 0)
(1.00536 -0.00520793 0)
(1.0007 -0.000276881 0)
(0.998733 -4.35269e-05 0)
(0.997912 -0.00139805 0)
(0.995398 0.00354571 0)
(0.996351 0.00502172 0)
(0.996437 0.00825116 0)
(0.996999 0.0123064 0)
(0.999471 0.013101 0)
(1.00012 0.00187305 0)
(0.998917 -0.00166497 0)
(1.0031 0.00745706 0)
(1.00747 -0.00110727 0)
(1.00306 -0.00488532 0)
(0.997393 -0.00174887 0)
(0.99572 0.00449897 0)
(1.00005 0.00895504 0)
(1.00933 0.00524051 0)
(1.00674 0.00178798 0)
(1.00448 0.00114885 0)
(1.00536 -0.00479091 0)
(1.00088 -0.000360852 0)
(0.998692 0.000328463 0)
(0.998044 -0.00121277 0)
(0.995802 0.00356589 0)
(0.9966 0.00530701 0)
(0.996978 0.00795873 0)
(0.997351 0.0119937 0)
(0.999635 0.0129809 0)
(1.00003 0.00181346 0)
(0.999114 -0.00153033 0)
(1.00299 0.00706118 0)
(1.00724 -0.000952646 0)
(1.00294 -0.00465935 0)
(0.997701 -0.00151913 0)
(0.99595 0.00418369 0)
(1.0001 0.00876633 0)
(1.00899 0.00499102 0)
(1.00662 0.00178758 0)
(1.00411 0.00130875 0)
(1.00533 -0.00438122 0)
(1.00109 -0.000431882 0)
(0.998663 0.000697531 0)
(0.998169 -0.000992286 0)
(0.996224 0.00354483 0)
(0.99684 0.00560213 0)
(0.997483 0.00771639 0)
(0.997733 0.0115853 0)
(0.99977 0.012885 0)
(0.999957 0.00174707 0)
(0.999288 -0.00138238 0)
(1.00289 0.00664764 0)
(1.007 -0.000783551 0)
(1.00284 -0.00444799 0)
(0.997988 -0.00128127 0)
(0.996194 0.00387086 0)
(1.00014 0.00856554 0)
(1.00865 0.00476841 0)
(1.00649 0.00175706 0)
(1.00376 0.00147891 0)
(1.00527 -0.00396747 0)
(1.00132 -0.000494977 0)
(0.998645 0.00105588 0)
(0.998288 -0.000730937 0)
(0.996664 0.00348373 0)
(0.997084 0.00588371 0)
(0.997938 0.00754363 0)
(0.998148 0.0110864 0)
(0.999898 0.0127637 0)
(0.999912 0.00167321 0)
(0.999436 -0.00122023 0)
(1.00281 0.00621895 0)
(1.00674 -0.000600724 0)
(1.00276 -0.00425366 0)
(0.998252 -0.00103674 0)
(0.996453 0.00356515 0)
(1.00016 0.0083444 0)
(1.00832 0.00458155 0)
(1.00637 0.00170097 0)
(1.00342 0.00165665 0)
(1.00518 -0.00354349 0)
(1.00157 -0.000565909 0)
(0.998645 0.00140191 0)
(0.9984 -0.000412936 0)
(0.997122 0.00338591 0)
(0.997343 0.00612658 0)
(0.998336 0.00745727 0)
(0.998589 0.0105327 0)
(1.00004 0.0125555 0)
(0.999886 0.00159143 0)
(0.99956 -0.00104368 0)
(1.00275 0.00577906 0)
(1.00646 -0.000409084 0)
(1.00271 -0.00407167 0)
(0.998498 -0.000796257 0)
(0.996724 0.00328228 0)
(1.00018 0.00809263 0)
(1.008 0.00442716 0)
(1.00624 0.00162294 0)
(1.00312 0.00183444 0)
(1.00505 -0.00310809 0)
(1.00184 -0.000640943 0)
(0.998668 0.00172752 0)
(0.9985 -5.80415e-05 0)
(0.997591 0.00326223 0)
(0.99763 0.00631132 0)
(0.998676 0.00746061 0)
(0.999036 0.00997743 0)
(1.00024 0.0122103 0)
(0.999876 0.001503 0)
(0.999664 -0.000854265 0)
(1.0027 0.00532698 0)
(1.00618 -0.000208452 0)
(1.00266 -0.00389483 0)
(0.998729 -0.000567763 0)
(0.997004 0.00303154 0)
(1.00019 0.00780185 0)
(1.00768 0.00430449 0)
(1.00612 0.00152964 0)
(1.00283 0.00200341 0)
(1.0049 -0.00265604 0)
(1.00211 -0.000713261 0)
(0.998718 0.00201496 0)
(0.998584 0.000341306 0)
(0.998067 0.00313524 0)
(0.997954 0.00642041 0)
(0.998963 0.00753098 0)
(0.999465 0.00948428 0)
(1.00048 0.0117218 0)
(0.999876 0.00140733 0)
(0.999752 -0.000653706 0)
(1.00265 0.00486599 0)
(1.00588 -5.25516e-06 0)
(1.00262 -0.00371861 0)
(0.998947 -0.000360396 0)
(0.997285 0.00282016 0)
(1.00021 0.00747283 0)
(1.00736 0.00421216 0)
(1.006 0.0014298 0)
(1.00258 0.00215183 0)
(1.00472 -0.00218293 0)
(1.00239 -0.0007678 0)
(0.998799 0.00225555 0)
(0.998648 0.00079602 0)
(0.998539 0.0030218 0)
(0.998321 0.00644233 0)
(0.999211 0.00763287 0)
(0.99985 0.00909957 0)
(1.00078 0.011137 0)
(0.99988 0.00130477 0)
(0.999825 -0.000444483 0)
(1.00261 0.00440493 0)
(1.00559 0.000188936 0)
(1.00258 -0.00353805 0)
(0.999154 -0.000184781 0)
(0.997563 0.00265453 0)
(1.00022 0.00711747 0)
(1.00704 0.0041399 0)
(1.00589 0.00133418 0)
(1.00234 0.00227477 0)
(1.00451 -0.00169103 0)
(1.00266 -0.000805183 0)
(0.998914 0.00244619 0)
(0.998691 0.00128663 0)
(0.998993 0.00294223 0)
(0.99873 0.00638139 0)
(0.999439 0.00773167 0)
(1.00017 0.00883114 0)
(1.00111 0.0105308 0)
(0.999887 0.00119756 0)
(0.999885 -0.000231166 0)
(1.00257 0.00394608 0)
(1.00529 0.000374822 0)
(1.00254 -0.00334723 0)
(0.999353 -4.19827e-05 0)
(0.997832 0.00253736 0)
(1.00025 0.00674017 0)
(1.00672 0.00407283 0)
(1.00577 0.0012541 0)
(1.00214 0.00236842 0)
(1.00427 -0.00119097 0)
(1.00292 -0.000820343 0)
(0.999068 0.00258404 0)
(0.998714 0.00179633 0)
(0.999414 0.00291182 0)
(0.999177 0.0062535 0)
(0.999665 0.00780044 0)
(1.00044 0.00865258 0)
(1.00143 0.00998068 0)
(0.999895 0.00108561 0)
(0.999932 -1.2328e-05 0)
(1.00253 0.00349847 0)
(1.00501 0.000544746 0)
(1.00249 -0.00313388 0)
(0.999545 5.35324e-05 0)
(0.998088 0.00245793 0)
(1.00027 0.00635367 0)
(1.00641 0.0040012 0)
(1.00566 0.00119123 0)
(1.00196 0.00243335 0)
(1.00402 -0.000687401 0)
(1.00316 -0.000796467 0)
(0.999266 0.00266929 0)
(0.998724 0.0023081 0)
(0.999793 0.0029351 0)
(0.999653 0.00607006 0)
(0.999902 0.00782746 0)
(1.00064 0.0085235 0)
(1.00171 0.00952571 0)
(0.999903 0.000970192 0)
(0.999968 0.000209612 0)
(1.00249 0.0030679 0)
(1.00472 0.000682365 0)
(1.00243 -0.00289013 0)
(0.999731 9.69306e-05 0)
(0.998333 0.00240409 0)
(1.0003 0.00597921 0)
(1.00609 0.00391764 0)
(1.00554 0.00114565 0)
(1.00181 0.00247776 0)
(1.00375 -0.000187034 0)
(1.00338 -0.000728128 0)
(0.999509 0.00270456 0)
(0.998727 0.00281076 0)
(1.00012 0.00301968 0)
(1.00015 0.0058391 0)
(1.00016 0.00781137 0)
(1.0008 0.00842279 0)
(1.00194 0.00915584 0)
(0.999912 0.000853099 0)
(0.99999 0.0004248 0)
(1.00244 0.00266962 0)
(1.00445 0.00077613 0)
(1.00236 -0.00262021 0)
(0.999909 0.000106144 0)
(0.998567 0.00235963 0)
(1.00032 0.00562371 0)
(1.00577 0.00382082 0)
(1.00543 0.00111741 0)
(1.00168 0.00250471 0)
(1.00347 0.000311031 0)
(1.00356 -0.00061042 0)
(0.999798 0.00268949 0)
(0.998735 0.00328618 0)
(1.00038 0.00317283 0)
(1.00065 0.00557298 0)
(1.00045 0.00774377 0)
(1.00093 0.00835179 0)
(1.00212 0.00884383 0)
(0.99992 0.000736159 0)
(1 0.000626991 0)
(1.00238 0.00232286 0)
(1.00419 0.000823911 0)
(1.00228 -0.00233111 0)
(1.00008 9.00317e-05 0)
(0.998791 0.00230921 0)
(1.00034 0.00529242 0)
(1.00546 0.00372023 0)
(1.00531 0.00110758 0)
(1.00159 0.0025218 0)
(1.00319 0.000791892 0)
(1.00371 -0.000439542 0)
(1.00013 0.00262897 0)
(0.998762 0.00371334 0)
(1.00057 0.003397 0)
(1.00115 0.00528975 0)
(1.00079 0.00759739 0)
(1.00104 0.00831193 0)
(1.00224 0.00857985 0)
(0.999929 0.000621723 0)
(1 0.000813479 0)
(1.00232 0.00203466 0)
(1.00394 0.000814562 0)
(1.00218 -0.00202704 0)
(1.00024 6.25841e-05 0)
(0.999008 0.00225143 0)
(1.00035 0.00498858 0)
(1.00514 0.00362003 0)
(1.0052 0.00111026 0)
(1.00153 0.00253383 0)
(1.0029 0.00124575 0)
(1.00381 -0.000217632 0)
(1.00049 0.00253534 0)
(0.99882 0.00407081 0)
(1.00068 0.0036861 0)
(1.00162 0.00502485 0)
(1.00117 0.00734795 0)
(1.00115 0.00827607 0)
(1.00231 0.00837439 0)
(0.999937 0.000511062 0)
(0.999993 0.00097654 0)
(1.00224 0.00180396 0)
(1.00369 0.000761889 0)
(1.00208 -0.00171872 0)
(1.00039 3.3023e-05 0)
(0.999218 0.00217824 0)
(1.00037 0.00472662 0)
(1.00484 0.0035264 0)
(1.00508 0.00111426 0)
(1.0015 0.00252912 0)
(1.00262 0.00166834 0)
(1.00386 3.855e-05 0)
(1.00088 0.00241143 0)
(0.998924 0.00433534 0)
(1.00073 0.00402075 0)
(1.00203 0.00482766 0)
(1.00161 0.00701396 0)
(1.00127 0.00820592 0)
(1.00231 0.00824482 0)
(0.999946 0.000406101 0)
(0.999976 0.00111893 0)
(1.00215 0.00161775 0)
(1.00346 0.000682686 0)
(1.00198 -0.0014204 0)
(1.00052 1.87846e-05 0)
(0.999422 0.00208875 0)
(1.00038 0.00450649 0)
(1.00453 0.00344867 0)
(1.00496 0.00112459 0)
(1.0015 0.00250788 0)
(1.00235 0.00205441 0)
(1.00386 0.000329195 0)
(1.00128 0.00226502 0)
(0.999087 0.00448413 0)
(1.00074 0.00435354 0)
(1.00236 0.00470777 0)
(1.00208 0.00662252 0)
(1.00145 0.00805561 0)
(1.00228 0.00817503 0)
(0.999955 0.000304036 0)
(0.999953 0.00122821 0)
(1.00204 0.00148108 0)
(1.00324 0.000587939 0)
(1.00187 -0.00113673 0)
(1.00064 1.61716e-05 0)
(0.999622 0.00198835 0)
(1.00039 0.00432693 0)
(1.00422 0.00339089 0)
(1.00484 0.00114327 0)
(1.00154 0.00246205 0)
(1.0021 0.00240187 0)
(1.00381 0.000665972 0)
(1.00168 0.00213675 0)
(0.999312 0.00453479 0)
(1.00071 0.00466549 0)
(1.00261 0.00467429 0)
(1.00255 0.00622181 0)
(1.0017 0.00780692 0)
(1.00224 0.00811379 0)
(0.999963 0.000219565 0)
(0.999927 0.0012881 0)
(1.00192 0.00138124 0)
(1.00304 0.000484132 0)
(1.00176 -0.000865388 0)
(1.00074 1.91963e-05 0)
(0.999822 0.00184932 0)
(1.00041 0.00416057 0)
(1.00391 0.00337961 0)
(1.00471 0.00120037 0)
(1.0016 0.00240033 0)
(1.00188 0.00269159 0)
(1.00371 0.00102642 0)
(1.00206 0.00203864 0)
(0.999601 0.00449137 0)
(1.00069 0.00493133 0)
(1.00276 0.0047189 0)
(1.003 0.00585896 0)
(1.00202 0.00748119 0)
(1.00222 0.00802276 0)
(0.999972 0.000140168 0)
(0.999898 0.00131947 0)
(1.00178 0.00130129 0)
(1.00284 0.000403042 0)
(1.00166 -0.00063252 0)
(1.00082 4.07748e-05 0)
(1.00002 0.00167889 0)
(1.00045 0.00396725 0)
(1.00361 0.00339877 0)
(1.00456 0.00129376 0)
(1.00168 0.00233964 0)
(1.00169 0.0029272 0)
(1.00357 0.00141481 0)
(1.00241 0.00200037 0)
(0.999947 0.00437586 0)
(1.00068 0.00512968 0)
(1.00282 0.0048168 0)
(1.0034 0.00555009 0)
(1.0024 0.00709716 0)
(1.00226 0.00786117 0)
(0.999979 6.63888e-05 0)
(0.999871 0.00131944 0)
(1.00164 0.00125337 0)
(1.00265 0.000296757 0)
(1.00155 -0.000426317 0)
(1.00088 0.000127507 0)
(1.00021 0.00154643 0)
(1.0005 0.00379114 0)
(1.00332 0.00343243 0)
(1.00441 0.00140491 0)
(1.00179 0.0022651 0)
(1.00155 0.00309736 0)
(1.0034 0.00180343 0)
(1.00271 0.00203099 0)
(1.00033 0.00422027 0)
(1.00071 0.00525211 0)
(1.00281 0.00495625 0)
(1.00373 0.00531909 0)
(1.00281 0.00669338 0)
(1.00238 0.00762952 0)
(0.999986 1.40941e-05 0)
(0.999848 0.00127073 0)
(1.00149 0.00122311 0)
(1.00247 0.000215776 0)
(1.00146 -0.000220126 0)
(1.00092 0.000292254 0)
(1.00039 0.00146403 0)
(1.00057 0.00359737 0)
(1.00304 0.00343142 0)
(1.00423 0.00152396 0)
(1.00191 0.00217501 0)
(1.00146 0.00319087 0)
(1.00321 0.00215356 0)
(1.00295 0.00210343 0)
(1.00075 0.00403624 0)
(1.0008 0.0052807 0)
(1.00276 0.00509988 0)
(1.00397 0.00516683 0)
(1.00323 0.0062898 0)
(1.00258 0.00732652 0)
(0.999992 -3.32953e-05 0)
(0.999828 0.00119434 0)
(1.00134 0.00121239 0)
(1.0023 0.000193414 0)
(1.00139 -4.39422e-05 0)
(1.00095 0.000475287 0)
(1.00055 0.00140564 0)
(1.00066 0.00334037 0)
(1.00278 0.00338039 0)
(1.00405 0.00165415 0)
(1.00202 0.00210429 0)
(1.00141 0.00322869 0)
(1.00302 0.00245895 0)
(1.00313 0.00220983 0)
(1.00117 0.00384951 0)
(1.00095 0.00522301 0)
(1.00269 0.00521625 0)
(1.00412 0.00508692 0)
(1.00364 0.00591508 0)
(1.00285 0.00696551 0)
(0.999996 -6.86449e-05 0)
(0.999816 0.0010977 0)
(1.00119 0.00121459 0)
(1.00214 0.00016993 0)
(1.00132 9.41182e-05 0)
(1.00096 0.000647216 0)
(1.00069 0.00136856 0)
(1.00075 0.00308373 0)
(1.00256 0.00332219 0)
(1.00385 0.00180368 0)
(1.00214 0.00206296 0)
(1.00141 0.00322692 0)
(1.00283 0.00272497 0)
(1.00326 0.00235641 0)
(1.00159 0.00369843 0)
(1.00115 0.00511744 0)
(1.00262 0.00530243 0)
(1.00418 0.00508037 0)
(1.00399 0.00561915 0)
(1.00318 0.00658991 0)
(1 -9.0824e-05 0)
(0.999811 0.000977495 0)
(1.00104 0.00121834 0)
(1.00198 0.000176949 0)
(1.00128 0.000182874 0)
(1.00097 0.000803706 0)
(1.0008 0.00138119 0)
(1.00084 0.00286954 0)
(1.00237 0.00323967 0)
(1.00365 0.00194552 0)
(1.00224 0.00205438 0)
(1.00144 0.00320796 0)
(1.00267 0.00296256 0)
(1.00334 0.00253964 0)
(1.00198 0.00358954 0)
(1.00141 0.00497528 0)
(1.00258 0.00533362 0)
(1.00418 0.0051009 0)
(1.00426 0.00539544 0)
(1.00353 0.00620846 0)
(1 -0.000105338 0)
(0.999815 0.000851012 0)
(1.0009 0.00121898 0)
(1.00183 0.000197186 0)
(1.00125 0.000241881 0)
(1.00099 0.000954251 0)
(1.00089 0.0014401 0)
(1.00093 0.00268643 0)
(1.0022 0.00313427 0)
(1.00346 0.00207699 0)
(1.00233 0.00208747 0)
(1.00152 0.00318456 0)
(1.00252 0.00314918 0)
(1.00337 0.00271753 0)
(1.00233 0.00349643 0)
(1.00169 0.00478855 0)
(1.00257 0.00529395 0)
(1.00413 0.00511428 0)
(1.00445 0.00523578 0)
(1.00387 0.00586136 0)
(1 -0.000110452 0)
(0.999827 0.000721219 0)
(1.00078 0.00120011 0)
(1.00168 0.000252958 0)
(1.00123 0.000293551 0)
(1.00101 0.00107273 0)
(1.00096 0.00151281 0)
(1.00102 0.00254215 0)
(1.00207 0.00303225 0)
(1.00328 0.00219141 0)
(1.00241 0.00212594 0)
(1.00161 0.00313813 0)
(1.00241 0.00327837 0)
(1.00336 0.00287869 0)
(1.00264 0.00343078 0)
(1.00201 0.00459413 0)
(1.00262 0.0052082 0)
(1.00407 0.00512025 0)
(1.00457 0.00513383 0)
(1.00416 0.00558453 0)
(1 -0.000109726 0)
(0.999846 0.00059577 0)
(1.00067 0.00116307 0)
(1.00154 0.000344643 0)
(1.00122 0.000335259 0)
(1.00105 0.00114471 0)
(1.00102 0.00158925 0)
(1.0011 0.00244416 0)
(1.00197 0.00293428 0)
(1.00311 0.00228095 0)
(1.00247 0.00216397 0)
(1.00173 0.00307964 0)
(1.00233 0.00337459 0)
(1.00333 0.00304005 0)
(1.00289 0.003403 0)
(1.00232 0.00441083 0)
(1.00271 0.00508178 0)
(1.00401 0.00509459 0)
(1.00463 0.00505155 0)
(1.00439 0.00536328 0)
(1 -0.000105149 0)
(0.999871 0.000488565 0)
(1.00058 0.00110594 0)
(1.00141 0.000456693 0)
(1.00122 0.00038443 0)
(1.00109 0.00117093 0)
(1.00107 0.00165006 0)
(1.00117 0.00237397 0)
(1.00189 0.00283591 0)
(1.00295 0.00235034 0)
(1.00252 0.00221368 0)
(1.00186 0.00302174 0)
(1.00229 0.00343283 0)
(1.00328 0.00319036 0)
(1.0031 0.00340339 0)
(1.00263 0.00424104 0)
(1.00285 0.00492457 0)
(1.00397 0.00503287 0)
(1.00465 0.00497256 0)
(1.00457 0.00518391 0)
(1 -9.92735e-05 0)
(0.999899 0.000406877 0)
(1.00051 0.00104377 0)
(1.00128 0.000571644 0)
(1.00121 0.000448942 0)
(1.00115 0.00115793 0)
(1.00113 0.0016797 0)
(1.00123 0.00232557 0)
(1.00182 0.00275905 0)
(1.00281 0.00240959 0)
(1.00256 0.0022689 0)
(1.00201 0.00296434 0)
(1.00228 0.00344374 0)
(1.00323 0.00330675 0)
(1.00325 0.00342041 0)
(1.00292 0.00408904 0)
(1.00301 0.00474898 0)
(1.00396 0.00494187 0)
(1.00465 0.00488976 0)
(1.00469 0.00503122 0)
(1 -9.18049e-05 0)
(0.999928 0.000348199 0)
(1.00046 0.000980484 0)
(1.00117 0.000673991 0)
(1.00119 0.000530615 0)
(1.0012 0.00113597 0)
(1.00119 0.0016782 0)
(1.00129 0.00228901 0)
(1.00177 0.00270579 0)
(1.00269 0.00246036 0)
(1.00259 0.00231874 0)
(1.00215 0.00290818 0)
(1.00231 0.00342654 0)
(1.00318 0.0033907 0)
(1.00336 0.00345104 0)
(1.00318 0.00396723 0)
(1.0032 0.00456719 0)
(1.00397 0.00482717 0)
(1.00464 0.0047983 0)
(1.00478 0.00489081 0)
(1 -8.43913e-05 0)
(0.999955 0.000311258 0)
(1.00043 0.000910813 0)
(1.00107 0.000755568 0)
(1.00117 0.000625575 0)
(1.00125 0.00112427 0)
(1.00126 0.00165268 0)
(1.00135 0.00224958 0)
(1.00173 0.00266293 0)
(1.00258 0.00250845 0)
(1.00261 0.00237112 0)
(1.00229 0.00285196 0)
(1.00236 0.00338634 0)
(1.00315 0.00344453 0)
(1.00343 0.00348126 0)
(1.00339 0.0038751 0)
(1.00339 0.0043889 0)
(1.00401 0.00468762 0)
(1.00462 0.00469453 0)
(1.00483 0.0047506 0)
(1 -7.97048e-05 0)
(0.99998 0.000291262 0)
(1.0004 0.000840389 0)
(1.00099 0.00081543 0)
(1.00114 0.000727299 0)
(1.0013 0.00112709 0)
(1.00133 0.00161676 0)
(1.00141 0.0022016 0)
(1.00171 0.00262258 0)
(1.00248 0.00255274 0)
(1.00261 0.00243053 0)
(1.00243 0.00280401 0)
(1.00245 0.00331755 0)
(1.00314 0.00346249 0)
(1.00349 0.00349711 0)
(1.00357 0.00379732 0)
(1.00358 0.00422394 0)
(1.00407 0.00452785 0)
(1.00461 0.00457952 0)
(1.00487 0.00460973 0)
(1 -7.54176e-05 0)
(1 0.000282275 0)
(1.00039 0.00077485 0)
(1.00092 0.00085122 0)
(1.00111 0.000827147 0)
(1.00133 0.00115155 0)
(1.0014 0.00158231 0)
(1.00149 0.00214097 0)
(1.0017 0.00257733 0)
(1.00239 0.00258683 0)
(1.00259 0.00248865 0)
(1.00254 0.00277645 0)
(1.00254 0.00323549 0)
(1.00314 0.00344186 0)
(1.00353 0.00349539 0)
(1.00371 0.00372391 0)
(1.00374 0.00407776 0)
(1.00416 0.00436488 0)
(1.00461 0.00445593 0)
(1.00489 0.00447446 0)
(1 -7.1622e-05 0)
(1.00002 0.000280382 0)
(1.00038 0.000721509 0)
(1.00087 0.000865776 0)
(1.00108 0.00091342 0)
(1.00135 0.00119594 0)
(1.00146 0.00155913 0)
(1.00156 0.00207429 0)
(1.00171 0.00252404 0)
(1.00233 0.00260935 0)
(1.00257 0.00253951 0)
(1.00263 0.00275894 0)
(1.00264 0.00315689 0)
(1.00317 0.00339122 0)
(1.00356 0.00347316 0)
(1.00383 0.00365348 0)
(1.0039 0.00394231 0)
(1.00425 0.00420497 0)
(1.00461 0.00431944 0)
(1.0049 0.00434157 0)
(1 -6.82961e-05 0)
(1.00003 0.000282542 0)
(1.00037 0.000682893 0)
(1.00083 0.000868492 0)
(1.00106 0.00098198 0)
(1.00136 0.00124674 0)
(1.0015 0.00155123 0)
(1.00164 0.00201031 0)
(1.00174 0.0024581 0)
(1.00227 0.00261619 0)
(1.00255 0.00258729 0)
(1.0027 0.00274637 0)
(1.00274 0.00308462 0)
(1.00321 0.00332769 0)
(1.00359 0.00342916 0)
(1.00391 0.00358173 0)
(1.00403 0.00381036 0)
(1.00434 0.00404216 0)
(1.00463 0.00416912 0)
(1.0049 0.00420275 0)
(1 -6.42423e-05 0)
(1.00004 0.000285539 0)
(1.00036 0.000658119 0)
(1.0008 0.000865762 0)
(1.00104 0.00103075 0)
(1.00136 0.0012942 0)
(1.00153 0.00156016 0)
(1.00171 0.00195945 0)
(1.00178 0.00238431 0)
(1.00224 0.00260018 0)
(1.00252 0.00262371 0)
(1.00275 0.00274393 0)
(1.00283 0.0030138 0)
(1.00326 0.00325276 0)
(1.00362 0.00336631 0)
(1.00398 0.00350136 0)
(1.00413 0.00368821 0)
(1.00443 0.00388242 0)
(1.00466 0.00401489 0)
(1.0049 0.00405916 0)
(1 -5.88519e-05 0)
(1.00005 0.00028661 0)
(1.00035 0.000645479 0)
(1.00078 0.000863074 0)
(1.00103 0.0010608 0)
(1.00136 0.00133487 0)
(1.00156 0.00157936 0)
(1.00176 0.00192421 0)
(1.00183 0.00231262 0)
(1.00223 0.00256371 0)
(1.00249 0.00263569 0)
(1.00278 0.00274733 0)
(1.0029 0.00295428 0)
(1.00331 0.00316805 0)
(1.00365 0.00329028 0)
(1.00404 0.00340833 0)
(1.00421 0.00356893 0)
(1.00451 0.00372961 0)
(1.0047 0.00385565 0)
(1.00489 0.00391127 0)
(1 -5.19351e-05 0)
(1.00006 0.000286436 0)
(1.00034 0.000640679 0)
(1.00077 0.00086452 0)
(1.00103 0.00107755 0)
(1.00136 0.00136415 0)
(1.00157 0.00160183 0)
(1.0018 0.00190306 0)
(1.00187 0.00225033 0)
(1.00223 0.00251625 0)
(1.00247 0.00262383 0)
(1.00279 0.00273723 0)
(1.00295 0.00290814 0)
(1.00335 0.00308563 0)
(1.00368 0.00320579 0)
(1.00408 0.00330873 0)
(1.00428 0.00344126 0)
(1.00458 0.00357982 0)
(1.00473 0.00368901 0)
(1.00489 0.00375537 0)
(1 -4.42854e-05 0)
(1.00006 0.000286723 0)
(1.00034 0.000638719 0)
(1.00075 0.000871207 0)
(1.00102 0.00108847 0)
(1.00136 0.00138034 0)