/*--------------------------------*- C++ -*----------------------------------*\
| =========                 |                                                 |
| \\      /  F ield         | OpenFOAM: The Open Source CFD Toolbox           |
|  \\    /   O peration     | Version:  v1906                                 |
|   \\  /    A nd           | Web:      www.OpenFOAM.com                      |
|    \\/     M anipulation  |                                                 |
\*---------------------------------------------------------------------------*/
FoamFile
{
    version     2.0;
    format      ascii;
    class       volScalarField;
    location    "7.5";
    object      p;
}
// * * * * * * * * * * * * * * * * * * * * * * * * * * * * * * * * * * * * * //

dimensions      [0 2 -2 0 0 0 0];


internalField   nonuniform List<scalar> 
9600
(
3.52199e-11
-0.000482775
0.00234409
0.00174911
0.0018496
0.00272594
0.00265101
0.0041053
0.00566605
0.0066161
0.00529186
0.00724588
0.00774385
0.00897419
0.00869641
0.00965367
0.0111796
0.0137936
0.0156193
0.0198437
-8.8148e-06
-0.000496209
0.00235037
0.00177947
0.0017781
0.00270322
0.00264634
0.00410414
0.00567992
0.00661868
0.0052899
0.00724021
0.0077463
0.00898139
0.00870129
0.00964996
0.0111864
0.0137304
0.0156324
0.0194204
-1.67512e-05
-0.000506256
0.00236228
0.0018017
0.00170461
0.00267463
0.00264405
0.00412663
0.00570054
0.00660725
0.00529322
0.0072283
0.00775488
0.00898585
0.00870746
0.00963749
0.0111866
0.0136621
0.0156126
0.0189586
-2.30885e-05
-0.000503407
0.00237642
0.00181501
0.00164609
0.00266495
0.00264351
0.00417367
0.00573068
0.00658374
0.00530775
0.00721004
0.00776657
0.00898391
0.00871166
0.00961702
0.0111829
0.0135887
0.0155614
0.0185114
-2.67168e-05
-0.000485191
0.00238893
0.00182009
0.00160951
0.00267431
0.00264228
0.00424297
0.00577182
0.00655119
0.00533481
0.00718724
0.00777929
0.00897614
0.00871411
0.00959032
0.0111768
0.0135068
0.015482
0.0180771
-2.70314e-05
-0.000451479
0.00239579
0.00182064
0.00159998
0.00269707
0.00264218
0.0043293
0.00582337
0.00651462
0.00537378
0.00716312
0.0077924
0.00896538
0.00871583
0.00955905
0.0111677
0.0134163
0.0153773
0.0176506
-2.40924e-05
-0.000404284
0.00239408
0.00182102
0.00161637
0.00273045
0.00264629
0.00442644
0.00588361
0.00647731
0.00542228
0.00714001
0.00780587
0.00895279
0.00871733
0.00952441
0.0111545
0.0133194
0.0152478
0.0172288
-1.85774e-05
-0.000346508
0.00238415
0.00182472
0.00165383
0.00277115
0.00265558
0.00452875
0.00594984
0.0064402
0.00547736
0.00711878
0.00781988
0.00893903
0.00871843
0.00948762
0.0111371
0.0132183
0.0150941
0.0168118
-1.13743e-05
-0.000280248
0.0023694
0.00183352
0.00173759
0.00281447
0.00266812
0.00463116
0.00601832
0.00640285
0.00553639
0.00709945
0.00783438
0.00892463
0.00871896
0.00945048
0.0111155
0.0131139
0.0149186
0.0164013
-3.12888e-06
-0.000206558
0.00235405
0.00184757
0.00178357
0.00285637
0.00268059
0.00472936
0.00608489
0.00636456
0.00559747
0.00708169
0.00784912
0.00891023
0.00871891
0.00941504
0.0110896
0.0130077
0.0147261
0.0159996
5.92934e-06
-0.000126185
0.00234089
0.00186657
0.00182823
0.00289425
0.00269022
0.00481997
0.00614601
0.00632488
0.00565914
0.00706531
0.00786403
0.00889651
0.00871832
0.0093829
0.0110596
0.012901
0.0145221
0.0156081
1.59676e-05
-4.01801e-05
0.00233069
0.00188997
0.00187388
0.00292737
0.00269567
0.00490136
0.00619959
0.00628372
0.00572031
0.00705045
0.00787895
0.00888419
0.00871726
0.00935476
0.0110261
0.0127953
0.0143112
0.0152277
2.73405e-05
4.99809e-05
0.00232316
0.00191673
0.00192355
0.00295678
0.00269717
0.00497305
0.00624535
0.0062412
0.00578013
0.0070375
0.00789339
0.00887385
0.00871564
0.00933048
0.0109899
0.0126904
0.0140969
0.0148591
4.03495e-05
0.000142764
0.00231782
0.00194588
0.00197925
0.00298408
0.00269621
0.00503562
0.00628457
0.00619765
0.0058379
0.00702704
0.00790664
0.00886569
0.00871282
0.0093093
0.010952
0.0125851
0.0138811
0.0145026
5.52062e-05
0.000236998
0.00231444
0.0019767
0.00204105
0.00301032
0.00269481
0.00509007
0.00631931
0.00615363
0.00589293
0.00701967
0.00791808
0.00885956
0.00870821
0.00928963
0.0109129
0.0124771
0.013664
0.0141587
7.20912e-05
0.000331896
0.00231306
0.00200882
0.00210762
0.00303574
0.00269479
0.0051375
0.00635174
0.00610986
0.00594459
0.00701599
0.00792732
0.00885503
0.00870144
0.00926923
0.0108725
0.0123644
0.0134453
0.013828
9.11193e-05
0.00042695
0.00231392
0.00204209
0.00217724
0.00306017
0.00269755
0.005179
0.00638354
0.00606713
0.00599222
0.00701657
0.0079342
0.00885146
0.00869231
0.00924586
0.0108306
0.0122465
0.0132242
0.0135105
0.000112408
0.000521826
0.00231732
0.00207649
0.0022485
0.00308343
0.00270402
0.00521544
0.00641574
0.00602626
0.0060352
0.00702165
0.00793861
0.00884815
0.00868126
0.00921763
0.0107865
0.0121239
0.0129993
0.0132052
0.000136103
0.000616237
0.00232354
0.00211207
0.00232049
0.00310546
0.00271465
0.00524755
0.0064488
0.00598802
0.00607313
0.00703125
0.00794033
0.00884432
0.00866929
0.00918322
0.010739
0.0119979
0.0127693
0.0129096
0.00016237
0.000709921
0.00233291
0.00214894
0.00239269
0.00312639
0.00272971
0.00527586
0.00648284
0.00595314
0.00610548
0.00704531
0.00793976
0.00883884
0.00865704
0.00914188
0.0106866
0.0118705
0.0125341
0.0126215
0.000191392
0.000802619
0.00234573
0.0021873
0.00246481
0.00314642
0.00274917
0.00530082
0.0065178
0.00592231
0.00613171
0.00706352
0.00793787
0.00883076
0.0086447
0.00909331
0.0106276
0.0117431
0.0122947
0.0123392
0.000223381
0.000894061
0.00236226
0.00222737
0.00253661
0.00316579
0.00277292
0.0053229
0.0065535
0.00589613
0.00615172
0.00708528
0.00793543
0.00881924
0.00863234
0.00903771
0.0105604
0.0116162
0.0120522
0.0120612
0.000258582
0.00098399
0.00238268
0.0022694
0.00260786
0.00318475
0.00280084
0.0053425
0.00658961
0.00587499
0.00616561
0.00710987
0.00793302
0.00880339
0.00862
0.00897566
0.0104833
0.0114906
0.0118073
0.0117846
0.00029726
0.00107217
0.00240707
0.00231366
0.00267831
0.00320353
0.00283275
0.00535998
0.00662595
0.00585904
0.00617356
0.00713678
0.00793113
0.00878243
0.00860759
0.0089078
0.0103948
0.0113673
0.0115623
0.011504
0.000339684
0.00115837
0.00243545
0.00236043
0.00274771
0.00322235
0.00286826
0.00537623
0.00666255
0.0058483
0.00617563
0.00716549
0.00793041
0.00875557
0.00859461
0.00883507
0.0102932
0.0112469
0.011323
0.0112143
0.000386119
0.00124234
0.00246771
0.00241005
0.00281598
0.00324145
0.00290706
0.00539043
0.00669938
0.00584299
0.00617185
0.00719517
0.00793165
0.00872207
0.00858012
0.00875918
0.0101765
0.0111272
0.011097
0.0109153
0.000436848
0.00132395
0.00250358
0.0024628
0.00288308
0.00326116
0.00294905
0.00540261
0.00673607
0.00584349
0.0061625
0.00722492
0.00793556
0.00868151
0.00856256
0.00868292
0.0100446
0.0110024
0.0108892
0.0106152
0.000492164
0.0014031
0.00254274
0.00251902
0.00294885
0.00328165
0.00299416
0.00541301
0.00677228
0.00584997
0.00614791
0.00725365
0.00794279
0.00863417
0.00854012
0.00860889
0.00990029
0.010866
0.0106977
0.0103243
0.000552271
0.00147973
0.00258488
0.00257921
0.00301323
0.00330297
0.00304233
0.00542188
0.00680777
0.00586257
0.00612823
0.00727977
0.00795388
0.00858098
0.00851137
0.00853791
0.0097474
0.0107158
0.0105167
0.0100489
0.000617341
0.00155395
0.0026295
0.00264367
0.00307644
0.00332519
0.0030934
0.00542936
0.00684204
0.00588157
0.00610382
0.00730148
0.00796899
0.0085231
0.00847495
0.00846926
0.00958932
0.0105539
0.0103422
0.00978968
0.000687621
0.00162598
0.00267606
0.0027124
0.00313893
0.00334834
0.00314704
0.00543591
0.00687447
0.00590696
0.00607566
0.00731742
0.00798792
0.00846155
0.00842943
0.00840252
0.00942801
0.0103819
0.0101739
0.00954718
0.000763246
0.00169612
0.00272415
0.00278535
0.00320114
0.00337228
0.00320406
0.00544211
0.00690459
0.00593838
0.00604475
0.00732641
0.00801015
0.00839735
0.00837367
0.0083385
0.00926612
0.0101982
0.0100105
0.00932511
0.000844238
0.00176479
0.00277339
0.00286243
0.00326373
0.00339674
0.00326321
0.00544858
0.00693216
0.00597525
0.00601196
0.00732731
0.00803486
0.00833189
0.00830652
0.00827719
0.00910835
0.0100022
0.00984677
0.00912736
0.000930616
0.00183247
0.00282343
0.00294343
0.0033275
0.00342179
0.00332369
0.00545587
0.00695733
0.00601657
0.00597798
0.00731928
0.00806085
0.00826676
0.00822699
0.00821626
0.00895987
0.00979785
0.00967584
0.00895227
0.00102242
0.0018996
0.00287402
0.00302784
0.00339301
0.00344782
0.0033848
0.00546425
0.00698062
0.00606157
0.00594287
0.00730139
0.00808686
0.00820382
0.0081348
0.00815418
0.00882351
0.00959247
0.00949427
0.00879252
0.00111965
0.00196663
0.0029251
0.00311497
0.00346079
0.00347565
0.00344563
0.00547359
0.00700271
0.00611024
0.00590656
0.00727253
0.00811218
0.0081454
0.00803046
0.00808552
0.00869915
0.00939224
0.00930272
0.00863887
0.00122222
0.00203393
0.00297683
0.00320433
0.00353107
0.00350597
0.00350522
0.00548342
0.00702406
0.00616294
0.00586955
0.00723105
0.00813529
0.00809408
0.00791536
0.00800664
0.00858639
0.00920178
0.0091037
0.00848284
0.00133018
0.00210173
0.0030296
0.00329553
0.0036038
0.00354005
0.00356294
0.00549251
0.00704468
0.00622042
0.00583291
0.00717493
0.00815339
0.00805261
0.00779209
0.00791465
0.00848364
0.00902671
0.00890175
0.00831714
0.00144356
0.00217015
0.00308398
0.00338838
0.00367873
0.00357958
0.00361846
0.00549878
0.00706398
0.00628374
0.00579814
0.00710274
0.0081629
0.00802346
0.00766524
0.0078045
0.0083858
0.00887282
0.00870614
0.00813831
0.00156228
0.00223976
0.00314041
0.00348331
0.00375477
0.00362583
0.00367281
0.00550078
0.00708076
0.00635336
0.00576773
0.00701386
0.00815841
0.00800763
0.00754196
0.0076733
0.00828443
0.0087413
0.00852992
0.00795164
0.00168645
0.00230903
0.00319878
0.00358108
0.00383055
0.003679
0.00372795
0.005498
0.00709319
0.00642871
0.00574537
0.00690936
0.0081344
0.00800359
0.00743022
0.00752275
0.00816966
0.00862657
0.00838215
0.00777189
0.00181615
0.00237886
0.00325852
0.00368264
0.00390571
0.00373867
0.0037861
0.00549006
0.00709831
0.00650846
0.00573497
0.00679237
0.00808627
0.00800725
0.00733711
0.0073594
0.00803368
0.00852
0.0082645
0.0076163
0.00195132
0.00245018
0.00331848
0.00378893
0.00398117
0.00380252
0.00384962
0.00547803
0.00709307
0.00659046
0.00573945
0.00666731
0.00801022
0.00801246
0.00726827
0.00719171
0.00787157
0.0084136
0.00817409
0.00749616
0.00209187
0.00252395
0.0033771
0.00390042
0.0040588
0.00386748
0.00391903
0.0054646
0.00707535
0.00667107
0.00576057
0.00653932
0.00790559
0.0080124
0.00722558
0.00702686
0.00768087
0.00829857
0.00810704
0.0074145
0.00223761
0.00260138
0.00343275
0.00401681
0.00414147
0.00393081
0.00399333
0.0054532
0.00704417
0.00674515
0.00579872
0.00641548
0.00777506
0.00799989
0.00720622
0.00684457
0.00746431
0.00816324
0.0080573
0.00736928
0.00238785
0.00268411
0.00348424
0.0041366
0.00423288
0.00399081
0.0040707
0.00544721
0.00700035
0.00680686
0.00585161
0.00630298
0.00762442
0.0079697
0.00720742
0.00672664
0.00723587
0.00799616
0.00801319
0.00735698
0.00254208
0.00277369
0.00353125
0.00425688
0.00433668
0.00404818
0.00414618
0.00544889
0.0069483
0.0068528
0.00591404
0.00620625
0.00746127
0.00791965
0.00722114
0.00663862
0.00701016
0.00779378
0.00795794
0.00737217
0.00269919
0.00287155
0.00357435
0.00437344
0.00445523
0.00410545
0.0042128
0.00545772
0.00689582
0.00688316
0.00597968
0.00612699
0.00729265
0.00784922
0.00724012
0.00657825
0.00679911
0.00756299
0.00787504
0.0074041
0.00285807
0.00297885
0.00361497
0.00448182
0.0045884
0.00416727
0.00426604
0.00547081
0.00685055
0.00690101
0.00604331
0.00606465
0.00712391
0.00775884
0.00725934
0.00654526
0.00661112
0.00731442
0.00775405
0.007437
0.00301794
0.00309656
0.00365573
0.00457758
0.00473355
0.00424113
0.0043048
0.00548047
0.00681606
0.00691387
0.00610253
0.00601646
0.00695877
0.00764944
0.0072726
0.00653885
0.00645391
0.00705963
0.00759242
0.00745306
0.00317774
0.00322534
0.00370015
0.00465686
0.00488635
0.00433485
0.00433121
0.00547689
0.00679022
0.00693011
0.00615929
0.00597966
0.0068001
0.00752392
0.00727394
0.00655367
0.00633362
0.00681344
0.0073942
0.00743612
0.00333655
0.00336499
0.00375206
0.00471788
0.00504041
0.00445334
0.00435151
0.00545227
0.00676571
0.00695546
0.00621991
0.00595356
0.00664846
0.007385
0.00725995
0.00658152
0.00625363
0.0065913
0.00717033
0.00737596
0.00349382
0.00351508
0.00381515
0.00476033
0.00518684
0.00459823
0.00437726
0.00540387
0.00673079
0.00699084
0.00629235
0.00594122
0.0065042
0.00723331
0.00722912
0.00661581
0.0062092
0.00640474
0.00693794
0.00727091
0.00364885
0.00367485
0.00389383
0.00478611
0.00531491
0.00476578
0.00442232
0.00533422
0.00667251
0.00703222
0.00638272
0.00594826
0.00637053
0.00706976
0.00717902
0.00665253
0.00619418
0.00625891
0.00671427
0.00712772
0.00380155
0.00384086
0.00399064
0.00480121
0.00541741
0.0049492
0.00449829
0.00525195
0.0065814
0.00706916
0.00649275
0.00598031
0.00625426
0.00689845
0.00710529
0.0066855
0.00620369
0.00615437
0.00651367
0.0069603
0.00395372
0.00400954
0.00410403
0.00481057
0.00548984
0.00513664
0.00461328
0.00517711
0.00645725
0.00708367
0.00661819
0.00604176
0.00616216
0.0067267
0.00700682
0.00670505
0.00623347
0.00609001
0.00634653
0.00678696
0.00410604
0.00418122
0.0042343
0.00481678
0.00552884
0.00531333
0.0047651
0.00513368
0.00630981
0.00705937
0.00674659
0.00613558
0.00610115
0.00656269
0.00688738
0.00670339
0.00627678
0.00606251
0.00621818
0.00662365
0.00425859
0.00435976
0.00437927
0.00482401
0.00553494
0.00546912
0.00494702
0.00513319
0.00615809
0.00699114
0.00685741
0.00625852
0.00608008
0.00641595
0.00675304
0.00667688
0.0063183
0.00606648
0.00613104
0.0064808
0.00441088
0.00452487
0.00453603
0.00485207
0.00552167
0.00559594
0.00514446
0.00517761
0.00602102
0.00688234
0.00693138
0.00639777
0.00610301
0.00629873
0.00661203
0.00662525
0.00634723
0.00609297
0.00608503
0.0063669
0.00456209
0.00468268
0.00470065
0.00490583
0.00550027
0.00568861
0.00533777
0.00526159
0.00591475
0.00674773
0.00696035
0.00653592
0.00616678
0.00622246
0.00647647
0.0065518
0.0063587
0.00612799
0.00607525
0.00629074
0.00471227
0.00483333
0.00486764
0.0049834
0.00547965
0.00574763
0.00551501
0.00537773
0.00585084
0.00660845
0.00694446
0.00665613
0.00626045
0.00619084
0.0063621
0.00646446
0.00635641
0.00616022
0.00609035
0.00625366
0.0048627
0.00497839
0.00502734
0.00507948
0.00547165
0.00578156
0.00566945
0.0055139
0.00583053
0.00648191
0.00688975
0.00674449
0.00637056
0.00620166
0.00627987
0.00637378
0.00632483
0.00618084
0.00611453
0.00624794
0.00501225
0.00511597
0.00517971
0.00519208
0.00548192
0.00579761
0.00579496
0.00565642
0.00585004
0.00638265
0.00681313
0.00679592
0.00648271
0.00624896
0.00623386
0.00629506
0.00628278
0.00618922
0.00613779
0.00626021
0.00516041
0.0052513
0.00532213
0.00531214
0.00551112
0.00580583
0.00589236
0.00579546
0.00590332
0.00631792
0.00673303
0.00681313
0.0065811
0.0063243
0.00622695
0.0062376
0.00623873
0.00618785
0.00615942
0.00627958
0.00530624
0.00538096
0.00545536
0.00543489
0.00555871
0.00581546
0.00596536
0.00592269
0.00598105
0.00628984
0.00666251
0.00680636
0.00665803
0.00641359
0.00625835
0.00621014
0.00620182
0.00618261
0.00618189
0.00630464
0.00544829
0.00550931
0.0055792
0.00555602
0.0056238
0.00583175
0.00601769
0.00603196
0.00607145
0.00629584
0.00661242
0.0067899
0.00671632
0.00650279
0.00631945
0.00621935
0.00618257
0.00617652
0.00620075
0.00633441
0.00558546
0.00563115
0.00569545
0.0056714
0.00570025
0.00585982
0.00605905
0.0061244
0.0061671
0.00633046
0.0065888
0.00677462
0.00676183
0.00658855
0.00639714
0.00626355
0.00619292
0.00617985
0.00622263
0.00637038
0.00571716
0.00575258
0.00580458
0.00577835
0.00578188
0.00589853
0.0060933
0.00619962
0.00626244
0.00638701
0.00659292
0.00677177
0.00680288
0.00667487
0.00648722
0.0063347
0.00623769
0.00620388
0.00624823
0.0064025
0.005841
0.00586897
0.00590804
0.0058783
0.00586649
0.00594796
0.00612632
0.00626021
0.00635145
0.00645808
0.00662183
0.00678763
0.00684773
0.00676571
0.00659669
0.00643223
0.00631641
0.00625855
0.00629006
0.00644712
0.00595526
0.0059734
0.00600565
0.00597163
0.00595043
0.00600587
0.00616308
0.00631002
0.00643084
0.00653971
0.00667547
0.0068241
0.00689927
0.00685781
0.00672475
0.0065619
0.00643397
0.00635935
0.00637025
0.00651897
0.00606196
0.00607882
0.00609637
0.00605274
0.00602607
0.00606669
0.00620566
0.0063543
0.00649566
0.00662044
0.0067535
0.00689523
0.00697774
0.00696158
0.0068673
0.00672032
0.00658333
0.00649606
0.00648342
0.0066084
0.00615709
0.00617349
0.00618025
0.00612393
0.00609109
0.00612473
0.00625438
0.00640511
0.00655617
0.00668453
0.00682775
0.00699249
0.00710779
0.00712991
0.00707466
0.00696109
0.00682378
0.00672184
0.00668837
0.00678219
0.00623626
0.00625513
0.00626116
0.00619362
0.00615094
0.00617118
0.0062819
0.00643972
0.00661888
0.00675251
0.00687772
0.00703791
0.00719236
0.00727053
0.00727638
0.00722629
0.00712386
0.00701943
0.00697023
0.00704251
0.00630924
0.00633127
0.0063401
0.0062609
0.00622273
0.00623695
0.00631512
0.0064492
0.00665151
0.00687179
0.00707272
0.00727302
0.0074571
0.00757488
0.00761743
0.00761795
0.00754892
0.00743369
0.00733257
0.007299
0.00634243
0.00635264
0.00633867
0.0062786
0.00626192
0.00629433
0.00638827
0.00646055
0.00653305
0.00661773
0.00682606
0.00718009
0.00756956
0.00786966
0.00805484
0.0082061
0.00837822
0.00858664
0.00883986
0.00908161
0.00644139
0.00646888
0.00647772
0.00636413
0.00629666
0.00626671
0.00633519
0.00652684
0.00680456
0.00710968
0.00738885
0.00761792
0.00780346
0.00798982
0.00815459
0.00831081
0.00849225
0.00868365
0.0088599
0.00896003
0.00629187
0.00629055
0.00639097
0.00646825
0.00650778
0.00654801
0.00663976
0.00676688
0.00692373
0.00706535
0.00721333
0.00741126
0.00764146
0.00789961
0.00818392
0.00850268
0.00889017
0.0092806
0.00959234
0.00975916
0.00651333
0.00656367
0.00662755
0.00658846
0.00659236
0.00662409
0.00672127
0.00684906
0.00700691
0.00722071
0.00747535
0.00774438
0.00797583
0.00813619
0.00824318
0.00823454
0.00810939
0.00791933
0.00772279
0.00758146
0.00633177
0.00634907
0.00652003
0.00665925
0.00673679
0.00677593
0.00685685
0.00695602
0.00707346
0.00722973
0.00740571
0.00760665
0.00786112
0.00811604
0.00838579
0.00869178
0.00901781
0.00933675
0.00959616
0.00974208
0.0064753
0.00652521
0.00673223
0.00683308
0.0068865
0.00690049
0.00696039
0.00705324
0.0071583
0.00731587
0.00753485
0.0077685
0.00802872
0.00827667
0.00849766
0.00870977
0.00889414
0.00905803
0.00918412
0.00920904
0.0226687
0.0165434
0.00843669
0.00283526
0.00174209
0.00306247
0.00446052
0.00536108
0.00587735
0.00622007
0.00661113
0.00709923
0.00747986
0.00763537
0.0077358
0.00794518
0.00822508
0.00846934
0.00863936
0.0088275
0.00914389
0.00951168
0.00976221
0.00989637
0.0100828
0.0104126
0.0107639
0.0110025
0.0112013
0.0114998
0.011841
0.0121062
0.0123421
0.0126313
0.0129687
0.0133284
0.0137183
0.0141192
0.0144978
0.0148658
0.015231
0.0155672
0.0158776
0.0161757
0.016469
0.0168036
0.0171887
0.0175873
0.0179681
0.0183703
0.0188028
0.0192291
0.0196212
0.0200425
0.0205248
0.0209877
0.0214134
0.0218381
0.0222637
0.0226831
0.0231424
0.0236372
0.0241723
0.0247145
0.0252731
0.0258304
0.026343
0.026821
0.0273621
0.027926
0.0284952
0.0290934
0.0296979
0.030288
0.03088
0.03151
0.0321535
0.0328291
0.0334963
0.0341929
0.0348783
0.0356011
0.0363521
0.0371092
0.0378835
0.0386728
0.0394978
0.0403277
0.0411544
0.0419948
0.042808
0.043704
0.0445894
0.0454854
0.0463778
0.0472425
0.0480884
0.0488599
0.0495117
0.0500341
0.0219382
0.0163983
0.00852441
0.00298363
0.00183045
0.00310369
0.00448583
0.00537941
0.00589127
0.00623057
0.00661932
0.00710645
0.00748665
0.00764129
0.00774072
0.00794946
0.00822904
0.00847304
0.00864263
0.00883021
0.00914629
0.00951409
0.00976455
0.00989836
0.0100844
0.010414
0.0107654
0.0110039
0.0112025
0.0115008
0.011842
0.0121072
0.012343
0.0126321
0.0129694
0.0133291
0.013719
0.0141199
0.0144985
0.0148664
0.0152317
0.0155679
0.0158783
0.0161763
0.0164696
0.0168041
0.0171892
0.0175878
0.0179686
0.0183708
0.0188033
0.0192295
0.0196216
0.0200428
0.0205251
0.0209881
0.0214138
0.0218385
0.022264
0.0226835
0.0231427
0.0236375
0.0241726
0.0247148
0.0252734
0.0258307
0.0263432
0.0268212
0.0273623
0.0279262
0.0284954
0.0290936
0.029698
0.0302882
0.0308802
0.0315101
0.0321536
0.0328292
0.0334964
0.034193
0.0348784
0.0356012
0.0363522
0.0371093
0.0378837
0.0386729
0.0394979
0.0403278
0.0411545
0.0419949
0.0428081
0.0437041
0.0445895
0.0454855
0.0463779
0.0472425
0.0480885
0.04886
0.0495117
0.050034
0.0212501
0.0162458
0.00869199
0.00325059
0.00198314
0.00315936
0.00451081
0.0053976
0.00590717
0.00624435
0.00663023
0.00711474
0.0074934
0.0076472
0.0077459
0.00795395
0.00823292
0.00847652
0.00864576
0.0088329
0.00914872
0.00951646
0.00976675
0.00990021
0.0100859
0.0104154
0.0107669
0.0110051
0.0112035
0.0115017
0.011843
0.0121082
0.0123438
0.0126328
0.0129701
0.0133297
0.0137196
0.0141205
0.0144991
0.014867
0.0152323
0.0155685
0.0158788
0.0161768
0.0164701
0.0168046
0.0171897
0.0175883
0.0179691
0.0183712
0.0188037
0.0192299
0.019622
0.0200432
0.0205255
0.0209885
0.0214142
0.0218388
0.0222643
0.0226837
0.0231429
0.0236377
0.0241728
0.024715
0.0252736
0.0258309
0.0263435
0.0268214
0.0273625
0.0279264
0.0284955
0.0290937
0.0296982
0.0302883
0.0308803
0.0315103
0.0321538
0.0328293
0.0334966
0.0341931
0.0348786
0.0356014
0.0363524
0.0371094
0.0378838
0.038673
0.039498
0.0403279
0.0411546
0.041995
0.0428082
0.0437042
0.0445896
0.0454856
0.0463779
0.0472426
0.0480885
0.04886
0.0495118
0.050034
0.0205925
0.01609
0.00890506
0.0035898
0.00219566
0.00324037
0.00454722
0.00542371
0.00593037
0.00626543
0.00664686
0.00712556
0.00750063
0.00765406
0.00775328
0.00796056
0.00823792
0.0084806
0.00864976
0.00883673
0.00915196
0.00951915
0.00976926
0.0099027
0.0100882
0.0104174
0.0107686
0.0110066
0.0112048
0.0115029
0.0118442
0.0121091
0.0123446
0.0126336
0.0129708
0.0133304
0.0137202
0.0141212
0.0144997
0.0148677
0.0152329
0.0155691
0.0158794
0.0161774
0.0164705
0.016805
0.0171901
0.0175888
0.0179695
0.0183716
0.0188041
0.0192304
0.0196224
0.0200435
0.0205258
0.0209889
0.0214145
0.0218391
0.0222647
0.022684
0.0231431
0.023638
0.024173
0.0247153
0.0252738
0.0258312
0.0263437
0.0268215
0.0273626
0.0279266
0.0284957
0.0290939
0.0296984
0.0302885
0.0308804
0.0315104
0.0321539
0.0328295
0.0334967
0.0341933
0.0348787
0.0356015
0.0363525
0.0371095
0.0378839
0.0386731
0.0394981
0.040328
0.0411547
0.0419951
0.0428083
0.0437043
0.0445897
0.0454856
0.046378
0.0472427
0.0480887
0.0488601
0.0495119
0.0500339
0.0199397
0.0159177
0.00913027
0.00395347
0.00243444
0.003335
0.00459008
0.00545606
0.00596091
0.00629459
0.00667047
0.00713996
0.00750867
0.00766205
0.00776354
0.0079704
0.00824494
0.00848589
0.00865545
0.00884272
0.00915664
0.00952219
0.00977212
0.00990643
0.0100922
0.0104205
0.0107709
0.0110087
0.0112069
0.0115048
0.0118458
0.0121104
0.0123457
0.0126345
0.0129717
0.0133312
0.013721
0.0141219
0.0145004
0.0148684
0.0152337
0.0155698
0.0158799
0.0161779
0.016471
0.0168055
0.0171906
0.0175893
0.01797
0.0183721
0.0188046
0.0192308
0.0196228
0.0200439
0.0205262
0.0209893
0.0214149
0.0218395
0.022265
0.0226843
0.0231434
0.0236382
0.0241733
0.0247155
0.0252741
0.0258315
0.026344
0.0268217
0.0273628
0.0279268
0.0284959
0.0290941
0.0296985
0.0302886
0.0308806
0.0315105
0.032154
0.0328296
0.0334968
0.0341934
0.0348788
0.0356016
0.0363526
0.0371096
0.037884
0.0386732
0.0394982
0.0403281
0.0411548
0.0419952
0.0428084
0.0437044
0.0445898
0.0454857
0.0463781
0.0472428
0.0480888
0.0488603
0.0495122
0.0500338
0.0192878
0.0157229
0.00935046
0.00432316
0.0026871
0.00343679
0.00463421
0.00549059
0.00599588
0.00632933
0.00669906
0.0071569
0.00751713
0.0076708
0.00777624
0.00798327
0.00825409
0.00849266
0.00866327
0.00885152
0.00916323
0.00952555
0.00977511
0.00991153
0.0100982
0.0104251
0.0107738
0.0110116
0.0112102
0.0115078
0.011848
0.0121121
0.0123472
0.0126358
0.0129728
0.0133321
0.0137218
0.0141226
0.0145012
0.0148693
0.0152346
0.0155705
0.0158805
0.0161784
0.0164716
0.016806
0.0171911
0.0175898
0.0179706
0.0183727
0.0188052
0.0192314
0.0196233
0.0200443
0.0205267
0.0209897
0.0214153
0.0218399
0.0222653
0.0226846
0.0231437
0.0236385
0.0241736
0.0247158
0.0252744
0.0258319
0.0263443
0.026822
0.027363
0.027927
0.0284961
0.0290943
0.0296988
0.0302888
0.0308807
0.0315107
0.0321542
0.0328297
0.033497
0.0341935
0.0348789
0.0356017
0.0363527
0.0371097
0.0378841
0.0386733
0.0394983
0.0403282
0.0411549
0.0419953
0.0428085
0.0437045
0.0445899
0.0454858
0.0463783
0.0472429
0.048089
0.0488606
0.0495126
0.0500337
0.0186418
0.015505
0.00955851
0.0046943
0.00295292
0.0035464
0.00467914
0.00552605
0.00603392
0.00636789
0.00673077
0.00717538
0.0075259
0.00767998
0.00779036
0.00799801
0.00826471
0.00850072
0.00867317
0.0088631
0.00917184
0.00952937
0.00977817
0.00991782
0.0101063
0.0104311
0.0107773
0.0110153
0.0112149
0.0115121
0.011851
0.0121145
0.0123495
0.0126377
0.0129742
0.0133333
0.0137226
0.0141233
0.0145019
0.0148703
0.0152357
0.0155715
0.0158812
0.0161791
0.0164724
0.0168067
0.0171916
0.0175903
0.0179712
0.0183733
0.0188057
0.0192319
0.0196239
0.0200449
0.0205272
0.0209903
0.0214159
0.0218404
0.0222657
0.0226849
0.023144
0.0236388
0.024174
0.0247162
0.0252747
0.0258323
0.0263447
0.0268222
0.0273632
0.0279273
0.0284964
0.0290945
0.029699
0.030289
0.0308809
0.0315109
0.0321543
0.0328299
0.0334971
0.0341937
0.0348791
0.0356018
0.0363529
0.0371099
0.0378842
0.0386734
0.0394984
0.0403284
0.041155
0.0419954
0.0428086
0.0437046
0.04459
0.045486
0.0463784
0.0472431
0.0480892
0.048861
0.0495132
0.0500336
0.0180089
0.0152652
0.00974996
0.00506493
0.00323339
0.00366682
0.00472613
0.00556217
0.00607442
0.00640958
0.00676497
0.00719528
0.00753526
0.00768964
0.00780529
0.0080137
0.00827608
0.00850961
0.00868461
0.00887686
0.00918221
0.00953386
0.00978148
0.009925
0.0101157
0.010438
0.0107813
0.0110197
0.0112209
0.0115175
0.0118549
0.0121179
0.0123528
0.0126405
0.0129762
0.0133348
0.0137236
0.0141238
0.0145024
0.0148712
0.015237
0.0155726
0.015882
0.01618
0.0164734
0.0168076
0.0171921
0.0175908
0.017972
0.0183741
0.0188063
0.0192324
0.0196245
0.0200456
0.0205278
0.0209909
0.0214165
0.021841
0.0222662
0.0226853
0.0231443
0.0236392
0.0241744
0.0247166
0.0252752
0.0258328
0.0263452
0.0268226
0.0273635
0.0279276
0.0284967
0.0290948
0.0296993
0.0302893
0.0308811
0.0315111
0.0321545
0.0328301
0.0334973
0.0341938
0.0348792
0.0356019
0.036353
0.03711
0.0378844
0.0386735
0.0394985
0.0403285
0.0411552
0.0419956
0.0428087
0.0437047
0.0445902
0.0454861
0.0463786
0.0472433
0.0480895
0.0488616
0.0495141
0.0500335
0.0173953
0.0150054
0.00992157
0.00543312
0.00352926
0.00380049
0.00477622
0.00559842
0.00611673
0.00645421
0.00680178
0.00721684
0.00754541
0.00769975
0.00782078
0.00803003
0.00828793
0.00851897
0.00869694
0.00889202
0.00919393
0.00953913
0.00978522
0.00993281
0.010126
0.0104455
0.0107854
0.0110245
0.0112277
0.0115238
0.0118593
0.0121219
0.0123571
0.0126442
0.012979
0.0133368
0.0137249
0.0141242
0.0145027
0.014872
0.0152382
0.0155738
0.015883
0.0161812
0.0164749
0.0168088
0.0171928
0.0175914
0.0179729
0.018375
0.0188069
0.0192329
0.0196252
0.0200463
0.0205284
0.0209914
0.0214173
0.0218417
0.0222668
0.0226857
0.0231447
0.0236395
0.0241747
0.024717
0.0252756
0.0258333
0.0263458
0.026823
0.0273639
0.027928
0.0284971
0.0290953
0.0296997
0.0302897
0.0308814
0.0315113
0.0321548
0.0328304
0.0334975
0.034194
0.0348794
0.0356021
0.0363532
0.0371101
0.0378845
0.0386737
0.0394987
0.0403287
0.0411553
0.0419957
0.0428088
0.0437048
0.0445903
0.0454862
0.0463789
0.0472435
0.0480899
0.0488624
0.0495153
0.0500335
0.0168057
0.0147294
0.0100719
0.00579631
0.00383945
0.00394873
0.00483011
0.00563406
0.00616008
0.00650169
0.00684141
0.00724017
0.00755634
0.00771026
0.00783684
0.00804702
0.00830027
0.00852862
0.00870974
0.00890803
0.00920664
0.00954515
0.00978944
0.00994109
0.0101369
0.0104533
0.0107897
0.0110296
0.0112352
0.0115306
0.011864
0.0121264
0.0123622
0.0126488
0.0129826
0.0133395
0.0137265
0.0141248
0.0145029
0.0148724
0.0152391
0.0155748
0.0158841
0.0161827
0.0164768
0.0168106
0.0171938
0.0175921
0.0179739
0.0183761
0.0188075
0.0192333
0.019626
0.0200471
0.0205289
0.020992
0.0214181
0.0218426
0.0222676
0.0226864
0.0231453
0.02364
0.0241751
0.0247173
0.025276
0.0258339
0.0263464
0.0268236
0.0273643
0.0279285
0.0284976
0.0290958
0.0297001
0.0302901
0.0308818
0.0315117
0.0321551
0.0328307
0.0334978
0.0341943
0.0348796
0.0356023
0.0363534
0.0371103
0.0378847
0.0386738
0.0394989
0.0403289
0.0411555
0.0419959
0.0428089
0.0437049
0.0445905
0.0454864
0.0463792
0.0472438
0.0480903
0.0488635
0.0495169
0.0500336
0.0162439
0.014443
0.0102006
0.0061507
0.00416082
0.00411201
0.00488855
0.00566854
0.00620365
0.00655176
0.00688391
0.00726531
0.0075681
0.00772133
0.00785364
0.00806487
0.00831319
0.00853852
0.00872281
0.00892462
0.0092201
0.00955176
0.00979404
0.00994973
0.0101482
0.0104615
0.0107941
0.0110349
0.0112429
0.0115377
0.0118689
0.012131
0.0123677
0.012654
0.0129868
0.0133427
0.0137285
0.0141255
0.014503
0.0148726
0.0152396
0.0155755
0.0158849
0.0161843
0.0164793
0.0168128
0.0171952
0.0175931
0.0179752
0.0183774
0.0188082
0.0192338
0.0196268
0.0200479
0.0205292
0.0209923
0.0214188
0.0218435
0.0222685
0.0226873
0.0231462
0.0236406
0.0241755
0.0247175
0.0252762
0.0258343
0.026347
0.0268241
0.0273649
0.027929
0.0284983
0.0290964
0.0297006
0.0302906
0.0308824
0.0315122
0.0321556
0.0328312
0.0334982
0.0341946
0.0348799
0.0356025
0.0363536
0.0371105
0.0378848
0.038674
0.039499
0.0403291
0.0411556
0.041996
0.0428091
0.0437051
0.0445907
0.0454866
0.0463795
0.0472442
0.0480909
0.0488649
0.0495189
0.0500338
0.0157124
0.0141521
0.0103077
0.00649169
0.00448913
0.0042903
0.00495254
0.00570152
0.00624645
0.00660389
0.00692917
0.00729237
0.00758088
0.00773317
0.00787141
0.00808376
0.00832686
0.00854878
0.00873615
0.00894169
0.00923411
0.00955879
0.00979889
0.00995867
0.0101599
0.0104702
0.0107989
0.0110405
0.011251
0.0115451
0.0118739
0.0121358
0.0123734
0.0126597
0.0129916
0.0133464
0.0137308
0.0141265
0.0145031
0.0148726
0.0152398
0.0155757
0.0158856
0.016186
0.0164821
0.0168155
0.0171969
0.0175943
0.0179768
0.0183789
0.018809
0.0192343
0.0196278
0.0200488
0.0205294
0.0209923
0.0214193
0.0218442
0.0222693
0.0226884
0.0231474
0.0236417