/*--------------------------------*- C++ -*----------------------------------*\
| =========                 |                                                 |
| \\      /  F ield         | OpenFOAM: The Open Source CFD Toolbox           |
|  \\    /   O peration     | Version:  v1906                                 |
|   \\  /    A nd           | Web:      www.OpenFOAM.com                      |
|    \\/     M anipulation  |                                                 |
\*---------------------------------------------------------------------------*/
FoamFile
{
    version     2.0;
    format      ascii;
    class       volVectorField;
    location    "7.5";
    object      U;
}
// * * * * * * * * * * * * * * * * * * * * * * * * * * * * * * * * * * * * * //

dimensions      [0 1 -1 0 0 0 0];


internalField   nonuniform List<vector> 
9600
(
(0.635411 -8.1716e-05 0)
(1.32798 0.00701503 0)
(0.574251 -0.0219038 0)
(1.39798 -0.0146643 0)
(0.882758 0.000324719 0)
(1.24934 0.0198148 0)
(0.764126 0.000791788 0)
(1.2028 -0.0045741 0)
(0.768589 -0.0233368 0)
(1.27837 -0.0190977 0)
(0.807281 -0.012614 0)
(1.22942 -0.00137823 0)
(0.839609 -0.00497907 0)
(1.21244 0.00296976 0)
(0.887648 -0.00228496 0)
(1.19023 0.00377945 0)
(0.903413 0.000225588 0)
(1.15954 0.00270623 0)
(0.881746 0.00198765 0)
(1.13404 0.00331224 0)
(0.654219 -3.93779e-05 0)
(1.30895 0.00788942 0)
(0.612342 -0.0231293 0)
(1.3697 -0.0171038 0)
(0.897387 0.00116322 0)
(1.2317 0.0210109 0)
(0.824826 0.000999967 0)
(1.18128 -0.00418455 0)
(0.835075 -0.0250768 0)
(1.24962 -0.0192889 0)
(0.856595 -0.0122631 0)
(1.19963 -0.00149334 0)
(0.891039 -0.00507458 0)
(1.17525 0.0022814 0)
(0.949336 -0.00197793 0)
(1.14105 0.00335226 0)
(0.982812 0.00117328 0)
(1.08845 0.00283297 0)
(0.989758 0.00393986 0)
(1.02369 0.00325198 0)
(0.690486 3.94128e-05 0)
(1.27251 0.00850745 0)
(0.668022 -0.023938 0)
(1.31411 -0.0189762 0)
(0.926833 0.00216905 0)
(1.19894 0.022109 0)
(0.903746 0.0012745 0)
(1.15288 -0.00410164 0)
(0.903271 -0.0259854 0)
(1.19653 -0.0192507 0)
(0.923915 -0.0117743 0)
(1.14953 -0.00177545 0)
(0.960022 -0.00490394 0)
(1.12344 0.00134114 0)
(1.01577 -0.0013564 0)
(1.0952 0.00275566 0)
(1.04033 0.00233572 0)
(1.05656 0.00294267 0)
(1.02885 0.00530412 0)
(1.01583 0.004509 0)
(0.740358 0.000133436 0)
(1.22284 0.00891355 0)
(0.736336 -0.0245109 0)
(1.23537 -0.0207343 0)
(0.962865 0.00290301 0)
(1.16209 0.0224485 0)
(0.980982 0.00156395 0)
(1.12622 -0.00392047 0)
(0.962659 -0.0263998 0)
(1.13421 -0.0194635 0)
(0.980465 -0.0112388 0)
(1.09958 -0.00223297 0)
(1.01105 -0.00462647 0)
(1.0847 0.000399493 0)
(1.05285 -0.000934949 0)
(1.07671 0.0023668 0)
(1.06289 0.00304664 0)
(1.05756 0.00341194 0)
(1.041 0.00636272 0)
(1.02749 0.005978 0)
(0.798116 0.000259091 0)
(1.16682 0.00916304 0)
(0.805864 -0.0246834 0)
(1.1454 -0.0224144 0)
(0.994561 0.00316251 0)
(1.13232 0.0222366 0)
(1.04505 0.0018624 0)
(1.10927 -0.0035768 0)
(1.00365 -0.0261715 0)
(1.07962 -0.0196777 0)
(1.0111 -0.0108199 0)
(1.06396 -0.00268058 0)
(1.03473 -0.00453478 0)
(1.06468 -0.000367813 0)
(1.06536 -0.000896203 0)
(1.07389 0.00215064 0)
(1.0711 0.00344161 0)
(1.06488 0.00397015 0)
(1.05095 0.00739263 0)
(1.03771 0.00738496 0)
(0.856529 0.000407083 0)
(1.11355 0.00927902 0)
(0.866266 -0.0244697 0)
(1.06062 -0.0239087 0)
(1.01434 0.00286619 0)
(1.11566 0.0216555 0)
(1.09115 0.00209048 0)
(1.10363 -0.00297432 0)
(1.02735 -0.0253714 0)
(1.0421 -0.0197434 0)
(1.01876 -0.0106418 0)
(1.04277 -0.00311056 0)
(1.03993 -0.00467356 0)
(1.05514 -0.00102737 0)
(1.06611 -0.00112466 0)
(1.07356 0.00190236 0)
(1.0744 0.00367727 0)
(1.07005 0.00447217 0)
(1.05913 0.00832114 0)
(1.04669 0.00876539 0)
(0.908337 0.00054001 0)
(1.07136 0.00932951 0)
(0.912596 -0.0239206 0)
(0.995522 -0.025136 0)
(1.02058 0.00192401 0)
(1.11051 0.020731 0)
(1.11962 0.00226989 0)
(1.10466 -0.00210441 0)
(1.03953 -0.0240987 0)
(1.02081 -0.0195739 0)
(1.01423 -0.0106556 0)
(1.02982 -0.00359099 0)
(1.03691 -0.00497844 0)
(1.0488 -0.00169502 0)
(1.06221 -0.00150786 0)
(1.07098 0.00153869 0)
(1.07407 0.00377348 0)
(1.07169 0.00486115 0)
(1.06371 0.0090769 0)
(1.05316 0.0100916 0)
(0.948267 0.000612608 0)
(1.04416 0.00938703 0)
(0.945702 -0.0231315 0)
(0.956541 -0.0260818 0)
(1.01674 0.000303697 0)
(1.11024 0.0194808 0)
(1.13273 0.00243816 0)
(1.10587 -0.00104008 0)
(1.04505 -0.0224826 0)
(1.01007 -0.0191677 0)
(1.00653 -0.0107419 0)
(1.02035 -0.0041559 0)
(1.03094 -0.0053988 0)
(1.04242 -0.00239486 0)
(1.05598 -0.00197251 0)
(1.06546 0.00108556 0)
(1.07008 0.00371901 0)
(1.06937 0.00512525 0)
(1.06413 0.00965745 0)
(1.05586 0.0112937 0)
(0.974431 0.000596971 0)
(1.03043 0.00946091 0)
(0.969205 -0.0222005 0)
(0.940758 -0.0267491 0)
(1.00816 -0.00173229 0)
(1.10816 0.0179778 0)
(1.13288 0.00261109 0)
(1.10263 0.000101896 0)
(1.04628 -0.020669 0)
(1.00482 -0.0185734 0)
(0.999947 -0.0108086 0)
(1.01244 -0.00477538 0)
(1.02361 -0.00587964 0)
(1.03473 -0.00310419 0)
(1.04776 -0.00247011 0)
(1.0572 0.000590645 0)
(1.06263 0.00353695 0)
(1.06315 0.00529181 0)
(1.06035 0.0100709 0)
(1.05443 0.0123093 0)
(0.98841 0.000494684 0)
(1.02525 0.00951381 0)
(0.986346 -0.0212082 0)
(0.94023 -0.0271321 0)
(0.998906 -0.00386878 0)
(1.10034 0.0163397 0)
(1.1224 0.00281675 0)
(1.09331 0.00120178 0)
(1.04409 -0.018808 0)
(1.0022 -0.0178659 0)
(0.995544 -0.0108078 0)
(1.00562 -0.00537058 0)
(1.01545 -0.00635687 0)
(1.02543 -0.00379611 0)
(1.03762 -0.00297118 0)
(1.04661 8.79958e-05 0)
(1.05232 0.0032735 0)
(1.05364 0.00538604 0)
(1.05282 0.0103227 0)
(1.04916 0.0131036 0)
(0.993988 0.000335084 0)
(1.0235 0.00949629 0)
(0.998767 -0.0202239 0)
(0.94735 -0.0272392 0)
(0.990568 -0.00591165 0)
(1.08573 0.0147075 0)
(1.10399 0.00305374 0)
(1.07877 0.00215579 0)
(1.03908 -0.0170415 0)
(1.00091 -0.0171261 0)
(0.993029 -0.0107162 0)
(0.999968 -0.00586488 0)
(1.00722 -0.00677042 0)
(1.01519 -0.00443403 0)
(1.02618 -0.00346138 0)
(1.03451 -0.000403302 0)
(1.04015 0.00296285 0)
(1.042 0.00541732 0)
(1.04264 0.0104291 0)
(1.04099 0.0136722 0)
(0.995244 0.000158862 0)
(1.02195 0.00937726 0)
(1.00705 -0.0193082 0)
(0.95711 -0.0271115 0)
(0.983386 -0.00765846 0)
(1.06566 0.0132118 0)
(1.08112 0.00327974 0)
(1.06149 0.0028823 0)
(1.03221 -0.0154819 0)
(1.00027 -0.016428 0)
(0.991822 -0.0105309 0)
(0.995704 -0.00621785 0)
(0.999998 -0.00707306 0)
(1.0054 -0.00497414 0)
(1.01479 -0.00392905 0)
(1.02218 -0.000879766 0)
(1.02752 0.00262058 0)
(1.02971 0.0053865 0)
(1.03138 0.010416 0)
(1.03138 0.0140247 0)
(0.99511 -5.07105e-06 0)
(1.01958 0.00917286 0)
(1.01175 -0.0184953 0)
(0.966684 -0.0268064 0)
(0.977612 -0.00900587 0)
(1.04337 0.0119223 0)
(1.05782 0.00345729 0)
(1.0444 0.00334132 0)
(1.02475 -0.0141875 0)
(0.999813 -0.0158241 0)
(0.991407 -0.0102709 0)
(0.992965 -0.00643077 0)
(0.99474 -0.00725122 0)
(0.997492 -0.00538082 0)
(1.00496 -0.00434514 0)
(1.01106 -0.00130904 0)
(1.01584 0.00226195 0)
(1.0182 0.0052917 0)
(1.02058 0.0103126 0)
(1.02182 0.0141824 0)
(0.995 -0.000142192 0)
(1.01667 0.00891319 0)
(1.01378 -0.0177938 0)
(0.974623 -0.0263833 0)
(0.97371 -0.00994574 0)
(1.02284 0.0108473 0)
(1.03766 0.00354156 0)
(1.02987 0.00353291 0)
(1.0179 -0.0131578 0)
(0.999242 -0.0153369 0)
(0.99139 -0.00997168 0)
(0.991611 -0.00653646 0)
(0.991771 -0.00732116 0)
(0.992239 -0.00564326 0)
(0.997721 -0.00467844 0)
(1.0022 -0.00166394 0)
(1.00616 0.00190897 0)
(1.00845 0.00513668 0)
(1.01127 0.0101511 0)
(1.01335 0.0141836 0)
(0.995259 -0.000248477 0)
(1.01379 0.00861618 0)
(1.01424 -0.0171905 0)
(0.980459 -0.0258911 0)
(0.971826 -0.0105326 0)
(1.00693 0.00995715 0)
(1.02256 0.00351991 0)
(1.01899 0.00350189 0)
(1.01239 -0.0123431 0)
(0.998482 -0.0149569 0)
(0.991495 -0.00967444 0)
(0.991243 -0.00657525 0)
(0.990706 -0.00732108 0)
(0.989522 -0.00577524 0)
(0.993251 -0.00490662 0)
(0.996007 -0.00193902 0)
(0.998884 0.00159572 0)
(1.00084 0.00494147 0)
(1.00381 0.00995962 0)
(1.00637 0.0140727 0)
(0.995769 -0.000330081 0)
(1.01134 0.00830422 0)
(1.01394 -0.0166566 0)
(0.984406 -0.0253634 0)
(0.971558 -0.0108517 0)
(0.996408 0.00920708 0)
(1.01258 0.0034219 0)
(1.01164 0.00331411 0)
(1.00838 -0.0116791 0)
(0.997639 -0.0146576 0)
(0.991573 -0.00940596 0)
(0.991382 -0.00658579 0)
(0.990782 -0.00729066 0)
(0.988605 -0.00580205 0)
(0.991015 -0.00502725 0)
(0.992199 -0.00211495 0)
(0.99388 0.00136116 0)
(0.995247 0.00474094 0)
(0.998082 0.00975379 0)
(1.0008 0.0138909 0)
(0.99634 -0.000392252 0)
(1.00941 0.0079864 0)
(1.01335 -0.0161683 0)
(0.98698 -0.0248197 0)
(0.972243 -0.0109866 0)
(0.990341 0.00855412 0)
(1.00655 0.00327096 0)
(1.00699 0.00302565 0)
(1.00565 -0.0111126 0)
(0.996882 -0.0144077 0)
(0.991589 -0.00918043 0)
(0.991655 -0.00658627 0)
(0.991277 -0.00725823 0)
(0.988612 -0.00575744 0)
(0.990181 -0.00504723 0)
(0.990149 -0.00219401 0)
(0.990686 0.00122797 0)
(0.991344 0.00457012 0)
(0.993812 0.00954347 0)
(0.996433 0.013679 0)
(0.996843 -0.000439487 0)
(1.00799 0.00766368 0)
(1.01265 -0.0157053 0)
(0.988676 -0.0242732 0)
(0.973309 -0.0110048 0)
(0.987218 0.00796155 0)
(1.00304 0.00309708 0)
(1.00413 0.00268082 0)
(1.00383 -0.0106075 0)
(0.996337 -0.0141762 0)
(0.991584 -0.00900139 0)
(0.991868 -0.00658631 0)
(0.991744 -0.00723323 0)
(0.988887 -0.00566048 0)
(0.989993 -0.00499117 0)
(0.989169 -0.00220271 0)
(0.988752 0.0011931 0)
(0.988738 0.00444999 0)
(0.990736 0.00933587 0)
(0.993116 0.0134693 0)
(0.997218 -0.000475716 0)
(1.00701 0.00733696 0)
(1.01191 -0.0152568 0)
(0.989838 -0.0237302 0)
(0.974409 -0.010948 0)
(0.985761 0.00740772 0)
(1.00097 0.00291018 0)
(1.00238 0.00230111 0)
(1.00261 -0.0101435 0)
(0.99604 -0.0139462 0)
(0.991607 -0.00885969 0)
(0.991973 -0.00658458 0)
(0.99201 -0.00721823 0)
(0.989095 -0.00553362 0)
(0.989958 -0.00487725 0)
(0.988721 -0.00216232 0)
(0.987599 0.00124169 0)
(0.987078 0.00439213 0)
(0.988637 0.00913456 0)
(0.990745 0.0132693 0)
(0.997439 -0.00050358 0)
(1.0064 0.00700596 0)
(1.01116 -0.0148143 0)
(0.990672 -0.0231929 0)
(0.975383 -0.0108419 0)
(0.985177 0.00687775 0)
(0.999694 0.00271343 0)
(1.00132 0.00190116 0)
(1.00177 -0.00970826 0)
(0.995961 -0.01371 0)
(0.991687 -0.00874533 0)
(0.991991 -0.00656485 0)
(0.992072 -0.00721001 0)
(0.989157 -0.00540584 0)
(0.989866 -0.00471984 0)
(0.988494 -0.00209251 0)
(0.986898 0.00134817 0)
(0.986079 0.0043981 0)
(0.987322 0.00894176 0)
(0.989214 0.0130655 0)
(0.997502 -0.000525679 0)
(1.0061 0.0066696 0)
(1.01042 -0.0143698 0)
(0.991305 -0.0226578 0)
(0.976191 -0.0107043 0)
(0.985062 0.00636203 0)
(0.998879 0.00250597 0)
(1.0007 0.00149347 0)
(1.00117 -0.00930039 0)
(0.996035 -0.0134561 0)
(0.991826 -0.00865113 0)
(0.991967 -0.00652567 0)
(0.991999 -0.00719686 0)
(0.989123 -0.00527897 0)
(0.989701 -0.00453806 0)
(0.988376 -0.00200683 0)
(0.986485 0.00148028 0)
(0.985551 0.00445226 0)
(0.986627 0.00875804 0)
(0.988395 0.0128486 0)
(0.99742 -0.000543839 0)
(1.00602 0.00632542 0)
(1.00971 -0.0139182 0)
(0.991813 -0.0221224 0)
(0.976871 -0.0105442 0)
(0.985226 0.00585429 0)
(0.998376 0.00228605 0)
(1.00036 0.00108142 0)
(1.00073 -0.0089143 0)
(0.996196 -0.0131811 0)
(0.992017 -0.00856912 0)
(0.99194 -0.0064709 0)
(0.991869 -0.00717343 0)
(0.989068 -0.00515424 0)
(0.989529 -0.00432787 0)
(0.988358 -0.00191213 0)
(0.986301 0.00161988 0)
(0.985378 0.00453255 0)
(0.986418 0.0085747 0)
(0.988145 0.0126195 0)
(0.997232 -0.00055816 0)
(1.00607 0.00597176 0)
(1.00904 -0.0134587 0)
(0.992239 -0.0215843 0)
(0.977491 -0.0103722 0)
(0.985572 0.00534892 0)
(0.99809 0.00205236 0)
(1.00018 0.000664584 0)
(1.00038 -0.00854525 0)
(0.996387 -0.0128881 0)
(0.992256 -0.00848888 0)
(0.991938 -0.0064023 0)
(0.991746 -0.00713253 0)
(0.989046 -0.0050364 0)
(0.989411 -0.00409956 0)
(0.98845 -0.00182209 0)
(0.986328 0.00175047 0)
(0.985479 0.00462463 0)
(0.98658 0.00837433 0)
(0.988317 0.0123662 0)
(0.996992 -0.000568715 0)
(1.00614 0.00560771 0)
(1.00841 -0.0129902 0)
(0.992601 -0.0210406 0)
(0.978113 -0.010193 0)
(0.986026 0.00484586 0)
(0.997953 0.00180293 0)
(1.00005 0.000257898 0)
(1.00008 -0.0081949 0)
(0.996571 -0.0125781 0)
(0.992539 -0.00840513 0)
(0.991975 -0.00631825 0)
(0.991671 -0.00707726 0)
(0.989083 -0.00492452 0)
(0.989378 -0.00385993 0)
(0.988643 -0.00173144 0)
(0.986533 0.00186176 0)
(0.985768 0.00472531 0)
(0.986995 0.00815241 0)
(0.988766 0.0120526 0)
(0.996764 -0.000575542 0)
(1.00617 0.00523417 0)
(1.00782 -0.0125124 0)
(0.9929 -0.0204906 0)
(0.978769 -0.0100113 0)
(0.986524 0.00434263 0)
(0.99791 0.00154348 0)
(0.999911 -0.000135505 0)
(0.999789 -0.00786057 0)
(0.996731 -0.0122559 0)
(0.992857 -0.00832138 0)
(0.992052 -0.00621914 0)
(0.991663 -0.00700272 0)
(0.989185 -0.00482411 0)
(0.989437 -0.00361075 0)
(0.988908 -0.00163811 0)
(0.986874 0.00194645 0)
(0.986162 0.00483445 0)
(0.987545 0.00792832 0)
(0.989362 0.01165 0)
(0.9966 -0.000578218 0)
(1.00612 0.00485205 0)
(1.00728 -0.0120283 0)
(0.993139 -0.0199307 0)
(0.979462 -0.0098313 0)
(0.98702 0.00383624 0)
(0.997925 0.00126982 0)
(0.999744 -0.000525383 0)
(0.999504 -0.00754007 0)
(0.996861 -0.0119231 0)
(0.993201 -0.00824084 0)
(0.99216 -0.00610968 0)
(0.991722 -0.00690599 0)
(0.989346 -0.004738 0)
(0.989581 -0.00335442 0)
(0.989218 -0.00154057 0)
(0.987311 0.00198767 0)
(0.986601 0.00494326 0)
(0.988139 0.00774001 0)
(0.990006 0.0111743 0)
(0.996528 -0.000575074 0)
(1.00597 0.0044612 0)
(1.00679 -0.0115432 0)
(0.993332 -0.0193576 0)
(0.98018 -0.00965192 0)
(0.98749 0.00333544 0)
(0.997965 0.000985598 0)
(0.99955 -0.000906381 0)
(0.999217 -0.00723381 0)
(0.996963 -0.0115749 0)
(0.993554 -0.00816338 0)
(0.992288 -0.00599227 0)
(0.991833 -0.00678963 0)
(0.989555 -0.00466112 0)
(0.989795 -0.00310267 0)
(0.989553 -0.0014218 0)
(0.987813 0.001975 0)
(0.987057 0.00501716 0)
(0.988723 0.00760741 0)
(0.990638 0.0106838 0)
(0.996547 -0.000565496 0)
(1.00573 0.00406434 0)
(1.00635 -0.0110567 0)
(0.993505 -0.0187736 0)
(0.980906 -0.00948178 0)
(0.987926 0.00284168 0)
(0.998005 0.000696475 0)
(0.999338 -0.0012729 0)
(0.998919 -0.00694934 0)
(0.997037 -0.0112155 0)
(0.993902 -0.00808826 0)
(0.992426 -0.00586791 0)
(0.991974 -0.00664521 0)
(0.9898 -0.00459099 0)
(0.990062 -0.00286367 0)
(0.9899 -0.00128814 0)
(0.988358 0.0019269 0)
(0.987527 0.00502529 0)
(0.989281 0.00750012 0)
(0.991229 0.0102326 0)
(0.996636 -0.000552673 0)
(1.00545 0.00367015 0)
(1.00595 -0.0105747 0)
(0.993684 -0.0181732 0)
(0.981631 -0.00932257 0)
(0.988334 0.00235328 0)
(0.998021 0.000399361 0)
(0.999117 -0.00162889 0)
(0.998605 -0.00668678 0)
(0.997082 -0.0108503 0)
(0.994232 -0.00802011 0)
(0.992565 -0.00573737 0)
(0.992125 -0.00646963 0)
(0.990069 -0.00452221 0)
(0.990364 -0.00263736 0)
(0.990252 -0.00114209 0)
(0.988926 0.00187754 0)
(0.988014 0.00497983 0)
(0.989817 0.00737247 0)
(0.991778 0.00982772 0)
(0.996766 -0.000535582 0)
(1.00515 0.00327426 0)
(1.00557 -0.0101066 0)
(0.993886 -0.0175525 0)
(0.982355 -0.00916541 0)
(0.988723 0.00186883 0)
(0.997999 9.84527e-05 0)
(0.998891 -0.00197727 0)
(0.998275 -0.00644647 0)
(0.997096 -0.010475 0)
(0.99454 -0.0079564 0)
(0.992702 -0.00561158 0)
(0.992267 -0.00627087 0)
(0.990353 -0.00445364 0)
(0.990682 -0.00243104 0)
(0.990606 -0.000980296 0)
(0.9895 0.00183592 0)
(0.988512 0.00491047 0)
(0.990332 0.00721571 0)
(0.99229 0.00944039 0)
(0.996907 -0.000513486 0)
(1.00486 0.00287844 0)
(1.0052 -0.00965205 0)
(0.994114 -0.0169178 0)
(0.983084 -0.00900643 0)
(0.989107 0.00138415 0)
(0.997942 -0.000200588 0)
(0.998666 -0.00230989 0)
(0.997934 -0.00623231 0)
(0.997079 -0.0100896 0)
(0.994821 -0.00788953 0)
(0.992837 -0.0054956 0)
(0.992391 -0.00605554 0)
(0.990643 -0.00438496 0)
(0.991006 -0.00224393 0)
(0.990956 -0.000809233 0)
(0.990067 0.00178443 0)
(0.989019 0.0048214 0)
(0.990823 0.00705253 0)
(0.99277 0.00905501 0)
(0.997043 -0.000487889 0)
(1.00458 0.00249291 0)
(1.00484 -0.00921395 0)
(0.994359 -0.0162701 0)
(0.983822 -0.00884553 0)
(0.989499 0.000905066 0)
(0.997863 -0.000492949 0)
(0.998446 -0.00262484 0)
(0.997592 -0.00603909 0)
(0.997034 -0.00969863 0)
(0.995078 -0.00781406 0)
(0.99297 -0.00538569 0)
(0.992494 -0.00581694 0)
(0.990933 -0.00430552 0)
(0.991331 -0.00207354 0)
(0.991296 -0.000625024 0)
(0.990616 0.00172271 0)
(0.989535 0.00469371 0)
(0.991288 0.0068968 0)
(0.993213 0.00869096 0)
(0.997167 -0.000458453 0)
(1.00432 0.0021171 0)
(1.00447 -0.00879532 0)
(0.994609 -0.0156098 0)
(0.98457 -0.00868524 0)
(0.989907 0.000426901 0)
(0.997777 -0.000783161 0)
(0.998237 -0.0029189 0)
(0.997259 -0.00587149 0)
(0.996967 -0.00930819 0)
(0.995317 -0.0077283 0)
(0.993105 -0.00528786 0)
(0.992576 -0.00556449 0)
(0.991219 -0.00421832 0)
(0.991655 -0.00192945 0)
(0.991622 -0.000434788 0)
(0.991135 0.0016737 0)
(0.99006 0.00451839 0)
(0.991732 0.00672743 0)
(0.993612 0.00837168 0)
(0.99728 -0.000426448 0)
(1.00409 0.00175254 0)
(1.0041 -0.00839378 0)
(0.994851 -0.0149461 0)
(0.985325 -0.00851993 0)
(0.990332 -4.53546e-05 0)
(0.997699 -0.0010792 0)
(0.998043 -0.00319541 0)
(0.996946 -0.00573305 0)
(0.996883 -0.00893165 0)
(0.99554 -0.00763136 0)
(0.993243 -0.00520444 0)
(0.992643 -0.0053019 0)
(0.991496 -0.00411641 0)
(0.991981 -0.00181191 0)
(0.991938 -0.000241757 0)
(0.991616 0.00166077 0)
(0.990584 0.00431867 0)
(0.992165 0.00651592 0)
(0.993972 0.00808744 0)
(0.997385 -0.000391495 0)
(1.00387 0.0013973 0)
(1.00373 -0.00801002 0)
(0.99508 -0.014285 0)
(0.98608 -0.00834077 0)
(0.990772 -0.000503566 0)
(0.997635 -0.00137296 0)
(0.997866 -0.0034508 0)
(0.996655 -0.00560912 0)
(0.996787 -0.00856948 0)
(0.995752 -0.00752434 0)
(0.993391 -0.00512475 0)
(0.992703 -0.00502762 0)
(0.991761 -0.00399871 0)
(0.992311 -0.00172028 0)
(0.992247 -6.07791e-05 0)
(0.992058 0.00167683 0)
(0.991096 0.00412215 0)
(0.992593 0.00626269 0)
(0.994302 0.00780769 0)
(0.997486 -0.000355921 0)
(1.00366 0.00105781 0)
(1.00337 -0.00764123 0)
(0.995295 -0.013633 0)
(0.986827 -0.00814939 0)
(0.991222 -0.000954021 0)
(0.997588 -0.00166358 0)
(0.997706 -0.00367635 0)
(0.996389 -0.00549221 0)
(0.996681 -0.00821357 0)
(0.995955 -0.00740858 0)
(0.99355 -0.0050488 0)
(0.992756 -0.00474941 0)
(0.992011 -0.00387049 0)
(0.992645 -0.00165919 0)
(0.992554 9.36391e-05 0)
(0.992465 0.00170171 0)
(0.991586 0.00393119 0)
(0.993014 0.0059846 0)
(0.994616 0.00751179 0)
(0.997584 -0.000319547 0)
(1.00347 0.000732422 0)
(1.00302 -0.00728226 0)
(0.995499 -0.0129981 0)
(0.987559 -0.00795459 0)
(0.991672 -0.00138328 0)
(0.997556 -0.00195997 0)
(0.997564 -0.00388131 0)
(0.996145 -0.00538558 0)
(0.996567 -0.00786506 0)
(0.996148 -0.00728995 0)
(0.993726 -0.00498494 0)
(0.99281 -0.0044609 0)
(0.992242 -0.00371459 0)
(0.992982 -0.0016173 0)
(0.992862 0.00022548 0)
(0.992836 0.00174208 0)
(0.99205 0.00374726 0)
(0.993427 0.00569277 0)
(0.994922 0.00719481 0)
(0.997681 -0.00028117 0)
(1.00328 0.000416877 0)
(1.00268 -0.00693167 0)
(0.995694 -0.0123896 0)
(0.988273 -0.00774791 0)
(0.992118 -0.00179944 0)
(0.997536 -0.00226729 0)
(0.997439 -0.00406944 0)
(0.995924 -0.00528289 0)
(0.996444 -0.00752452 0)
(0.996327 -0.00717036 0)
(0.993921 -0.00493632 0)
(0.99287 -0.00417689 0)
(0.992451 -0.00353652 0)
(0.99332 -0.0016009 0)
(0.993176 0.000317895 0)
(0.993176 0.00180138 0)
(0.99248 0.0035824 0)
(0.993828 0.00538767 0)
(0.995231 0.00684755 0)
(0.997776 -0.000242068 0)
(1.00311 0.000119903 0)
(1.00236 -0.0065832 0)
(0.995884 -0.0118044 0)
(0.988964 -0.00753645 0)
(0.992553 -0.00218944 0)
(0.997527 -0.00258422 0)
(0.997332 -0.004253 0)
(0.995725 -0.00518171 0)
(0.996311 -0.00719094 0)
(0.996489 -0.00704366 0)
(0.994135 -0.00490447 0)
(0.992939 -0.00390205 0)
(0.992636 -0.00332463 0)
(0.993653 -0.00159727 0)
(0.993502 0.000360753 0)
(0.993493 0.00187098 0)
(0.992868 0.00345627 0)
(0.994206 0.00508519 0)
(0.995545 0.00645942 0)
(0.997871 -0.000203138 0)
(1.00294 -0.000161261 0)
(1.00205 -0.00623842 0)
(0.99607 -0.0112335 0)
(0.989635 -0.00733434 0)
(0.992975 -0.00252441 0)
(0.997523 -0.00288991 0)
(0.997245 -0.00442594 0)
(0.99555 -0.00509116 0)
(0.996171 -0.00685906 0)
(0.996629 -0.006902 0)
(0.994369 -0.00489691 0)
(0.993028 -0.00364551 0)
(0.992794 -0.00307535 0)
(0.993972 -0.001587 0)
(0.993844 0.000348785 0)
(0.993798 0.00192469 0)
(0.99321 0.00337169 0)
(0.994544 0.0048148 0)
(0.995855 0.00604965 0)
(0.997965 -0.000164946 0)
(1.00278 -0.000430581 0)
(1.00177 -0.00590623 0)
(0.996251 -0.0106756 0)
(0.990286 -0.00714434 0)
(0.993382 -0.00281712 0)
(0.997524 -0.00318316 0)
(0.997176 -0.0045895 0)
(0.9954 -0.00500986 0)
(0.996027 -0.00652123 0)
(0.996744 -0.00673516 0)
(0.99462 -0.00490777 0)
(0.993143 -0.00342168 0)
(0.992929 -0.00281249 0)
(0.994264 -0.00155863 0)
(0.9942 0.000284617 0)
(0.994106 0.00193717 0)
(0.993517 0.00330902 0)
(0.994833 0.00458768 0)
(0.99614 0.00565958 0)
(0.998058 -0.000128927 0)
(1.00262 -0.000680778 0)
(1.0015 -0.00559885 0)
(0.996426 -0.010113 0)
(0.990915 -0.00698161 0)
(0.993776 -0.00307939 0)
(0.997528 -0.00345051 0)
(0.997129 -0.00476473 0)
(0.995279 -0.00493503 0)
(0.995882 -0.00618657 0)
(0.996832 -0.00653798 0)
(0.994884 -0.00492926 0)
(0.993288 -0.00324239 0)
(0.993046 -0.00253861 0)
(0.994522 -0.00149993 0)
(0.994562 0.00018603 0)
(0.994427 0.00190396 0)
(0.9938 0.00325403 0)
(0.995075 0.00439048 0)
(0.99638 0.00531591 0)
(0.99815 -9.68932e-05 0)
(1.00248 -0.000907367 0)
(1.00126 -0.00532442 0)
(0.996595 -0.00953797 0)
(0.991522 -0.00684056 0)
(0.994159 -0.00332042 0)
(0.997533 -0.00367191 0)
(0.9971 -0.00493632 0)
(0.99519 -0.00488208 0)
(0.99574 -0.00586505 0)
(0.99689 -0.0063138 0)
(0.995156 -0.00495035 0)
(0.993473 -0.00311211 0)
(0.993155 -0.00226713 0)
(0.994738 -0.00141137 0)
(0.994921 6.93596e-05 0)
(0.99477 0.0018182 0)
(0.994069 0.00320123 0)
(0.995276 0.00420776 0)
(0.996564 0.00501531 0)
(0.998241 -6.82204e-05 0)
(1.00234 -0.00111042 0)
(1.00105 -0.00508365 0)
(0.996757 -0.00895083 0)
(0.992103 -0.00671433 0)
(0.994534 -0.00354914 0)
(0.997541 -0.00385093 0)
(0.99709 -0.00508492 0)
(0.995137 -0.00485259 0)
(0.995606 -0.00555248 0)
(0.996919 -0.00605661 0)
(0.995432 -0.00495072 0)
(0.993698 -0.00302368 0)
(0.993266 -0.00202132 0)
(0.994908 -0.00129398 0)
(0.995262 -3.76203e-05 0)
(0.995139 0.00166991 0)
(0.994336 0.00313697 0)
(0.995438 0.0040463 0)
(0.996695 0.00473885 0)
(0.99833 -4.7487e-05 0)
(1.00222 -0.0012796 0)
(1.00086 -0.00488419 0)
(0.996911 -0.00835432 0)
(0.992655 -0.00658538 0)
(0.994906 -0.00377614 0)
(0.997554 -0.00398391 0)
(0.997095 -0.00520567 0)
(0.995121 -0.00484117 0)
(0.995489 -0.00525681 0)
(0.996919 -0.00575715 0)
(0.995703 -0.00491746 0)
(0.993965 -0.00297834 0)
(0.99339 -0.00181773 0)
(0.99504 -0.0011578 0)
(0.99557 -0.000119949 0)
(0.995529 0.00146472 0)
(0.99462 0.00302379 0)
(0.995568 0.00391733 0)
(0.996781 0.00447477 0)
(0.998419 -3.48953e-05 0)
(1.00209 -0.00141343 0)
(1.00071 -0.00472414 0)
(0.997062 -0.00776349 0)
(0.993172 -0.00643516 0)
(0.995275 -0.0040134 0)
(0.997575 -0.00408104 0)
(0.997112 -0.00528962 0)
(0.995144 -0.00484325 0)
(0.995399 -0.00500216 0)
(0.996893 -0.00543672 0)
(0.995957 -0.00483956 0)
(0.994268 -0.00295982 0)
(0.99354 -0.00166466 0)
(0.995144 -0.00102252 0)
(0.995835 -0.000174819 0)
(0.995928 0.00123592 0)
(0.994941 0.00282811 0)
(0.995679 0.00380113 0)
(0.996825 0.00423185 0)
(0.998506 -3.07604e-05 0)
(1.00198 -0.00151296 0)
(1.00058 -0.00459685 0)
(0.997212 -0.00720231 0)
(0.99365 -0.00623966 0)
(0.99564 -0.00425804 0)
(0.997611 -0.00416132 0)
(0.997139 -0.0053036 0)
(0.995201 -0.00484557 0)
(0.995344 -0.00479677 0)
(0.996853 -0.00512731 0)
(0.996188 -0.00471813 0)
(0.994597 -0.00296277 0)
(0.993719 -0.0015606 0)
(0.995231 -0.000903891 0)
(0.996055 -0.000202143 0)
(0.996312 0.00102562 0)
(0.995306 0.00256401 0)
(0.9958 0.00365964 0)
(0.99683 0.00402922 0)
(0.998593 -3.7875e-05 0)
(1.00186 -0.00157485 0)
(1.00048 -0.00449437 0)
(0.997368 -0.00668222 0)
(0.994086 -0.00598674 0)
(0.995997 -0.00448857 0)
(0.997671 -0.0042356 0)
(0.997177 -0.00525324 0)
(0.995284 -0.00483013 0)
(0.995325 -0.00463369 0)
(0.996812 -0.00483448 0)
(0.996395 -0.00456295 0)
(0.994941 -0.00296896 0)
(0.993934 -0.00149976 0)
(0.995311 -0.000801143 0)
(0.996237 -0.000219933 0)
(0.996668 0.000839021 0)
(0.995701 0.0022661 0)
(0.995957 0.00346264 0)
(0.996806 0.00386206 0)
(0.998678 -5.52411e-05 0)
(1.00175 -0.00160388 0)
(1.00041 -0.00440733 0)
(0.997535 -0.00621698 0)
(0.994478 -0.00568841 0)
(0.996338 -0.00467699 0)
(0.997758 -0.00432338 0)
(0.99723 -0.00516078 0)
(0.995385 -0.00477031 0)
(0.995344 -0.00451102 0)
(0.99678 -0.00457566 0)
(0.996579 -0.00439179 0)
(0.995291 -0.00296604 0)
(0.994183 -0.00147108 0)
(0.995393 -0.00070634 0)
(0.996384 -0.000222445 0)
(0.996989 0.000670237 0)
(0.996115 0.00195956 0)
(0.996167 0.0032078 0)
(0.996779 0.00369958 0)
(0.998761 -8.32407e-05 0)
(1.00163 -0.00159961 0)
(1.00036 -0.00433005 0)
(0.997717 -0.0058225 0)
(0.994831 -0.00534873 0)
(0.996655 -0.00480553 0)
(0.997874 -0.00444447 0)
(0.997306 -0.00504802 0)
(0.995496 -0.00465467 0)
(0.99539 -0.00439641 0)
(0.996764 -0.00435549 0)
(0.996748 -0.00421529 0)
(0.995643 -0.00295447 0)
(0.994468 -0.00147596 0)
(0.995488 -0.000633711 0)
(0.996497 -0.000207741 0)
(0.997268 0.00052796 0)
(0.996532 0.00165499 0)
(0.996434 0.00290826 0)
(0.996776 0.00351196 0)
(0.998841 -0.000121017 0)
(1.00152 -0.00156664 0)
(1.00031 -0.004252 0)
(0.997919 -0.00549732 0)
(0.995152 -0.00499109 0)
(0.996936 -0.00486202 0)
(0.998014 -0.00457964 0)
(0.997416 -0.00495705 0)
(0.995619 -0.00449392 0)
(0.995453 -0.00425692 0)
(0.996764 -0.00415552 0)
(0.996905 -0.00404386 0)
(0.995989 -0.00292335 0)
(0.994782 -0.00149971 0)
(0.995604 -0.00058587 0)
(0.996588 -0.000184526 0)
(0.997498 0.000427971 0)
(0.996935 0.00136875 0)
(0.996755 0.00257597 0)
(0.996824 0.00328538 0)
(0.998919 -0.000166928 0)
(1.0014 -0.00151612 0)
(1.00028 -0.0041603 0)
(0.99814 -0.00524109 0)
(0.995448 -0.00463929 0)
(0.997178 -0.0048368 0)
(0.998167 -0.00470281 0)
(0.997567 -0.00490816 0)
(0.995761 -0.0042995 0)
(0.995527 -0.00408335 0)
(0.996772 -0.0039676 0)
(0.997056 -0.00389066 0)
(0.99633 -0.00289022 0)
(0.995124 -0.00153771 0)
(0.995747 -0.000560866 0)
(0.99667 -0.000166602 0)
(0.99768 0.000361807 0)
(0.997301 0.00112731 0)
(0.997114 0.00223014 0)
(0.996937 0.00302078 0)
(0.998993 -0.000217143 0)
(1.00128 -0.00145853 0)
(1.00025 -0.00405359 0)
(0.99838 -0.00505094 0)
(0.99573 -0.00430676 0)
(0.997375 -0.00471563 0)
(0.998319 -0.00478833 0)
(0.997763 -0.00491458 0)
(0.995934 -0.00410729 0)
(0.995605 -0.00387173 0)
(0.99678 -0.00376838 0)
(0.997194 -0.00374311 0)
(0.996664 -0.00285716 0)
(0.99549 -0.00158338 0)
(0.99592 -0.000553823 0)
(0.996751 -0.000155687 0)
(0.997827 0.000306793 0)
(0.99762 0.000936148 0)
(0.997488 0.00189475 0)
(0.997121 0.00272117 0)
(0.999063 -0.000270008 0)
(1.00117 -0.0013884 0)
(1.00021 -0.00391516 0)
(0.998635 -0.00492717 0)
(0.996011 -0.004029 0)
(0.997532 -0.00451972 0)
(0.998449 -0.00480171 0)
(0.997995 -0.00495438 0)
(0.996152 -0.00394392 0)
(0.995695 -0.00362729 0)
(0.99678 -0.0035475 0)
(0.997316 -0.00358736 0)
(0.996986 -0.00281665 0)
(0.995878 -0.00164176 0)
(0.996124 -0.000566627 0)
(0.996832 -0.000143189 0)
(0.997945 0.000260182 0)
(0.997888 0.000784641 0)
(0.99785 0.00159544 0)
(0.997365 0.00240026 0)
(0.999129 -0.000324746 0)
(1.00105 -0.00134431 0)
(1.00015 -0.00371662 0)
(0.998893 -0.00481208 0)
(0.996302 -0.00379521 0)
(0.997661 -0.00428012 0)
(0.998547 -0.00473367 0)
(0.998251 -0.00501772 0)
(0.996422 -0.00386042 0)
(0.995803 -0.0033893 0)
(0.996768 -0.0033074 0)
(0.997414 -0.00341991 0)
(0.997285 -0.00276195 0)
(0.996279 -0.00171277 0)
(0.996369 -0.000611042 0)
(0.996925 -0.000137522 0)
(0.99804 0.000225218 0)
(0.998112 0.000658026 0)
(0.998182 0.00134065 0)
(0.997652 0.00207277 0)
(0.999187 -0.000359913 0)
(1.00095 -0.00132429 0)
(1.00008 -0.00353431 0)
(0.999147 -0.00472455 0)
(0.996602 -0.0036009 0)
(0.997767 -0.00400331 0)
(0.998597 -0.00453645 0)
(0.998502 -0.00503238 0)
(0.996748 -0.00386539 0)
(0.995952 -0.00319741 0)
(0.99675 -0.00304505 0)
(0.997486 -0.00324069 0)
(0.997554 -0.00269119 0)
(0.996679 -0.00177467 0)
(0.996652 -0.00068311 0)
(0.997038 -0.000148856 0)
(0.998116 0.000205117 0)
(0.998292 0.00055534 0)
(0.998469 0.00113286 0)
(0.997952 0.00176877 0)
(0.999242 -0.00039846 0)
(1.00085 -0.00130987 0)
(1 -0.00333446 0)
(0.999401 -0.00463999 0)
(0.996928 -0.00346229 0)
(0.997878 -0.00374584 0)
(0.998609 -0.00427817 0)
(0.998714 -0.00496593 0)
(0.997107 -0.00391845 0)
(0.996158 -0.00308243 0)
(0.996736 -0.00278216 0)
(0.997524 -0.00303099 0)
(0.997788 -0.00260674 0)
(0.997069 -0.00182708 0)
(0.996967 -0.000774278 0)
(0.997187 -0.000188573 0)
(0.998187 0.000184684 0)
(0.998437 0.00047428 0)
(0.998715 0.000955424 0)
(0.998244 0.00149892 0)
(0.999286 -0.00041559 0)
(1.00077 -0.00130707 0)
(0.999911 -0.00308241 0)
(0.999631 -0.00451794 0)
(0.997263 -0.00338377 0)
(0.997992 -0.00350978 0)
(0.99859 -0.00399333 0)
(0.998884 -0.00481656 0)
(0.99748 -0.00397138 0)
(0.996432 -0.00305656 0)
(0.996755 -0.00255296 0)
(0.997535 -0.00279443 0)
(0.997975 -0.00249143 0)
(0.997435 -0.00186429 0)
(0.997302 -0.000873198 0)
(0.99737 -0.000252018 0)
(0.998262 0.000151802 0)
(0.998547 0.000414254 0)
(0.998914 0.000807482 0)
(0.998512 0.00126496 0)
(0.999327 -0.000417955 0)
(1.0007 -0.0013059 0)
(0.999813 -0.00277395 0)
(0.99983 -0.00433356 0)
(0.997613 -0.00336332 0)
(0.998129 -0.00335123 0)
(0.998549 -0.00372412 0)
(0.998989 -0.00461524 0)
(0.997823 -0.00398876 0)
(0.996754 -0.00309802 0)
(0.996817 -0.00238473 0)
(0.997523 -0.0025607 0)
(0.998104 -0.00234235 0)
(0.997757 -0.00187525 0)
(0.997644 -0.00097834 0)
(0.997583 -0.000334593 0)
(0.998354 9.99283e-05 0)
(0.998636 0.000358913 0)
(0.999065 0.000691893 0)
(0.998746 0.00106078 0)
(0.999357 -0.000416779 0)
(1.00065 -0.00129708 0)
(0.99972 -0.00249229 0)
(0.999972 -0.00412609 0)
(0.997937 -0.00337236 0)
(0.998281 -0.00326162 0)
(0.998508 -0.00346096 0)
(0.999051 -0.00434993 0)
(0.99813 -0.0039165 0)
(0.997114 -0.00315112 0)
(0.99694 -0.00227973 0)
(0.997514 -0.00234112 0)
(0.998182 -0.00217557 0)
(0.99802 -0.00184393 0)
(0.997974 -0.00107357 0)
(0.997822 -0.000435632 0)
(0.998462 3.39645e-05 0)
(0.998715 0.000291945 0)
(0.99917 0.000600966 0)
(0.998929 0.000888446 0)
(0.999385 -0.000390306 0)
(1.00061 -0.00130344 0)
(0.999624 -0.00227149 0)
(1.00008 -0.00387293 0)
(0.998255 -0.0033352 0)
(0.998473 -0.00319143 0)