/*--------------------------------*- C++ -*----------------------------------*\
| =========                 |                                                 |
| \\      /  F ield         | OpenFOAM: The Open Source CFD Toolbox           |
|  \\    /   O peration     | Version:  v1906                                 |
|   \\  /    A nd           | Web:      www.OpenFOAM.com                      |
|    \\/     M anipulation  |                                                 |
\*---------------------------------------------------------------------------*/
FoamFile
{
    version     2.0;
    format      ascii;
    class       volScalarField;
    location    "0.8";
    object      p;
}
// * * * * * * * * * * * * * * * * * * * * * * * * * * * * * * * * * * * * * //

dimensions      [0 2 -2 0 0 0 0];


internalField   nonuniform List<scalar> 
9600
(
-2.94333e-11
0.000763728
0.000887237
0.000624569
-0.00112624
-0.000365217
0.00101104
0.000625437
0.000844524
0.000945021
0.00138315
0.00052035
-0.000212178
0.000740415
0.000302353
0.00179243
0.00147093
0.00326762
0.00420818
0.00743296
3.84987e-07
0.000761025
0.000891057
0.000613741
-0.0010953
-0.000354799
0.00100437
0.000621705
0.000849466
0.000931311
0.00138827
0.000509678
-0.000201948
0.000738128
0.000307813
0.00171233
0.00152265
0.00317505
0.00425109
0.00710346
6.19362e-08
0.000757049
0.000896377
0.000604244
-0.0010745
-0.000343028
0.000996047
0.000616905
0.000852152
0.000914078
0.00139003
0.000500152
-0.000184613
0.000732232
0.000319287
0.00167706
0.00155658
0.00309243
0.00427117
0.00671629
-1.36538e-06
0.00075167
0.00090297
0.000595618
-0.00105263
-0.000331345
0.000987271
0.000609144
0.000851251
0.000894988
0.00138607
0.000495033
-0.000163511
0.000724046
0.000335727
0.00163559
0.00158705
0.00301094
0.00425934
0.00635115
-3.95488e-06
0.000744584
0.000911239
0.000587605
-0.00102977
-0.000319594
0.000977672
0.00059872
0.00084876
0.000874292
0.00137963
0.000493353
-0.000139424
0.000714025
0.000354082
0.00158973
0.00161648
0.00292607
0.00422013
0.00601089
-7.6684e-06
0.000735958
0.000921333
0.000580306
-0.00100622
-0.00030788
0.000967386
0.000586964
0.000845559
0.000852637
0.00137248
0.000493043
-0.000113439
0.000702799
0.000373481
0.00154172
0.00164378
0.00283826
0.00415763
0.00569228
-1.23302e-05
0.000726259
0.000933027
0.00057349
-0.000982133
-0.000296097
0.000956727
0.000574737
0.000841787
0.000830271
0.00136515
0.000492237
-8.6368e-05
0.000691077
0.000393159
0.00149398
0.00166677
0.00274962
0.00407308
0.00539024
-1.76549e-05
0.000715971
0.00094589
0.000566802
-0.000957531
-0.000284018
0.000945798
0.000562519
0.000837464
0.000807075
0.00135798
0.000489909
-5.86004e-05
0.000679254
0.000412164
0.00144841
0.00168293
0.00266276
0.00396724
0.00510083
-2.33436e-05
0.000705418
0.0009595
0.000559986
-0.000932338
-0.000271494
0.000934577
0.000550587
0.000832584
0.000782944
0.00135128
0.00048588
-3.05909e-05
0.000667668
0.000429666
0.00140586
0.0016904
0.0025788
0.00384162
0.00482027
-2.91711e-05
0.000694738
0.000973562
0.000552913
-0.000906493
-0.000258475
0.000923043
0.000539074
0.000827161
0.000757891
0.00134522
0.00048044
-3.02042e-06
0.000656972
0.000444673
0.00136656
0.00168814
0.00249865
0.00369812
0.00454483
-3.50196e-05
0.000683936
0.000987929
0.000545553
-0.000879959
-0.000244944
0.000911198
0.000527832
0.00082121
0.000732052
0.00133977
0.000474035
2.34448e-05
0.000647991
0.000455932
0.00133076
0.00167574
0.002421
0.0035395
0.00427151
-4.08551e-05
0.000672944
0.00100256
0.000537932
-0.000852725
-0.000230901
0.000899057
0.000516728
0.0008147
0.00070565
0.00133471
0.000467201
4.8119e-05
0.000641414
0.000462474
0.0012987
0.00165236
0.00234328
0.00337001
0.00399807
-4.66808e-05
0.000661678
0.00101746
0.000530103
-0.000824791
-0.000216357
0.00088663
0.000505639
0.000807554
0.000678939
0.00132963
0.000460554
7.01702e-05
0.00063782
0.000463685
0.00126984
0.00161663
0.00226245
0.00319469
0.00372314
-5.25042e-05
0.000650057
0.00103264
0.000522129
-0.000796171
-0.000201323
0.000873904
0.0004945
0.000799661
0.000652198
0.00132403
0.000454707
8.87923e-05
0.000637773
0.000459016
0.00124297
0.00156094
0.00217476
0.00301798
0.0034468
-5.83234e-05
0.000638002
0.00104812
0.000514073
-0.000766893
-0.000185802
0.000860839
0.000483297
0.000790876
0.000625735
0.0013174
0.000450224
0.000103254
0.00064162
0.000448347
0.0012169
0.00151243
0.00207572
0.00284225
0.00317051
-6.41207e-05
0.000625435
0.00106387
0.000505997
-0.000736994
-0.000169788
0.000847392
0.000472056
0.000781021
0.000599876
0.00130919
0.000447692
0.000112879
0.000649357
0.000432169
0.0011899
0.0014602
0.00196208
0.00266735
0.00289708
-6.98592e-05
0.000612274
0.00107989
0.000497964
-0.000706516
-0.000153257
0.000833512
0.000460853
0.000769874
0.000574979
0.0012988
0.000447649
0.000117181
0.000660628
0.000411306
0.00115931
0.00140667
0.00183275
0.00249197
0.00263011
-7.54799e-05
0.000598431
0.00109614
0.000490033
-0.000675508
-0.00013616
0.000819096
0.000449811
0.000757205
0.000551427
0.0012857
0.000450458
0.000115939
0.00067459
0.00038722
0.00112188
0.00135383
0.00168838
0.00231397
0.00237321
-8.09019e-05
0.000583812
0.00111256
0.00048227
-0.00064404
-0.000118423
0.000804
0.000439115
0.000742743
0.000529577
0.00126958
0.000456279
0.000109261
0.000689871
0.000362106
0.00107418
0.00130275
0.00153265
0.00213059
0.00212929
-8.60247e-05
0.000568312
0.00112911
0.000474764
-0.000612206
-9.99368e-05
0.000788062
0.000428983
0.000726195
0.000509642
0.00125019
0.000465064
9.76657e-05
0.000704601
0.00033818
0.00101418
0.00125196
0.00137014
0.00193925
0.00190033
-9.07297e-05
0.000551816
0.00114569
0.00046762
-0.000580126
-8.05555e-05
0.000771095
0.000419646
0.000707334
0.00049174
0.00122749
0.00047647
8.20418e-05
0.000716583
0.00031673
0.000941021
0.00119912
0.00120512
0.00173821
0.00168716
-9.48804e-05
0.000534197
0.00116223
0.000460948
-0.000547939
-6.01138e-05
0.000752894
0.000411302
0.000685984
0.000475949
0.00120168
0.000489743
6.35707e-05
0.000723767
0.000298294
0.000855254
0.00114173
0.00104096
0.00152647
0.00148888
-9.8323e-05
0.000515314
0.00117862
0.000454879
-0.000515825
-3.84172e-05
0.000733226
0.000404356
0.000662078
0.000462182
0.0011732
0.000503835
4.34029e-05
0.000724595
0.000283169
0.000758146
0.00107764
0.000880413
0.00130378
0.00130296
-0.000100942
0.000495022
0.0011947
0.000449589
-0.000484028
-1.51531e-05
0.000711854
0.000398829
0.000635785
0.000450045
0.00114288
0.000517519
2.22194e-05
0.000717887
0.000270934
0.000651234
0.0010047
0.000726506
0.001071
0.0011251
-0.000102396
0.000473184
0.00121031
0.000445299
-0.000452846
1.00352e-05
0.000688576
0.000394659
0.000607552
0.000438951
0.00111181
0.000529691
2.85204e-07
0.000703037
0.000260323
0.000535812
0.000921536
0.000582351
0.000830164
0.000949274
-0.000102557
0.000449658
0.00122525
0.00044227
-0.000422633
3.74546e-05
0.000663313
0.000391597
0.000578067
0.000429082
0.00108101
0.000539913
-2.25483e-05
0.000679762
0.00025007
0.000412894
0.000826925
0.000450619
0.000584751
0.000768157
-0.000101213
0.000424302
0.00123924
0.000440837
-0.0003938
6.74071e-05
0.000636121
0.0003891
0.000548249
0.00041565
0.00105113
0.000548111
-4.71247e-05
0.000647671
0.000239543
0.000284013
0.000719179
0.000333223
0.000340294
0.000574136
-9.81411e-05
0.00039702
0.00125194
0.000441386
-0.000366769
0.000100179
0.000607213
0.000386442
0.000519249
0.000398935
0.0010224
0.000554475
-7.45222e-05
0.000606209
0.000228314
0.000151352
0.000596478
0.000230557
0.000104778
0.000361102
-9.3102e-05
0.000367764
0.0012629
0.0004443
-0.000341966
0.000135901
0.000577116
0.000382742
0.000492375
0.000378795
0.000994203
0.000559737
-0.000105727
0.000554338
0.000216334
1.80228e-05
0.000457567
0.000140076
-0.000112879
0.000126996
-8.58503e-05
0.000336531
0.00127156
0.000450026
-0.00031979
0.000174602
0.000546583
0.000376742
0.000468964
0.000355075
0.000965094
0.000565039
-0.000141278
0.000490523
0.000203567
-0.000111891
0.000301745
5.59387e-05
-0.000304639
-0.000123797
-7.61893e-05
0.000303453
0.00127725
0.000459057
-0.000300544
0.000216235
0.000515156
0.000366668
0.000449944
0.000328126
0.000933016
0.0005715
-0.000180682
0.000413386
0.000189319
-0.000234083
0.000129499
-2.93642e-05
-0.000464744
-0.000379917
-6.39432e-05
0.000268786
0.00127907
0.000471833
-0.000284314
0.000260468
0.000487094
0.000350903
0.000435633
0.000298965
0.000895581
0.000579256
-0.000222602
0.000322023
0.000172521
-0.000344356
-5.69748e-05
-0.0001242
-0.000592489
-0.000625351
-4.89377e-05
0.000232851
0.00127607
0.000488592
-0.000270883
0.000306529
0.000462993
0.00032827
0.000425716
0.000269102
0.00085043
0.000587258
-0.000264618
0.000216015
0.000151012
-0.000439601
-0.000252535
-0.000236496
-0.000694459
-0.000845199
-3.10513e-05
0.000196149
0.00126722
0.000509451
-0.000259826
0.000353261
0.000444767
0.000298211
0.000418938
0.000240516
0.000795593
0.000594249
-0.000303124
9.62823e-05
0.000123881
-0.000517465
-0.000450182
-0.000371019
-0.000781796
-0.00102935
-1.02404e-05
0.000159377
0.00125141
0.000534313
-0.00025043
0.000399173
0.000434278
0.000260727
0.000413179
0.000215513
0.000730012
0.00059989
-0.000334476
-3.48637e-05
8.13496e-05
-0.000576067
-0.000642791
-0.000527595
-0.000865662
-0.00117628
1.34427e-05
0.000123309
0.00122778
0.000562749
-0.000241707
0.000442622
0.000433048
0.000216271
0.000405698
0.000196003
0.000653675
0.000594907
-0.000356121
-0.00017344
2.07068e-05
-0.000618453
-0.000823299
-0.000702996
-0.000955504
-0.00129227
3.98825e-05
8.86725e-05
0.00119558
0.000594179
-0.000232447
0.000481776
0.000441927
0.000166286
0.000393524
0.000183417
0.000567902
0.000575721
-0.000367055
-0.000313511
-6.12939e-05
-0.000649769
-0.000985422
-0.000892711
-0.00105816
-0.00138612
6.88737e-05
5.61997e-05
0.00115436
0.000627671
-0.000221275
0.0005151
0.000460996
0.000112984
0.000373319
0.000178697
0.00047632
0.00053997
-0.000368619
-0.000448657
-0.000165832
-0.000676657
-0.00112321
-0.00108972
-0.00117813
-0.00146806
0.000100052
2.6705e-05
0.00110414
0.000661853
-0.000206966
0.000541639
0.000489475
5.8837e-05
0.000341782
0.000181159
0.000384348
0.00048602
-0.000364533
-0.000573444
-0.000291252
-0.000706899
-0.00123306
-0.00128439
-0.00131737
-0.00154856
0.000132939
1.08083e-06
0.00104532
0.000695148
-0.00018853
0.000560461
0.000525296
8.1842e-06
0.000297163
0.000188452
0.000297261
0.000414311
-0.000360174
-0.00068402
-0.000433111
-0.000749098
-0.00131683
-0.00146672
-0.00147364
-0.00163635
0.000166823
-1.96778e-05
0.00097884
0.000725575
-0.000165248
0.000571045
0.000566779
-3.55759e-05
0.000239013
0.000196573
0.000218905
0.000327414
-0.000360984
-0.000778525
-0.000585166
-0.000810075
-0.00138175
-0.00162733
-0.00163905
-0.00173669
0.000200719
-3.45393e-05
0.000906299
0.000750814
-0.000136834
0.000573518
0.000611111
-7.03179e-05
0.000168218
0.000200719
0.000152479
0.000229529
-0.000371594
-0.000856991
-0.000741305
-0.000892974
-0.00143626
-0.00176156
-0.00180308
-0.00184921
0.000233605
-4.26202e-05
0.000830092
0.00076875
-0.000103606
0.000568438
0.000655096
-9.39058e-05
8.72852e-05
0.000196435
9.84951e-05
0.000124898
-0.000394391
-0.000919738
-0.000895638
-0.000997381
-0.00148915
-0.00187113
-0.00195679
-0.00196863
0.000264491
-4.3193e-05
0.000753122
0.000777451
-6.65465e-05
0.000557112
0.000695676
-0.000105522
-1.02147e-07
0.000180768
5.57211e-05
1.78475e-05
-0.000431571
-0.000969077
-0.00104097
-0.00112051
-0.00154981
-0.00196123
-0.00209422
-0.00208883
0.00029259
-3.58166e-05
0.000678427
0.000775189
-2.72522e-05
0.000541443
0.000730355
-0.000106054
-8.97898e-05
0.000152587
2.14149e-05
-8.78316e-05
-0.000484468
-0.00100964
-0.00116878
-0.00125543
-0.00162638
-0.00203876
-0.00221315
-0.00220532
0.000317405
-2.07002e-05
0.00060756
0.000760943
1.19521e-05
0.000523663
0.00075754
-9.76229e-05
-0.00017852
0.000112783
-6.02085e-06
-0.000189256
-0.000553655
-0.00104666
-0.00127416
-0.00139323
-0.00172129
-0.00211398
-0.002315
-0.00231339
0.000338646
1.14057e-06
0.000543053
0.000734905
4.81114e-05
0.000505586
0.000776634
-8.44744e-05
-0.000264976
6.30114e-05
-2.65882e-05
-0.000283865
-0.000639107
-0.00108651
-0.00135808
-0.00152304
-0.00182941
-0.00219729
-0.00240554
-0.00240977
0.000356347
2.79261e-05
0.000487094
0.000698795
7.75065e-05
0.000487578
0.000788858
-6.83086e-05
-0.000348883
3.95831e-06
-4.03568e-05
-0.000368251
-0.000739412
-0.00113729
-0.00142531
-0.00163439
-0.00194129
-0.00229289
-0.00249478
-0.00249531
0.000370754
5.76685e-05
0.0004411
0.000655598
9.65039e-05
0.000469256
0.00079666
-5.00026e-05
-0.000431447
-6.51754e-05
-4.83204e-05
-0.00043518
-0.000849486
-0.0012077
-0.00148199
-0.00172277
-0.00204646
-0.00239554
-0.00259124
-0.00257664
0.000382222
8.85421e-05
0.000405558
0.000608859
0.000103051
0.000448266
0.000802125
-2.86544e-05
-0.000514234
-0.000147758
-5.26422e-05
-0.000477688
-0.000962025
-0.0013019
-0.00153974
-0.00179101
-0.00213406
-0.00249501
-0.00269622
-0.00266393
0.000391288
0.000118978
0.000379703
0.00056234
9.73332e-05
0.000419716
0.000805344
-1.52819e-07
-0.000596317
-0.000248472
-5.84886e-05
-0.000492737
-0.00106392
-0.00141661
-0.00161284
-0.00184568
-0.00219858
-0.002581
-0.00280116
-0.00276186
0.000398552
0.000147726
0.000361895
0.000519531
8.09463e-05
0.000378877
0.000804829
3.96506e-05
-0.000675019
-0.000371496
-7.5335e-05
-0.000480946
-0.00113964
-0.001544
-0.00171057
-0.00189826
-0.00224324
-0.00264592
-0.00289605
-0.00286515
0.000404575
0.000173877
0.000350038
0.000482897
5.72771e-05
0.000323075
0.000795211
9.21621e-05
-0.000740563
-0.000517004
-0.000117354
-0.000446776
-0.00117729
-0.0016699
-0.00183247
-0.00196367
-0.00227446
-0.00268735
-0.00297327
-0.00296366
0.000410083
0.000196907
0.000341435
0.000453553
3.09373e-05
0.000252423
0.000768664
0.000156001
-0.000779321
-0.00068094
-0.000198894
-0.000403922
-0.00117217
-0.00177347
-0.00196999
-0.00205318
-0.00230397
-0.00270773
-0.00302823
-0.00305027
0.000415619
0.000216695
0.00033344
0.000431753
6.43703e-06
0.000167678
0.000719116
0.000223767
-0.000783263
-0.000848542
-0.000326553
-0.000376359
-0.00112771
-0.00183641
-0.00210912
-0.00216797
-0.00234764
-0.00271367
-0.00305877
-0.00312172
0.000421385
0.000233455
0.000323775
0.000416308
-1.20823e-05
7.29026e-05
0.000642884
0.000284015
-0.000750752
-0.000996084
-0.000495456
-0.000388402
-0.00105614
-0.00184958
-0.0022273
-0.00229694
-0.0024155
-0.00271901
-0.0030654
-0.00317337
0.000427264
0.000247836
0.000310799
0.000404372
-2.10515e-05
-2.55237e-05
0.00053857
0.000325311
-0.000685001
-0.00110536
-0.000692898
-0.00045445
-0.000984563
-0.00181645
-0.00230659
-0.00242529
-0.00250437
-0.00273862
-0.00305575
-0.00319911
0.000432583
0.000261115
0.000294064
0.000391592
-1.86856e-05
-0.000118818
0.000407425
0.000336696
-0.00059694
-0.00116751
-0.000892688
-0.000573412
-0.000940429
-0.00174646
-0.0023389
-0.00253418
-0.00260177
-0.00277713
-0.00304413
-0.00319848
0.000436495
0.000273968
0.000274311
0.000373108
-5.8084e-06
-0.00019843
0.000254801
0.000309765
-0.000502803
-0.00118118
-0.00106953
-0.000735209
-0.000943296
-0.00166474
-0.00232565
-0.00261142
-0.00269484
-0.00282691
-0.00304128
-0.00318031
0.000438305
0.000286274
0.000253318
0.000345974
1.21041e-05
-0.000257728
9.35184e-05
0.000243029
-0.000421586
-0.00115085
-0.00120573
-0.000917237
-0.000996945
-0.00159791
-0.00227535
-0.00265108
-0.00277395
-0.00287833
-0.00304705
-0.00315699
0.000437347
0.000297535
0.000232782
0.000309913
2.70353e-05
-0.000295181
-6.13009e-05
0.000140147
-0.000368132
-0.00109165
-0.00129429
-0.0010913
-0.00109142
-0.00156492
-0.00220978
-0.0026515
-0.0028318
-0.00292508
-0.00305425
-0.00313462
0.000433219
0.000307499
0.000213867
0.000265874
3.26216e-05
-0.000313126
-0.00019745
9.82075e-06
-0.000351311
-0.00102263
-0.00133782
-0.00123946
-0.00120972
-0.00156843
-0.00215077
-0.0026214
-0.00286118
-0.00296377
-0.00305807
-0.00311087
0.000425662
0.000313627
0.000197
0.000216186
2.56853e-05
-0.000319248
-0.000309466
-0.000132745
-0.000372899
-0.000960418
-0.00134301
-0.00135194
-0.00133029
-0.00160015
-0.00210894
-0.00257711
-0.00286118
-0.00298971
-0.00305857
-0.00308085
0.000414463
0.00031551
0.000182047
0.000164379
5.50908e-06
-0.000322103
-0.000397673
-0.00027187
-0.000427377
-0.000918789
-0.00132453
-0.00142677
-0.00143818
-0.0016487
-0.00208324
-0.00252989
-0.00283733
-0.00299672
-0.00305558
-0.00304427
0.000399594
0.000312229
0.000167952
0.0001135
-2.67013e-05
-0.000328344
-0.000465156
-0.000398787
-0.00050452
-0.000903639
-0.00129964
-0.00146865
-0.00152272
-0.00170072
-0.00206989
-0.00248301
-0.00279552
-0.00297902
-0.0030434
-0.00300344
0.000381185
0.000303214
0.000152975
6.51454e-05
-6.84863e-05
-0.000342423
-0.00051741
-0.000510334
-0.000592956
-0.000912817
-0.00127938
-0.00148668
-0.00158041
-0.00174368
-0.00206095
-0.00243658
-0.0027404
-0.00293445
-0.00301065
-0.00295554
0.000359347
0.000288312
0.000135432
1.94059e-05
-0.000116385
-0.000366107
-0.000562189
-0.00060682
-0.000684447
-0.000941952
-0.00126905
-0.00149241
-0.00161494
-0.00176991
-0.00204586
-0.0023854
-0.00267378
-0.00286546
-0.00294854
-0.00288924
0.000333979
0.000267803
0.000114217
-2.46079e-05
-0.000167788
-0.000398819
-0.00060563
-0.000691782
-0.000774842
-0.000986354
-0.00127075
-0.00149278
-0.00163137
-0.00177871
-0.00201637
-0.0023197
-0.00259027
-0.00277253
-0.0028537
-0.00279392
0.000305065
0.000242011
8.87788e-05
-6.78068e-05
-0.000221206
-0.000439691
-0.00065102
-0.000769087
-0.000863488
-0.00104315
-0.00128626
-0.00149322
-0.0016348
-0.00177078
-0.00196989
-0.0022302
-0.00247808
-0.00264738
-0.00271904
-0.00265645
0.00027277
0.000211283
5.87187e-05
-0.000111286
-0.000275638
-0.000487234
-0.000700809
-0.000843269
-0.000951116
-0.00111016
-0.00131863
-0.00150198
-0.00163177
-0.00174856
-0.00190504
-0.00211137
-0.00232166
-0.00247051
-0.00252543
-0.00245488
0.000237171
0.000175972
2.40799e-05
-0.000155779
-0.000330915
-0.000540144
-0.000755666
-0.000917963
-0.00104075
-0.00118707
-0.00136855
-0.00152968
-0.0016368
-0.00172044
-0.00182477
-0.00196028
-0.00210532
-0.00220973
-0.00223376
-0.00214687
0.00019868
0.000136544
-1.48558e-05
-0.000202025
-0.000386843
-0.000597652
-0.0008163
-0.000994669
-0.00113412
-0.00127637
-0.00143677
-0.00157986
-0.00166695
-0.00170756
-0.00174629
-0.0017909
-0.00182544
-0.00182679
-0.00176972
-0.00163705
0.00015737
9.39465e-05
-5.73082e-05
-0.000250496
-0.000443613
-0.00065894
-0.000882512
-0.00107552
-0.00123147
-0.00137751
-0.00152512
-0.00165368
-0.00172553
-0.00172255
-0.00168413
-0.00162216
-0.00150653
-0.00132642
-0.00107736
-0.000783665
0.000113763
4.88498e-05
-0.000102383
-0.000300815
-0.000501852
-0.000722291
-0.000953854
-0.0011622
-0.00133289
-0.00148483
-0.00162545
-0.00174068
-0.00179887
-0.00175275
-0.00160439
-0.00136663
-0.00101836
-0.000582325
-0.000147765
0.00017974
6.90182e-05
2.1664e-06
-0.000149689
-0.000352467
-0.000560997
-0.000786785
-0.00102722
-0.0012533
-0.00143992
-0.00159352
-0.00172081
-0.00180017
-0.00179854
-0.00167131
-0.00138504
-0.000974283
-0.000498181
-1.1507e-05
0.000397649
0.00064048
2.42216e-05
-4.44391e-05
-0.000198039
-0.000405164
-0.000620595
-0.000851722
-0.00109764
-0.00133816
-0.00154538
-0.00169985
-0.00180193
-0.00181914
-0.00170901
-0.00146171
-0.0010658
-0.000575262
-9.05545e-05
0.000342755
0.000671393
0.000831482
-1.89053e-05
-8.97048e-05
-0.00024511
-0.000457494
-0.000679545
-0.00091699
-0.00116492
-0.00140222
-0.00161268
-0.00177167
-0.00186557
-0.00185627
-0.00166413
-0.00129725
-0.000803737
-0.000238281
0.000295973
0.000739965
0.00104843
0.00116712
-5.85835e-05
-0.000131668
-0.000288591
-0.00050547
-0.000734206
-0.000978546
-0.00123345
-0.00146619
-0.0016415
-0.00172861
-0.00171766
-0.00164098
-0.00148098
-0.00121077
-0.000854034
-0.000398481
0.000101724
0.000555206
0.000891916
0.00103982
-9.23721e-05
-0.000168492
-0.000327356
-0.000545326
-0.000779065
-0.00102017
-0.00127039
-0.00151091
-0.00170728
-0.00183519
-0.00184109
-0.0017017
-0.0014293
-0.0010032
-0.000483932
5.48488e-05
0.000561267
0.000972692
0.0012404
0.00130335
-0.000120183
-0.000201379
-0.000363943
-0.000585912
-0.000828522
-0.0010787
-0.00133089
-0.00156799
-0.00174323
-0.001826
-0.00179471
-0.00162949
-0.00134636
-0.000946897
-0.000457612
4.83857e-05
0.000517121
0.000896221
0.00113947
0.00119186
0.0103019
0.00525383
-0.00219138
-0.00786996
-0.00931394
-0.00825105
-0.00690684
-0.00590235
-0.00514326
-0.00454387
-0.00414078
-0.00392732
-0.00381663
-0.00374187
-0.00362941
-0.00343029
-0.00321491
-0.00305907
-0.00296057
-0.00289576
-0.00282531
-0.0027391
-0.00269364
-0.00269877
-0.0026809
-0.00261739
-0.00254624
-0.00246836
-0.00237916
-0.0023161
-0.00226749
-0.00217825
-0.00206672
-0.00197765
-0.00190448
-0.00182637
-0.00174835
-0.00167906
-0.00161321
-0.00154139
-0.0014554
-0.00136162
-0.00126844
-0.0011626
-0.00104823
-0.000938955
-0.000831179
-0.000728617
-0.000632589
-0.000535798
-0.000427174
-0.000313561
-0.000202954
-9.00966e-05
2.95623e-05
0.00014605
0.000260724
0.000381437
0.000510778
0.000640332
0.00077072
0.000908427
0.00104263
0.00117919
0.00132728
0.0014813
0.00163052
0.00177227
0.00191874
0.00210303
0.00230553
0.00249426
0.00269012
0.00290636
0.00311167
0.00330732
0.00352558
0.0037633
0.00400692
0.00425203
0.00450247
0.00475391
0.00500494
0.005265
0.00552939
0.00580764
0.00608961
0.00638351
0.006687
0.00699299
0.00731608
0.0076339
0.00796843
0.00830478
0.00864689
0.00899948
0.00935826
0.00972111
0.0100406
0.0103949
0.00961562
0.00511252
-0.00210041
-0.00772577
-0.00922998
-0.00821236
-0.00688432
-0.00588731
-0.00513209
-0.00453454
-0.00413243
-0.00391976
-0.00380987
-0.00373603
-0.00362447
-0.0034259
-0.0032108
-0.00305525
-0.00295704
-0.00289256
-0.00282242
-0.00273639
-0.00269107
-0.00269645
-0.00267882
-0.00261543
-0.00254442
-0.00246667
-0.00237755
-0.00231458
-0.00226613
-0.00217702
-0.00206554
-0.00197653
-0.00190346
-0.00182543
-0.00174747
-0.00167824
-0.00161245
-0.00154068
-0.00145474
-0.00136099
-0.00126785
-0.00116204
-0.00104769
-0.000938431
-0.000830675
-0.000728125
-0.000632112
-0.000535343
-0.000426737
-0.000313135
-0.000202543
-8.97034e-05
2.99425e-05
0.000146419
0.000261076
0.000381769
0.000511093
0.000640633
0.000771003
0.000908696
0.00104289
0.00117942
0.0013275
0.00148151
0.00163072
0.00177245
0.0019189
0.00210317
0.00230566
0.00249439
0.00269024
0.00290646
0.00311177
0.0033074
0.00352565
0.00376336
0.00400698
0.00425209
0.00450252
0.00475395
0.00500498
0.00526503
0.00552942
0.00580766
0.00608963
0.00638353
0.00668702
0.006993
0.00731609
0.00763392
0.00796844
0.00830479
0.0086469
0.00899949
0.00935826
0.00972112
0.0100406
0.0103949
0.00894861
0.0049581
-0.00191676
-0.00745166
-0.00907836
-0.00815419
-0.00685539
-0.00586716
-0.00511711
-0.00452337
-0.00412388
-0.00391267
-0.00380337
-0.00372996
-0.00361911
-0.00342129
-0.00320681
-0.0030517
-0.00295375
-0.00288953
-0.00281968
-0.00273384
-0.00268873
-0.00269438
-0.00267696
-0.00261366
-0.00254277
-0.00246516
-0.0023761
-0.00231322
-0.00226493
-0.0021759
-0.00206445
-0.00197552
-0.00190253
-0.00182456
-0.00174666
-0.0016775
-0.00161177
-0.00154006
-0.00145416
-0.00136043
-0.00126732
-0.00116155
-0.00104721
-0.000937971
-0.000830232
-0.000727695
-0.000631702
-0.000534953
-0.00042636
-0.000312764
-0.000202186
-8.93634e-05
3.02741e-05
0.000146741
0.000261381
0.000382057
0.000511369
0.000640897
0.000771249
0.000908933
0.00104311
0.00117963
0.00132769
0.00148169
0.0016309
0.00177262
0.00191904
0.00210329
0.00230579
0.0024945
0.00269034
0.00290656
0.00311186
0.00330748
0.00352571
0.00376342
0.00400703
0.00425214
0.00450256
0.00475399
0.00500501
0.00526506
0.00552945
0.00580769
0.00608965
0.00638355
0.00668704
0.00699301
0.00731611
0.00763393
0.00796844
0.0083048
0.00864691
0.00899949
0.00935827
0.00972114
0.0100406
0.0103949
0.00831672
0.00480653
-0.00167581
-0.00709546
-0.00886252
-0.00806611
-0.00680945
-0.00583442
-0.00509332
-0.00450705
-0.00411294
-0.0039046
-0.00379599
-0.00372238
-0.00361186
-0.00341523
-0.00320214
-0.00304785
-0.00295007
-0.00288589
-0.00281632
-0.00273087
-0.00268609
-0.00269201
-0.00267475
-0.00261157
-0.00254086
-0.00246345
-0.0023745
-0.0023117
-0.00226354
-0.00217459
-0.0020632
-0.00197436
-0.00190145
-0.00182355
-0.00174573
-0.00167666
-0.00161102
-0.00153937
-0.00145352
-0.00135982
-0.00126677
-0.00116102
-0.00104669
-0.000937486
-0.000829773
-0.000727256
-0.000631285
-0.000534559
-0.000425977
-0.000312384
-0.00020182
-8.90148e-05
3.06145e-05
0.000147072
0.000261695
0.000382359
0.000511661
0.000641175
0.000771507
0.000909182
0.00104335
0.00117985
0.0013279
0.00148189
0.00163109
0.00177279
0.00191919
0.00210342
0.00230592
0.00249463
0.00269044
0.00290667
0.00311196
0.00330755
0.00352578
0.00376349
0.00400709
0.00425219
0.00450261
0.00475404
0.00500505
0.0052651
0.00552947
0.00580771
0.00608967
0.00638356
0.00668706
0.00699303
0.00731612
0.00763394
0.00796845
0.00830481
0.00864691
0.0089995
0.00935828
0.00972116
0.0100407
0.010395
0.00770292
0.00464054
-0.00142319
-0.00671257
-0.00861869
-0.0079625
-0.00675383
-0.00579237
-0.00506139
-0.00448506
-0.00409865
-0.00389462
-0.00378699
-0.00371251
-0.00360179
-0.00340693
-0.00319638
-0.00304364
-0.00294595
-0.00288143
-0.00281206
-0.00272725
-0.00268293
-0.00268896
-0.00267171
-0.00260866
-0.00253828
-0.00246127
-0.00237258
-0.00230987
-0.00226176
-0.00217291
-0.00206164
-0.00197289
-0.00190003
-0.00182219
-0.0017445
-0.00167557
-0.00161004
-0.00153849
-0.00145273
-0.0013591
-0.0012661
-0.00116039
-0.00104608
-0.000936923
-0.000829254
-0.000726771
-0.000630829
-0.000534126
-0.000425555
-0.000311966
-0.000201416
-8.86294e-05
3.0988e-05
0.000147434
0.000262049
0.000382706
0.000512
0.000641496
0.000771802
0.00090947
0.00104363
0.00118012
0.00132815
0.00148213
0.00163131
0.001773
0.00191936
0.00210358
0.00230609
0.00249478
0.00269058
0.0029068
0.00311208
0.00330765
0.00352587
0.00376357
0.00400717
0.00425226
0.00450268
0.00475409
0.0050051
0.00526514
0.00552951
0.00580774
0.0060897
0.00638359
0.00668708
0.00699304
0.00731614
0.00763395
0.00796847
0.00830482
0.00864692
0.00899951
0.00935828
0.00972119
0.0100407
0.010395
0.00710224
0.00444592
-0.00118074
-0.00632143
-0.00835898
-0.00785108
-0.00669538
-0.00574653
-0.00502486
-0.00445924
-0.00408171
-0.00388279
-0.00377626
-0.0037004
-0.0035891
-0.00339651
-0.00318956
-0.00303908
-0.00294151
-0.00287626
-0.00280701
-0.00272319
-0.00267943
-0.00268524
-0.00266769
-0.00260465
-0.00253462
-0.00245826
-0.00237013
-0.00230756
-0.00225943
-0.00217077
-0.00205977
-0.00197109
-0.00189816
-0.00182034
-0.00174282
-0.00167409
-0.00160871
-0.00153731
-0.0014517
-0.00135818
-0.00126526
-0.00115959
-0.00104532
-0.000936237
-0.000828644
-0.000726219
-0.000630313
-0.000533635
-0.000425081
-0.000311498
-0.00020096
-8.81943e-05
3.14017e-05
0.000147836
0.000262452
0.000383118
0.000512407
0.000641879
0.000772151
0.000909813
0.00104398
0.00118046
0.00132847
0.00148242
0.00163158
0.00177326
0.0019196
0.00210379
0.00230629
0.00249497
0.00269077
0.00290698
0.00311224
0.00330778
0.00352598
0.00376368
0.00400727
0.00425236
0.00450276
0.00475417
0.00500516
0.00526519
0.00552956
0.00580779
0.00608974
0.00638362
0.00668711
0.00699307
0.00731616
0.00763397
0.00796848
0.00830484
0.00864693
0.00899952
0.00935829
0.00972122
0.0100408
0.0103952
0.00651683
0.00421928
-0.000955281
-0.0059249
-0.00808329
-0.0077317
-0.00663545
-0.00569888
-0.00498527
-0.00443053
-0.00406264
-0.00386938
-0.0037641
-0.00368665
-0.00357463
-0.00338466
-0.00318199
-0.00303429
-0.00293689
-0.00287062
-0.00280147
-0.00271898
-0.00267591
-0.00268116
-0.00266289
-0.00259955
-0.00252971
-0.00245414
-0.00236688
-0.00230452
-0.00225635
-0.00216808
-0.0020576
-0.00196901
-0.00189586
-0.00181799
-0.00174063
-0.0016721
-0.00160688
-0.00153567
-0.0014503
-0.00135698
-0.00126418
-0.00115857
-0.00104435
-0.000935369
-0.000827891
-0.00072556
-0.0006297
-0.000533053
-0.000424529
-0.00031096
-0.000200428
-8.76899e-05
3.18673e-05
0.000148284
0.000262919
0.000383611
0.000512902
0.000642343
0.000772572
0.000910232
0.00104443
0.00118091
0.00132889
0.00148279
0.00163193
0.00177361
0.00191993
0.00210408
0.00230656
0.00249523
0.00269103
0.00290723
0.00311245
0.00330796
0.00352616
0.00376384
0.00400742
0.00425249
0.00450289
0.00475428
0.00500526
0.00526528
0.00552963
0.00580785
0.0060898
0.00638367
0.00668716
0.0069931
0.0073162
0.007634
0.00796851
0.00830486
0.00864695
0.00899954
0.0093583
0.00972125
0.0100409
0.0103953
0.0059526
0.00396513
-0.000748919
-0.00552305
-0.00778955
-0.00760257
-0.00657409
-0.00565044
-0.00494343
-0.00439929
-0.0040416
-0.00385457
-0.00375085
-0.00367186
-0.00355914
-0.00337197
-0.0031739
-0.00302928
-0.00293212
-0.00286472
-0.00279568
-0.00271483
-0.00267262
-0.00267712
-0.00265777
-0.00259375
-0.00252375
-0.00244891
-0.00236265
-0.00230055
-0.00225235
-0.00216471
-0.00205511
-0.00196672
-0.00189328
-0.00181527
-0.00173804
-0.00166964
-0.0016045
-0.00153348
-0.00144843
-0.0013554
-0.00126278
-0.00115727
-0.00104315
-0.00093428
-0.000826948
-0.000724739
-0.000628934
-0.000532329
-0.000423862
-0.00031032
-0.00019979
-8.70862e-05
3.24054e-05
0.000148796
0.000263467
0.000384206
0.000513505
0.000642905
0.000773079
0.000910741
0.00104499
0.00118151
0.00132945
0.00148326
0.00163238
0.00177409
0.00192039
0.00210448
0.00230692
0.00249559
0.00269139
0.00290756
0.00311274
0.00330822
0.0035264
0.00376407
0.00400763
0.00425269
0.00450307
0.00475445
0.0050054
0.0052654
0.00552973
0.00580794
0.00608988
0.00638374
0.00668722
0.00699316
0.00731625
0.00763404
0.00796855
0.0083049
0.00864697
0.00899957
0.00935832
0.00972129
0.0100411
0.0103956
0.00541633
0.00369131
-0.000563303
-0.00511822
-0.00747812
-0.00746323
-0.006512
-0.00560254
-0.00490022
-0.00436578
-0.0040186
-0.00383844
-0.00373673
-0.0036564
-0.003543
-0.00335869
-0.00316538
-0.00302401
-0.00292719
-0.00285866
-0.00278975
-0.00271071
-0.00266955
-0.00267329
-0.0026527
-0.00258773
-0.00251721
-0.00244286
-0.00235756
-0.00229566
-0.00224739
-0.00216061
-0.00205222
-0.00196423
-0.00189054
-0.00181238
-0.00173525
-0.00166688
-0.00160168
-0.00153076
-0.00144604
-0.00135337
-0.00126098
-0.00115567
-0.0010417
-0.00093297
-0.000825802
-0.000723724
-0.000627964
-0.000531406
-0.000423034
-0.000309544
-0.00019901
-8.63496e-05
3.30444e-05