/*--------------------------------*- C++ -*----------------------------------*\
| =========                 |                                                 |
| \\      /  F ield         | OpenFOAM: The Open Source CFD Toolbox           |
|  \\    /   O peration     | Version:  v1812                                 |
|   \\  /    A nd           | Web:      www.OpenFOAM.com                      |
|    \\/     M anipulation  |                                                 |
\*---------------------------------------------------------------------------*/
FoamFile
{
    version     2.0;
    format      ascii;
    class       volVectorField;
    location    "0.8";
    object      U;
}
// * * * * * * * * * * * * * * * * * * * * * * * * * * * * * * * * * * * * * //

dimensions      [0 1 -1 0 0 0 0];


internalField   nonuniform List<vector> 
9600
(
(0.879579 -0.00100686 0)
(1.11749 -0.0066109 0)
(0.873255 0.00363161 0)
(1.13267 0.00052729 0)
(0.842083 0.000159869 0)
(1.15065 0.0022993 0)
(0.910246 -0.00100097 0)
(1.09978 0.000616567 0)
(0.930424 0.00763468 0)
(1.10796 -0.00402133 0)
(0.898624 0.00771347 0)
(1.12708 -0.00961013 0)
(0.868788 -0.00615176 0)
(1.14884 -0.00466588 0)
(0.870666 -0.00493139 0)
(1.14478 -0.000183385 0)
(0.873283 0.00023546 0)
(1.13843 0.00102972 0)
(0.863742 0.00267229 0)
(1.13 0.00431395 0)
(0.890271 -0.00104849 0)
(1.10532 -0.00641902 0)
(0.883417 0.00335221 0)
(1.11939 0.00111025 0)
(0.85972 -0.000260184 0)
(1.13455 0.00178484 0)
(0.927522 -0.000631133 0)
(1.08554 0.00063793 0)
(0.948242 0.00730923 0)
(1.08661 -0.0032904 0)
(0.924217 0.00711342 0)
(1.09265 -0.00875172 0)
(0.90464 -0.00693284 0)
(1.10332 -0.00452864 0)
(0.921781 -0.00506054 0)
(1.08799 -7.9884e-05 0)
(0.944408 0.000470874 0)
(1.0595 0.000918738 0)
(0.966447 0.00418402 0)
(1.01256 0.003184 0)
(0.909233 -0.00106543 0)
(1.08339 -0.00625623 0)
(0.904679 0.00309551 0)
(1.09555 0.00138506 0)
(0.892597 -0.000520959 0)
(1.10592 0.00129314 0)
(0.955353 -0.000259659 0)
(1.06183 0.000501487 0)
(0.97524 0.00715804 0)
(1.0588 -0.00284626 0)
(0.959388 0.00684623 0)
(1.05584 -0.00834709 0)
(0.950053 -0.00718039 0)
(1.05264 -0.00480585 0)
(0.973593 -0.00474185 0)
(1.03716 -0.000681846 0)
(0.992415 0.00113092 0)
(1.01924 0.00051822 0)
(1.00082 0.00483642 0)
(0.99878 0.00394958 0)
(0.932804 -0.00103757 0)
(1.05549 -0.00616101 0)
(0.932578 0.00289596 0)
(1.06693 0.00153809 0)
(0.931339 -0.000697455 0)
(1.07374 0.000822649 0)
(0.982387 7.20072e-05 0)
(1.03877 0.000357839 0)
(0.998916 0.00713011 0)
(1.03631 -0.00257754 0)
(0.987649 0.00682982 0)
(1.03004 -0.00814354 0)
(0.980382 -0.0070564 0)
(1.02115 -0.00526786 0)
(0.999137 -0.00444637 0)
(1.01613 -0.00108484 0)
(1.00769 0.00143511 0)
(1.01335 0.000409068 0)
(1.00698 0.00516542 0)
(1.00527 0.00487014 0)
(0.9565 -0.000959278 0)
(1.02772 -0.00613187 0)
(0.960071 0.0027309 0)
(1.0401 0.00158356 0)
(0.965486 -0.00080961 0)
(1.04641 0.000419912 0)
(1.00041 0.000344618 0)
(1.02271 0.000239234 0)
(1.01322 0.00710708 0)
(1.02278 -0.00236003 0)
(1.00336 0.00686713 0)
(1.01612 -0.00792799 0)
(0.993187 -0.00686953 0)
(1.00675 -0.00563696 0)
(1.00524 -0.004357 0)
(1.01015 -0.00134774 0)
(1.01065 0.0015256 0)
(1.01388 0.000380909 0)
(1.01007 0.0054191 0)
(1.00883 0.00559085 0)
(0.976404 -0.000837876 0)
(1.00582 -0.00615299 0)
(0.981388 0.00257881 0)
(1.01968 0.00155241 0)
(0.98918 -0.000897796 0)
(1.02752 0.000147594 0)
(1.00803 0.000531139 0)
(1.01348 0.000127521 0)
(1.01871 0.00706645 0)
(1.01554 -0.00216374 0)
(1.00924 0.00691569 0)
(1.00919 -0.00765119 0)
(0.996349 -0.00669026 0)
(1.00003 -0.00588583 0)
(1.00365 -0.00441603 0)
(1.0066 -0.00159907 0)
(1.01004 0.00147218 0)
(1.01278 0.000356436 0)
(1.01129 0.00551813 0)
(1.0104 0.00619142 0)
(0.990495 -0.000694394 0)
(0.992518 -0.00619671 0)
(0.994276 0.00243082 0)
(1.00688 0.00148506 0)
(1.00213 -0.000981404 0)
(1.01609 1.27566e-05 0)
(1.00849 0.00064069 0)
(1.00801 1.43788e-05 0)
(1.01846 0.00701162 0)
(1.01103 -0.0019809 0)
(1.00982 0.00696624 0)
(1.00556 -0.00733899 0)
(0.996371 -0.00650014 0)
(0.996211 -0.006064 0)
(1.00037 -0.00451642 0)
(1.00272 -0.00187243 0)
(1.00752 0.00129274 0)
(1.01006 0.000347836 0)
(1.01002 0.00543896 0)
(1.01017 0.006717 0)
(0.998853 -0.000553669 0)
(0.987112 -0.0062353 0)
(0.999782 0.00229062 0)
(1.00026 0.00140638 0)
(1.00718 -0.00106082 0)
(1.00935 -1.85365e-05 0)
(1.00581 0.000707325 0)
(1.00402 -0.000100808 0)
(1.01526 0.006945 0)
(1.00753 -0.00181364 0)
(1.00826 0.00699459 0)
(1.0037 -0.00701652 0)
(0.996138 -0.00630628 0)
(0.994088 -0.00617157 0)
(0.997472 -0.0046098 0)
(0.999027 -0.00213538 0)
(1.00399 0.00104599 0)
(1.00641 0.000376345 0)
(1.00699 0.00523205 0)
(1.0081 0.00715137 0)
(1.00289 -0.000433015 0)
(0.986908 -0.00625244 0)
(1.00055 0.00216732 0)
(0.997508 0.00132424 0)
(1.00771 -0.00112734 0)
(1.00509 1.097e-05 0)
(1.00266 0.000758413 0)
(1.00079 -0.000210343 0)
(1.0111 0.00686704 0)
(1.00474 -0.00167178 0)
(1.0062 0.00697944 0)
(1.00306 -0.00670906 0)
(0.996355 -0.00611779 0)
(0.993302 -0.00619144 0)
(0.995504 -0.00468237 0)
(0.996079 -0.00234226 0)
(1.00037 0.000784809 0)
(1.00248 0.000446834 0)
(1.00312 0.00494865 0)
(1.00471 0.00749469 0)
(1.0043 -0.000339024 0)
(0.989116 -0.00624317 0)
(0.999118 0.00206681 0)
(0.996771 0.00124198 0)
(1.00619 -0.00117164 0)
(1.00212 6.58576e-05 0)
(1.0002 0.000804946 0)
(0.998325 -0.000303375 0)
(1.0072 0.0067746 0)
(1.00275 -0.00156017 0)
(1.00435 0.00690965 0)
(1.00321 -0.00642932 0)
(0.996905 -0.00593506 0)
(0.993396 -0.00612789 0)
(0.994417 -0.00473476 0)
(0.993995 -0.00245012 0)
(0.997217 0.000529607 0)
(0.998842 0.000562518 0)
(0.999149 0.00464693 0)
(1.00077 0.00776157 0)
(1.00444 -0.000270684 0)
(0.991871 -0.0062088 0)
(0.99715 0.00199001 0)
(0.996915 0.00116205 0)
(1.0041 -0.00118935 0)
(0.999939 0.00012182 0)
(0.998637 0.000847749 0)
(0.99667 -0.000374266 0)
(1.00414 0.00666464 0)
(1.00153 -0.00147501 0)
(1.00295 0.00678272 0)
(1.0037 -0.00617238 0)
(0.997528 -0.0057633 0)
(0.993873 -0.00599731 0)
(0.99396 -0.00476386 0)
(0.992644 -0.0024542 0)
(0.994783 0.000288346 0)
(0.99584 0.000736024 0)
(0.99565 0.0043864 0)
(0.997001 0.00795514 0)
(1.00411 -0.000222596 0)
(0.994289 -0.00615457 0)
(0.995398 0.00193257 0)
(0.997353 0.00108655 0)
(1.00215 -0.00118141 0)
(0.998348 0.000165471 0)
(0.997814 0.000884256 0)
(0.995705 -0.000422609 0)
(1.00199 0.00653699 0)
(1.00089 -0.00140883 0)
(1.00196 0.00660594 0)
(1.00419 -0.00592903 0)
(0.99805 -0.00560819 0)
(0.994373 -0.00580529 0)
(0.993865 -0.00477362 0)
(0.991822 -0.0023721 0)
(0.99307 7.82844e-05 0)
(0.993596 0.000961428 0)
(0.992921 0.00420654 0)
(0.993871 0.00806653 0)
(1.0037 -0.000188899 0)
(0.996111 -0.00608603 0)
(0.994077 0.00188929 0)
(0.997799 0.00101617 0)
(1.00063 -0.00115149 0)
(0.99722 0.000191903 0)
(0.997471 0.000912288 0)
(0.995234 -0.000449964 0)
(1.00056 0.00639363 0)
(1.00056 -0.00135365 0)
(1.00127 0.00638894 0)
(1.00449 -0.00568699 0)
(0.998413 -0.00547394 0)
(0.994728 -0.00555925 0)
(0.993932 -0.00477838 0)
(0.991352 -0.00221465 0)
(0.991964 -8.0269e-05 0)
(0.99207 0.00121428 0)
(0.991019 0.00412987 0)
(0.991594 0.00809552 0)
(1.00336 -0.000164577 0)
(0.997359 -0.00600762 0)
(0.993178 0.0018561 0)
(0.998131 0.000949865 0)
(0.999573 -0.00110437 0)
(0.996461 0.000201909 0)
(0.997387 0.000930729 0)
(0.995073 -0.000457592 0)
(0.999646 0.0062366 0)
(1.00038 -0.00130084 0)
(1.00076 0.00613824 0)
(1.00456 -0.0054364 0)
(0.998628 -0.00536098 0)
(0.994913 -0.00527072 0)
(0.99405 -0.00478671 0)
(0.991118 -0.00199761 0)
(0.991317 -0.000191941 0)
(0.991144 0.00146041 0)
(0.989856 0.00416459 0)
(0.990158 0.00805872 0)
(1.0031 -0.000145538 0)
(0.998149 -0.00592291 0)
(0.99263 0.00183021 0)
(0.998321 0.000885891 0)
(0.99893 -0.00104527 0)
(0.995992 0.000199546 0)
(0.997407 0.000939863 0)
(0.995088 -0.000447871 0)
(0.999074 0.00606835 0)
(1.00026 -0.00124392 0)
(1.00037 0.00585978 0)
(1.00445 -0.00517171 0)
(0.998739 -0.00526968 0)
(0.994975 -0.004947 0)
(0.994172 -0.004794 0)
(0.991046 -0.00175827 0)
(0.990999 -0.000264907 0)
(0.990682 0.00166186 0)
(0.989276 0.00429762 0)
(0.989427 0.00798081 0)
(1.00293 -0.000128692 0)
(0.99861 -0.00583479 0)
(0.99235 0.00180991 0)
(0.998396 0.0008232 0)
(0.998582 -0.000979264 0)
(0.995743 0.000189735 0)
(0.99745 0.000940921 0)
(0.995189 -0.000425725 0)
(0.99874 0.00589029 0)
(1.00018 -0.001179 0)
(1.00007 0.00555811 0)
(1.00421 -0.004886 0)
(0.998792 -0.00520196 0)
(0.994978 -0.00459247 0)
(0.994289 -0.00480007 0)
(0.991092 -0.00151191 0)
(0.990902 -0.000277318 0)
(0.990554 0.00179879 0)
(0.989114 0.00449691 0)
(0.989213 0.00788461 0)
(1.0028 -0.000111718 0)
(0.998861 -0.00574584 0)
(0.992257 0.00179413 0)
(0.998403 0.000761127 0)
(0.998418 -0.000909969 0)
(0.995643 0.000176405 0)
(0.997486 0.000934987 0)
(0.995322 -0.000392852 0)
(0.998565 0.00570099 0)
(1.00013 -0.00110126 0)
(0.999852 0.00523387 0)
(1.00392 -0.00457656 0)
(0.998821 -0.00515639 0)
(0.994965 -0.00421747 0)
(0.994405 -0.00479658 0)
(0.991219 -0.00127633 0)
(0.990942 -0.000215811 0)
(0.990643 0.00187987 0)
(0.989224 0.00472556 0)
(0.989333 0.00779186 0)
(1.00271 -9.30647e-05 0)
(0.998993 -0.00565806 0)
(0.992279 0.00178216 0)
(0.99838 0.000699284 0)
(0.998354 -0.000839827 0)
(0.995633 0.000162612 0)
(0.997512 0.000922652 0)
(0.995462 -0.000349389 0)
(0.998486 0.00550007 0)
(1.00011 -0.00100899 0)
(0.999688 0.00489035 0)
(1.0036 -0.0042491 0)
(0.998844 -0.00512591 0)
(0.994959 -0.00383593 0)
(0.994527 -0.00476793 0)
(0.991402 -0.00108348 0)
(0.991059 -7.17274e-05 0)
(0.99086 0.00192313 0)
(0.989491 0.00494659 0)
(0.989635 0.00771937 0)
(1.00262 -7.18766e-05 0)
(0.999068 -0.00557276 0)
(0.992363 0.00177381 0)
(0.99835 0.000637799 0)
(0.998341 -0.000770759 0)
(0.995669 0.000150909 0)
(0.997531 0.00090401 0)
(0.995599 -0.000296595 0)
(0.998457 0.00528571 0)
(1.0001 -0.000898753 0)
(0.99956 0.00453132 0)
(1.00328 -0.00390582 0)
(0.998872 -0.00510334 0)
(0.994968 -0.00346005 0)
(0.994654 -0.00470001 0)
(0.991625 -0.000948506 0)
(0.991214 0.000143327 0)
(0.991144 0.00194309 0)
(0.989841 0.00512876 0)
(0.990015 0.00767673 0)
(1.00254 -4.76486e-05 0)
(0.99912 -0.00549077 0)
(0.992476 0.00176903 0)
(0.998324 0.000577155 0)
(0.998349 -0.000704467 0)
(0.995725 0.000143173 0)
(0.997548 0.000878237 0)
(0.995733 -0.000234434 0)
(0.99845 0.0050577 0)
(1.0001 -0.000773523 0)
(0.999455 0.00416448 0)
(1.00296 -0.00355058 0)
(0.998908 -0.00507861 0)
(0.994993 -0.00310138 0)
(0.994784 -0.00457817 0)
(0.991879 -0.000864957 0)
(0.991388 0.000403407 0)
(0.991457 0.00195944 0)
(0.990231 0.00525563 0)
(0.990413 0.00766508 0)
(1.00246 -2.0211e-05 0)
(0.999166 -0.0054125 0)
(0.992602 0.00176754 0)
(0.998301 0.000517794 0)
(0.998368 -0.000641435 0)
(0.995786 0.000140675 0)
(0.997565 0.000843807 0)
(0.995865 -0.000162929 0)
(0.998449 0.00481437 0)
(1.00011 -0.000636673 0)
(0.999363 0.00379092 0)
(1.00265 -0.00319549 0)
(0.998952 -0.00504308 0)
(0.995031 -0.0027753 0)
(0.994913 -0.00439892 0)
(0.992159 -0.000816012 0)
(0.991573 0.000688486 0)
(0.99178 0.00199196 0)
(0.990643 0.00532325 0)
(0.990801 0.00768134 0)
(1.00237 1.05984e-05 0)
(0.999214 -0.00533832 0)
(0.992734 0.00176945 0)
(0.998283 0.000459533 0)
(0.998392 -0.000581387 0)
(0.995849 0.000143739 0)
(0.997584 0.000801299 0)
(0.995997 -8.2192e-05 0)
(0.998451 0.00455637 0)
(1.00011 -0.00049004 0)
(0.999281 0.00341306 0)
(1.00234 -0.00284669 0)
(0.999002 -0.0049882 0)
(0.995082 -0.00248894 0)
(0.995039 -0.00416844 0)
(0.992459 -0.000801233 0)
(0.991768 0.000970564 0)
(0.992103 0.00204722 0)
(0.991072 0.00533211 0)
(0.991172 0.00771565 0)
(1.00229 4.47045e-05 0)
(0.999265 -0.00526853 0)
(0.992869 0.00177486 0)
(0.998267 0.000403521 0)
(0.99842 -0.000525847 0)
(0.995913 0.000155306 0)
(0.997606 0.000748401 0)
(0.99613 9.59217e-06 0)
(0.998454 0.00428781 0)
(1.00011 -0.000339326 0)
(0.999207 0.00304456 0)
(1.00203 -0.00251398 0)
(0.999056 -0.00490169 0)
(0.995149 -0.0022387 0)
(0.995158 -0.00388793 0)
(0.992779 -0.000807432 0)
(0.991975 0.00124144 0)
(0.992421 0.00212917 0)
(0.991517 0.00528532 0)
(0.991529 0.00775067 0)
(1.0022 8.22895e-05 0)
(0.999319 -0.00520334 0)
(0.993007 0.00178257 0)
(0.998253 0.000351628 0)
(0.998453 -0.000477147 0)
(0.995976 0.000178553 0)
(0.997631 0.000681432 0)
(0.996264 0.000111768 0)
(0.998459 0.00401368 0)
(1.0001 -0.000191539 0)
(0.99914 0.00269635 0)
(1.00173 -0.00221183 0)
(0.99911 -0.00477638 0)
(0.99523 -0.00202464 0)
(0.99527 -0.00356301 0)
(0.993113 -0.000814188 0)
(0.992198 0.00149987 0)
(0.99273 0.0022418 0)
(0.991977 0.00518813 0)
(0.99188 0.00776946 0)
(1.00211 0.000122916 0)
(0.999377 -0.00514161 0)
(0.993149 0.00179157 0)
(0.998241 0.00030436 0)
(0.99849 -0.000436777 0)
(0.99604 0.000213715 0)
(0.99766 0.000600991 0)
(0.996399 0.000222105 0)
(0.998465 0.00373853 0)
(1.0001 -5.48917e-05 0)
(0.99908 0.00237569 0)
(1.00144 -0.00194341 0)
(0.999163 -0.00461588 0)
(0.995328 -0.00184596 0)
(0.995376 -0.00321405 0)
(0.993461 -0.000811775 0)
(0.992439 0.00173673 0)
(0.993026 0.00238616 0)
(0.992449 0.005049 0)
(0.992235 0.0077535 0)
(1.00202 0.000166524 0)
(0.999439 -0.00508305 0)
(0.993296 0.0018019 0)
(0.99823 0.000262734 0)
(0.998532 -0.0004067 0)
(0.996105 0.000262732 0)
(0.997694 0.000508786 0)
(0.996536 0.000335116 0)
(0.998475 0.00346849 0)
(1.00009 6.33926e-05 0)
(0.999027 0.00209242 0)
(1.00116 -0.0017073 0)
(0.999215 -0.00443104 0)
(0.995442 -0.00168827 0)
(0.995478 -0.0028475 0)
(0.993818 -0.000796497 0)
(0.992702 0.00194348 0)
(0.993306 0.00256035 0)
(0.992928 0.00488093 0)
(0.992604 0.00768277 0)
(1.00192 0.000212901 0)
(0.999505 -0.00502742 0)
(0.993447 0.00181208 0)
(0.998219 0.000230507 0)
(0.99858 -0.000389145 0)
(0.99617 0.000327435 0)
(0.997733 0.000404269 0)
(0.996674 0.000448344 0)
(0.998486 0.00320939 0)
(1.00008 0.000156785 0)
(0.998981 0.00184915 0)
(1.00089 -0.00150044 0)
(0.999267 -0.00422105 0)
(0.995574 -0.00154001 0)
(0.995576 -0.00246343 0)
(0.994182 -0.000765007 0)
(0.99299 0.00211495 0)
(0.99357 0.00276438 0)
(0.993406 0.00470405 0)
(0.993 0.00754018 0)
(1.00183 0.000261389 0)
(0.999574 -0.00497324 0)
(0.993603 0.00181785 0)
(0.998208 0.000210111 0)
(0.998634 -0.000384454 0)
(0.996237 0.000408575 0)
(0.997778 0.000290537 0)
(0.996815 0.000556248 0)
(0.998499 0.00296679 0)
(1.00007 0.000220754 0)
(0.99894 0.0016409 0)
(1.00063 -0.00131306 0)
(0.999317 -0.00399789 0)
(0.995725 -0.00139825 0)
(0.995671 -0.00206981 0)
(0.994549 -0.000712063 0)
(0.993307 0.0022413 0)
(0.993817 0.00299137 0)
(0.993872 0.00454104 0)
(0.993429 0.00731374 0)
(1.00173 0.000312259 0)
(0.999646 -0.00492108 0)
(0.993767 0.00181864 0)
(0.998197 0.000202843 0)
(0.998694 -0.000394537 0)
(0.996304 0.000504407 0)
(0.997827 0.000174695 0)
(0.996959 0.00065315 0)
(0.998514 0.0027492 0)
(1.00006 0.000251156 0)
(0.998907 0.0014631 0)
(1.00038 -0.00113405 0)
(0.999367 -0.00377045 0)
(0.995894 -0.00125503 0)
(0.995766 -0.0016672 0)
(0.994913 -0.000638707 0)
(0.993654 0.00231254 0)
(0.994055 0.00322584 0)
(0.994314 0.00441897 0)
(0.993893 0.00701058 0)
(1.00164 0.000363964 0)
(0.999723 -0.00486836 0)
(0.993938 0.00181181 0)
(0.998185 0.000212589 0)
(0.99876 -0.000421558 0)
(0.996372 0.000613774 0)
(0.997882 5.57498e-05 0)
(0.997109 0.000731607 0)
(0.998529 0.00256791 0)
(1.00005 0.000249908 0)
(0.998882 0.00131441 0)
(1.00015 -0.000952139 0)
(0.999418 -0.00354075 0)
(0.996085 -0.00111436 0)
(0.99586 -0.00125812 0)
(0.995267 -0.000535279 0)
(0.994033 0.00233266 0)
(0.99429 0.0034506 0)
(0.99472 0.00435849 0)
(0.994384 0.00665595 0)
(1.00154 0.000416283 0)
(0.999803 -0.00481119 0)
(0.994117 0.00178947 0)
(0.998172 0.000244135 0)
(0.998834 -0.000465996 0)
(0.996441 0.000735559 0)
(0.997941 -6.0213e-05 0)
(0.997265 0.000778403 0)
(0.998546 0.00242506 0)
(1.00004 0.000223912 0)
(0.998868 0.00118364 0)
(0.999922 -0.000758761 0)
(0.999469 -0.00330962 0)
(0.996299 -0.000984884 0)
(0.995958 -0.000858143 0)
(0.995605 -0.000406594 0)
(0.994441 0.00230308 0)
(0.994534 0.00364216 0)
(0.995083 0.00436401 0)
(0.994886 0.00628715 0)
(1.00145 0.000468732 0)
(0.999886 -0.00475005 0)
(0.994305 0.00175233 0)
(0.998159 0.000301003 0)
(0.998915 -0.000524639 0)
(0.996511 0.00086092 0)
(0.998 -0.000160215 0)
(0.99743 0.000790683 0)
(0.998562 0.00231907 0)
(1.00003 0.000181376 0)
(0.998869 0.00105991 0)
(0.99971 -0.000552578 0)
(0.999518 -0.00306376 0)
(0.996536 -0.000870288 0)
(0.996061 -0.000463918 0)
(0.995922 -0.000250956 0)
(0.994874 0.00223375 0)
(0.994799 0.00377949 0)
(0.995405 0.00442573 0)
(0.995376 0.00595334 0)
(1.00136 0.000519809 0)
(0.999972 -0.00468274 0)
(0.994504 0.00169671 0)
(0.998145 0.000378844 0)
(0.999003 -0.000591894 0)
(0.996583 0.000982992 0)
(0.998058 -0.000234857 0)
(0.997605 0.000760868 0)
(0.998581 0.0022482 0)
(1.00002 0.000135298 0)
(0.998887 0.000939614 0)
(0.999513 -0.000331574 0)
(0.999563 -0.0027974 0)
(0.996797 -0.000780942 0)
(0.996174 -8.40901e-05 0)
(0.996211 -5.89531e-05 0)
(0.995323 0.00214187 0)
(0.995095 0.00384774 0)
(0.995693 0.00451571 0)
(0.995833 0.00569616 0)
(1.00126 0.000568598 0)
(1.00006 -0.00460635 0)
(0.994713 0.00161676 0)
(0.998131 0.000480951 0)
(0.999097 -0.00066909 0)
(0.996659 0.00109746 0)
(0.998113 -0.000274652 0)
(0.997789 0.000689346 0)
(0.998602 0.0022006 0)
(1.00002 9.91848e-05 0)
(0.998924 0.000812718 0)
(0.999334 -0.000101235 0)
(0.999599 -0.00250463 0)
(0.99708 -0.000721722 0)
(0.996305 0.000259223 0)
(0.996471 0.000169159 0)
(0.99578 0.00204835 0)
(0.995429 0.00385291 0)
(0.995964 0.00459945 0)
(0.996243 0.00552601 0)
(1.00117 0.000614423 0)
(1.00015 -0.00451742 0)
(0.994935 0.00151069 0)
(0.998117 0.00060293 0)
(0.999198 -0.000748235 0)
(0.996743 0.00119402 0)
(0.998162 -0.000274881 0)
(0.997983 0.000579191 0)
(0.99863 0.00216769 0)
(1 8.44441e-05 0)
(0.998982 0.000674712 0)
(0.999177 0.000125446 0)
(0.999623 -0.0021813 0)
(0.997381 -0.000682917 0)
(0.99646 0.000557448 0)
(0.996702 0.00043662 0)
(0.996231 0.00197013 0)
(0.995799 0.00380824 0)
(0.996235 0.00464967 0)
(0.996606 0.00541817 0)
(1.00108 0.000655416 0)
(1.00023 -0.00441322 0)
(0.99517 0.00138051 0)
(0.998104 0.00073844 0)
(0.999302 -0.000822262 0)
(0.996834 0.0012671 0)
(0.998204 -0.000231019 0)
(0.998185 0.000439114 0)
(0.998668 0.00213792 0)
(0.999979 0.000100615 0)
(0.99906 0.000528457 0)
(0.999049 0.000338908 0)
(0.999632 -0.00182518 0)
(0.997692 -0.000650338 0)
(0.996648 0.000796726 0)
(0.996909 0.000729848 0)
(0.996667 0.00191554 0)
(0.9962 0.00372304 0)
(0.996516 0.00466485 0)
(0.99693 0.00534499 0)
(1.00099 0.000690691 0)
(1.00032 -0.00429377 0)
(0.995418 0.00123064 0)
(0.998092 0.000884497 0)
(0.999409 -0.000886914 0)
(0.996936 0.00130909 0)
(0.998236 -0.000141883 0)
(0.998392 0.000287873 0)
(0.99872 0.00210075 0)
(0.99995 0.000156527 0)
(0.999156 0.000381944 0)
(0.998954 0.000524684 0)
(0.999625 -0.00143955 0)
(0.998005 -0.0006093 0)
(0.996871 0.000968226 0)
(0.997099 0.00103328 0)
(0.997078 0.00189812 0)
(0.996629 0.00360269 0)
(0.996817 0.00464604 0)
(0.997227 0.00528301 0)
(1.00091 0.00071958 0)
(1.0004 -0.00415469 0)
(0.995679 0.00106191 0)
(0.998083 0.00102929 0)
(0.999515 -0.000930074 0)
(0.997051 0.00131722 0)
(0.998259 -2.10665e-05 0)
(0.998601 0.000134413 0)
(0.998789 0.00204373 0)
(0.999913 0.00026458 0)
(0.999266 0.000242687 0)
(0.998899 0.000663165 0)
(0.999606 -0.00104224 0)
(0.998309 -0.000541825 0)
(0.997133 0.00107804 0)
(0.99728 0.00133015 0)
(0.997455 0.00193136 0)
(0.997074 0.00345398 0)
(0.997145 0.00458371 0)
(0.997511 0.00521387 0)
(1.00083 0.000740921 0)
(1.00048 -0.00399346 0)
(0.995952 0.000875964 0)
(0.998079 0.00116732 0)
(0.999619 -0.000950752 0)
(0.997179 0.00129376 0)
(0.998273 0.000125553 0)
(0.998808 -1.23081e-06 0)
(0.998881 0.0019555 0)
(0.999868 0.000416816 0)
(0.999381 0.000131044 0)
(0.998887 0.00074663 0)
(0.999581 -0.00065284 0)
(0.998596 -0.000439809 0)
(0.997429 0.00113344 0)
(0.997466 0.00159244 0)
(0.997791 0.00201621 0)
(0.997522 0.00330146 0)
(0.997501 0.00447704 0)
(0.997794 0.00513222 0)
(1.00075 0.000754859 0)
(1.00055 -0.00380979 0)
(0.996235 0.00067544 0)
(0.99808 0.00129059 0)
(0.999718 -0.00094602 0)
(0.997322 0.00123896 0)
(0.998281 0.000296565 0)
(0.999006 -0.000108755 0)
(0.998996 0.00183475 0)
(0.99982 0.000587808 0)
(0.999494 6.18632e-05 0)
(0.998917 0.000777085 0)
(0.999559 -0.000288061 0)
(0.99886 -0.000301421 0)
(0.997755 0.0011502 0)
(0.997669 0.00180244 0)
(0.998091 0.00214192 0)
(0.997959 0.00317292 0)
(0.997885 0.00432747 0)
(0.998086 0.00502815 0)
(1.00067 0.000758724 0)
(1.00062 -0.0035965 0)
(0.996528 0.000461273 0)
(0.998089 0.00139115 0)
(0.99981 -0.000910437 0)
(0.997479 0.00115623 0)
(0.998284 0.00047694 0)
(0.999191 -0.000182176 0)
(0.999136 0.00168484 0)
(0.999774 0.000763459 0)
(0.999598 4.56275e-05 0)
(0.998987 0.000773813 0)
(0.99955 3.97184e-05 0)
(0.999098 -0.000127475 0)
(0.998099 0.00114902 0)
(0.997898 0.00195669 0)
(0.99836 0.0022878 0)
(0.998367 0.0030914 0)
(0.998285 0.00415451 0)
(0.998394 0.00489476 0)
(1.0006 0.000752429 0)
(1.00067 -0.00335436 0)
(0.996826 0.000238462 0)
(0.998107 0.00146197 0)
(0.999892 -0.000844492 0)
(0.997648 0.00105124 0)
(0.998286 0.00065531 0)
(0.999358 -0.00020834 0)
(0.999298 0.00151113 0)
(0.999737 0.000927634 0)
(0.999689 8.76563e-05 0)
(0.99909 0.000752232 0)
(0.999559 0.000329868 0)
(0.999309 7.07422e-05 0)
(0.998453 0.0011415 0)
(0.998157 0.00205596 0)
(0.998613 0.0024241 0)
(0.998741 0.00305441 0)
(0.998689 0.00398629 0)
(0.998719 0.0047346 0)
(1.00054 0.00073727 0)
(1.00071 -0.00308896 0)
(0.997125 1.74273e-05 0)
(0.998136 0.00150058 0)
(0.999963 -0.000753745 0)
(0.997829 0.000937743 0)
(0.998289 0.000819508 0)
(0.999503 -0.000185735 0)
(0.999477 0.0013283 0)
(0.999715 0.00106781 0)
(0.999765 0.000175206 0)
(0.999218 0.000723082 0)
(0.999592 0.000576317 0)
(0.999494 0.000290675 0)
(0.998805 0.00114239 0)
(0.998446 0.00210767 0)
(0.99886 0.00253939 0)
(0.999082 0.00304804 0)
(0.999082 0.00383789 0)
(0.999055 0.00455833 0)
(1.00047 0.000712029 0)
(1.00074 -0.00280513 0)
(0.997421 -0.000198529 0)
(0.998177 0.00150275 0)
(1.00002 -0.000639284 0)
(0.998018 0.000820219 0)
(0.998299 0.000959162 0)
(0.999623 -0.000120515 0)
(0.999669 0.00115296 0)
(0.999712 0.00117253 0)
(0.999824 0.000296578 0)
(0.999363 0.000703354 0)
(0.999653 0.000772157 0)
(0.999656 0.000527922 0)
(0.999145 0.0011618 0)
(0.998762 0.00210639 0)
(0.999112 0.00262336 0)
(0.999393 0.00306464 0)
(0.999456 0.00371905 0)
(0.999395 0.00438616 0)
(1.00042 0.000678268 0)
(1.00076 -0.00251631 0)
(0.99771 -0.000397648 0)
(0.998232 0.00146389 0)
(1.00007 -0.000507705 0)
(0.99821 0.000708379 0)
(0.998318 0.00106784 0)
(0.999718 -2.40794e-05 0)
(0.999866 0.000999555 0)
(0.999731 0.00124069 0)
(0.99987 0.000435378 0)
(0.999516 0.000698567 0)
(0.999745 0.000924065 0)
(0.999803 0.000768976 0)
(0.999458 0.00121805 0)
(0.999095 0.00207244 0)
(0.999382 0.00266261 0)
(0.999685 0.00308444 0)
(0.999807 0.00362771 0)
(0.999734 0.00421994 0)
(1.00036 0.000638158 0)
(1.00076 -0.00222869 0)
(0.997987 -0.000565594 0)
(0.998301 0.00138765 0)
(1.0001 -0.00036696 0)
(0.9984 0.000611685 0)
(0.998346 0.00114379 0)
(0.99979 9.87566e-05 0)
(1.00006 0.000880605 0)
(0.999772 0.00129015 0)
(0.999904 0.000580928 0)
(0.99967 0.000700954 0)
(0.999866 0.00103274 0)
(0.999944 0.000993679 0)
(0.99974 0.0013079 0)
(0.999431 0.00203649 0)
(0.99967 0.00265339 0)
(0.999967 0.00308814 0)
(1.00013 0.00356131 0)
(1.00006 0.00406848 0)
(1.00031 0.000593867 0)
(1.00075 -0.00195159 0)
(0.998247 -0.000688246 0)
(0.998384 0.00127521 0)
(1.00013 -0.000226725 0)
(0.998585 0.000539575 0)
(0.998385 0.00119343 0)
(0.999843 0.000229215 0)
(1.00025 0.000789851 0)
(0.999834 0.00132816 0)
(0.999928 0.000732693 0)
(0.999818 0.00071391 0)
(1.00002 0.00110164 0)
(1.00009 0.00119332 0)
(0.99999 0.00142401 0)
(0.999755 0.00201616 0)
(0.999972 0.00260425 0)
(1.00025 0.00305703 0)
(1.00044 0.0035005 0)
(1.00038 0.00393924 0)
(1.00027 0.000547532 0)
(1.00072 -0.00169319 0)
(0.998489 -0.000761552 0)
(0.998477 0.00113496 0)
(1.00016 -0.00010274 0)
(0.998763 0.000495606 0)
(0.998432 0.00122342 0)
(0.999879 0.000355419 0)
(1.00043 0.000722987 0)
(0.999915 0.00135381 0)
(0.999941 0.000890759 0)
(0.999953 0.000745919 0)
(1.00019 0.00112873 0)
(1.00024 0.00135805 0)
(1.00021 0.00156627 0)
(1.00005 0.00202375 0)
(1.00027 0.00254572 0)
(1.00055 0.00299111 0)
(1.00074 0.0034255 0)
(1.00067 0.00382708 0)
(1.00023 0.000500904 0)
(1.00069 -0.00145636 0)
(0.998709 -0.000791383 0)
(0.998578 0.000982304 0)
(1.00018 -5.5252e-06 0)
(0.998933 0.000476657 0)
(0.998485 0.00124533 0)
(0.999898 0.00046769 0)
(1.00061 0.000670876 0)
(1.00002 0.00137121 0)
(0.999948 0.00106425 0)
(1.00006 0.000807371 0)
(1.00038 0.00112023 0)
(1.00041 0.00146596 0)
(1.00042 0.00170807 0)
(1.00032 0.00205752 0)
(1.00056 0.00249781 0)
(1.00084 0.00290279 0)
(1.00104 0.00332257 0)
(1.00095 0.00371657 0)
(1.00019 0.000455513 0)
(1.00065 -0.0012438 0)
(0.998907 -0.000783978 0)
(0.998683 0.000831494 0)
(1.0002 6.09674e-05 0)
(0.999096 0.000470167 0)
(0.998541 0.00127156 0)
(0.9999 0.000571429 0)
(1.00077 0.000618456 0)
(1.00014 0.001373 0)
(0.999952 0.00124595 0)
(1.00014 0.000907057 0)
(1.00056 0.00110483 0)
(1.00061 0.00151694 0)
(1.00061 0.00182972 0)
(1.00055 0.0021221 0)
(1.00082 0.00246818 0)
(1.00112 0.00281263 0)
(1.00134 0.00319108 0)
(1.00124 0.00358517 0)
(1.00016 0.000413922 0)
(1.0006 -0.0010583 0)
(0.999082 -0.000749503 0)
(0.998788 0.000699939 0)
(1.00023 9.51151e-05 0)
(0.999256 0.000464797 0)
(0.998602 0.00131072 0)
(0.999882 0.000680683 0)
(1.00092 0.000563726 0)
(1.00029 0.001349 0)
(0.999963 0.00142393 0)
(1.00018 0.00104677 0)
(1.00074 0.00110096 0)
(1.00084 0.00150901 0)
(1.00082 0.00190885 0)
(1.00076 0.00219913 0)
(1.00105 0.00246418 0)
(1.00138 0.00274227 0)
(1.00163 0.00305871 0)
(1.00153 0.00343172 0)
(1.00013 0.000375713 0)
(1.00055 -0.000897173 0)
(0.999238 -0.000694071 0)
(0.998889 0.0005931 0)
(1.00026 0.000103712 0)
(0.999419 0.000447766 0)
(0.998669 0.00135253 0)
(0.999841 0.000804229 0)
(1.00105 0.000515826 0)
(1.00048 0.00128673 0)
(0.999992 0.00158992 0)
(1.00019 0.00123579 0)
(1.00088 0.00113285 0)
(1.00107 0.00146785 0)
(1.00105 0.00193229 0)
(1.00096 0.00225804 0)
(1.00125 0.00247847 0)
(1.0016 0.00268712 0)
(1.0019 0.00293968 0)
(1.00181 0.00326813 0)
(1.00011 0.000341772 0)
(1.00051 -0.000759672 0)
(0.999376 -0.000627554 0)
(0.998983 0.000515412 0)
(1.0003 0.000101475 0)
(0.999585 0.000407359 0)
(0.998749 0.00138319 0)
(0.999779 0.000956827 0)
(1.00114 0.000492815 0)
(1.00069 0.0011654 0)
(1.00006 0.00170854 0)
(1.00017 0.00145523 0)
(1.00096 0.0012129 0)
(1.00129 0.00143043 0)
(1.0013 0.00190068 0)
(1.00116 0.00228694 0)
(1.00142 0.0025019 0)
(1.00178 0.00265207 0)
(1.00213 0.00283787 0)
(1.00208 0.00311468 0)
(1.00009 0.000312924 0)
(1.00046 -0.000646703 0)
(0.999502 -0.000555555 0)
(0.99907 0.000466464 0)
(1.00032 9.95082e-05 0)
(0.999756 0.000347584 0)
(0.99885 0.00139092 0)
(0.999701 0.00112796 0)
(1.0012 0.000519874 0)
(1.00092 0.00101118 0)
(1.00018 0.00175264 0)
(1.00014 0.00167963 0)
(1.001 0.00135067 0)
(1.00148 0.00141505 0)
(1.00156 0.00182834 0)
(1.00139 0.00226684 0)
(1.00158 0.00251288 0)
(1.00194 0.00263599 0)
(1.00233 0.00275176 0)
(1.00232 0.00297706 0)
(1.00007 0.000286179 0)
(1.00042 -0.000548041 0)
(0.999617 -0.000486405 0)
(0.999151 0.000443241 0)
(1.00034 0.000106281 0)
(0.99993 0.000277619 0)
(0.998979 0.00136747 0)
(0.99962 0.00129873 0)
(1.00119 0.000613958 0)
(1.00114 0.000864571 0)
(1.00036 0.00169784 0)
(1.00013 0.00187288 0)
(1.00098 0.00154341 0)
(1.00162 0.00144597 0)
(1.00182 0.00175636 0)
(1.00163 0.00219687 0)
(1.00175 0.00248895 0)
(1.00206 0.00262242 0)
(1.00249 0.00268295 0)
(1.00254 0.00284413 0)
(1.00006 0.000262577 0)
(1.00037 -0.000460657 0)
(0.999726 -0.000424775 0)
(0.999228 0.000440931 0)
(1.00035 0.000131661 0)
(1.0001 0.000202977 0)
(0.999139 0.00131054 0)
(0.999551 0.00145315 0)
(1.00114 0.000767099 0)
(1.00133 0.000764482 0)
(1.00059 0.00155785 0)
(1.00017 0.00199113 0)
(1.00093 0.00174782 0)
(1.00169 0.00153234 0)
(1.00204 0.00170664 0)
(1.00189 0.00210275 0)
(1.00195 0.00242341 0)
(1.00218 0.00259123 0)
(1.00261 0.00263488 0)
(1.00273 0.00271926 0)
(1.00005 0.000238972 0)
(1.00033 -0.000376099 0)
(0.999829 -0.000374342 0)
(0.999304 0.000451493 0)
(1.00035 0.000183091 0)
(1.00027 0.000132575 0)
(0.999334 0.00120956 0)
(0.999508 0.00157795 0)
(1.00105 0.000951972 0)
(1.00147 0.000735895 0)
(1.00086 0.00138784 0)
(1.00027 0.00200974 0)
(1.00088 0.00193329 0)
(1.00171 0.00166455 0)
(1.00221 0.00169319 0)
(1.00213 0.00201332 0)
(1.00216 0.00232846 0)
(1.00231 0.00252368 0)
(1.0027 0.00258899 0)
(1.00287 0.0026145 0)
(1.00005 0.000213542 0)
(1.0003 -0.000288329 0)
(0.999927 -0.000335701 0)
(0.999384 0.000464383 0)
(1.00034 0.000263341 0)
(1.00042 8.55367e-05 0)
(0.99956 0.0010727 0)
(0.999507 0.00165312 0)
(1.00092 0.00115107 0)
(1.00155 0.000776852 0)
(1.00113 0.00123419 0)
(1.00045 0.00192774 0)
(1.00086 0.00206315 0)
(1.00167 0.00181355 0)
(1.00233 0.00172379 0)
(1.00235 0.00194218 0)
(1.00237 0.0022301 0)
(1.00246 0.0024275 0)
(1.00278 0.00252145 0)
(1.00297 0.0025319 0)
(1.00004 0.000187397 0)
(1.00026 -0.000201865 0)
(1.00002 -0.000296098 0)
(0.999471 0.000465249 0)
(1.00031 0.000367837 0)
(1.00053 7.64244e-05 0)
(0.999808 0.00092051 0)
(0.999557 0.00166436 0)
(1.0008 0.00133923 0)
(1.00156 0.000886918 0)
(1.00137 0.00112601 0)
(1.00068 0.00178992 0)
(1.0009 0.00210179 0)
(1.00162 0.00194918 0)
(1.00238 0.00178858 0)
(1.00253 0.0018926 0)
(1.00257 0.00213931 0)
(1.00262 0.00232636 0)
(1.00288 0.00242638 0)
(1.00304 0.00245591 0)
(1.00004 0.000161284 0)
(1.00022 -0.000117985 0)
(1.0001 -0.000252239 0)
(0.999567 0.000451936 0)
(1.00028 0.000476896 0)
(1.00062 0.000125276 0)
(1.00006 0.000770789 0)
(0.999661 0.0016091 0)
(1.00069 0.00148711 0)
(1.00152 0.00103661 0)
(1.00156 0.00108174 0)
(1.00094 0.00164463 0)
(1.001 0.00205432 0)
(1.00158 0.00203502 0)
(1.00238 0.00186831 0)
(1.00266 0.00187101 0)
(1.00275 0.00205215 0)
(1.00276 0.00223227 0)
(1.00298 0.00231708 0)
(1.0031 0.00236289 0)
(1.00005 0.000135106 0)
(1.00018 -3.96029e-05 0)
(1.00017 -0.000199158 0)
(0.999671 0.000429553 0)
(1.00026 0.000570335 0)
(1.00067 0.000225151 0)
(1.0003 0.000654562 0)
(0.999815 0.00149964 0)