/*--------------------------------*- C++ -*----------------------------------*\
| =========                 |                                                 |
| \\      /  F ield         | OpenFOAM: The Open Source CFD Toolbox           |
|  \\    /   O peration     | Version:  v1812                                 |
|   \\  /    A nd           | Web:      www.OpenFOAM.com                      |
|    \\/     M anipulation  |                                                 |
\*---------------------------------------------------------------------------*/
FoamFile
{
    version     2.0;
    format      ascii;
    class       volScalarField;
    location    "2";
    object      p;
}
// * * * * * * * * * * * * * * * * * * * * * * * * * * * * * * * * * * * * * //

dimensions      [0 2 -2 0 0 0 0];


internalField   nonuniform List<scalar> 
9600
(
9.64212e-12
-0.000464428
-0.000496407
-0.000151384
-0.00151069
-0.00123191
0.000940419
0.000131912
-0.000513284
-0.000483492
-0.000414035
-0.00196929
-0.00245666
-0.00152098
-0.00234065
-0.00131694
-0.00130915
8.24398e-05
0.000328655
0.00271103
1.03399e-06
-0.000463992
-0.000495656
-0.000166596
-0.00150196
-0.00121621
0.000907116
0.000125339
-0.000510615
-0.000500803
-0.000405166
-0.00197988
-0.00243822
-0.00152647
-0.00233246
-0.0013251
-0.00128792
1.34733e-05
0.000372759
0.0025088
2.01613e-06
-0.000463841
-0.0004971
-0.000183343
-0.0014893
-0.0012026
0.000875284
0.000118223
-0.000511829
-0.000522097
-0.000399461
-0.00199179
-0.00241519
-0.00153454
-0.00231427
-0.00133752
-0.00126332
-6.75746e-05
0.000406746
0.00224281
2.63507e-06
-0.000464521
-0.000499499
-0.000198937
-0.00147533
-0.0011914
0.000844669
0.000109091
-0.000517142
-0.000545418
-0.000400349
-0.00200317
-0.00238994
-0.00154271
-0.00228907
-0.00135661
-0.00124586
-0.00014526
0.000415931
0.00198282
2.90265e-06
-0.000466132
-0.000501873
-0.000212879
-0.00145932
-0.00118205
0.00081463
9.71424e-05
-0.000524219
-0.000570596
-0.000403722
-0.00201246
-0.00236192
-0.00155154
-0.00226099
-0.00138168
-0.00123215
-0.000222193
0.000400381
0.00173607
2.84413e-06
-0.000468659
-0.000503885
-0.000224444
-0.00144115
-0.00117479
0.000785155
8.33782e-05
-0.000531503
-0.00059653
-0.000407281
-0.00201939
-0.0023321
-0.00156131
-0.00223159
-0.00141023
-0.00121872
-0.000298125
0.000361306
0.00150312
2.50342e-06
-0.000472006
-0.000505185
-0.000233707
-0.00142128
-0.00116898
0.000756691
6.85303e-05
-0.000538277
-0.0006226
-0.000410179
-0.00202443
-0.00230134
-0.00157148
-0.0022018
-0.00143954
-0.00120914
-0.000373138
0.000300355
0.00128268
1.95899e-06
-0.000476002
-0.000505622
-0.000241347
-0.00140005
-0.00116363
0.000729051
5.27775e-05
-0.000544374
-0.000648666
-0.000412124
-0.00202817
-0.00226993
-0.00158146
-0.00217262
-0.00146703
-0.00120859
-0.000445979
0.000221166
0.00107077
1.30168e-06
-0.0004805
-0.000505308
-0.000248119
-0.00137764
-0.00115815
0.000701607
3.62362e-05
-0.000549932
-0.000674793
-0.000413126
-0.00203095
-0.00223823
-0.00159077
-0.00214475
-0.00149141
-0.00121755
-0.00051434
0.000126678
0.000860674
6.03106e-07
-0.000485419
-0.000504431
-0.000254609
-0.00135415
-0.00115237
0.000673783
1.90633e-05
-0.000555211
-0.000701107
-0.000413342
-0.00203293
-0.00220687
-0.00159864
-0.0021192
-0.00151225
-0.00123649
-0.00057686
1.78343e-05
0.000646954
-9.34759e-08
-0.000490719
-0.000503143
-0.000261217
-0.00132966
-0.0011463
0.000645201
1.39299e-06
-0.000560495
-0.000727698
-0.00041299
-0.00203421
-0.00217655
-0.0016041
-0.00209739
-0.00152908
-0.00126492
-0.000635088
-0.000103111
0.000427432
-7.64518e-07
-0.000496378
-0.000501528
-0.000268186
-0.00130421
-0.00114
0.00061562
-1.66666e-05
-0.000566046
-0.000754548
-0.000412385
-0.00203475
-0.00214798
-0.00160623
-0.00208052
-0.00154155
-0.00130205
-0.000691818
-0.00023115
0.000201451
-1.39622e-06
-0.000502383
-0.000499621
-0.00027565
-0.00127784
-0.00113351
0.000584878
-3.50163e-05
-0.000572103
-0.000781537
-0.000411928
-0.00203433
-0.00212201
-0.00160423
-0.00206927
-0.00154976
-0.00134865
-0.000750862
-0.000360604
-3.11522e-05
-1.97825e-06
-0.000508727
-0.000497437
-0.000283676
-0.0012506
-0.00112684
0.00055285
-5.35567e-05
-0.000578894
-0.000808461
-0.000412058
-0.00203256
-0.00209955
-0.00159738
-0.00206415
-0.00155475
-0.00140292
-0.000816735
-0.000486907
-0.000269365
-2.50024e-06
-0.00051541
-0.000494985
-0.000292287
-0.00122255
-0.00111991
0.000519421
-7.2194e-05
-0.000586649
-0.000835027
-0.000413257
-0.00202899
-0.00208143
-0.00158515
-0.00206539
-0.00155839
-0.00146168
-0.000894016
-0.000607468
-0.0005104
-2.95168e-06
-0.000522436
-0.000492285
-0.000301481
-0.00119381
-0.00111263
0.000484467
-9.08131e-05
-0.000595602
-0.000860915
-0.000416011
-0.00202318
-0.00206833
-0.00156742
-0.00207261
-0.00156268
-0.00152164
-0.000986558
-0.000722242
-0.000749683
-3.32131e-06
-0.000529817
-0.000489367
-0.000311228
-0.0011645
-0.00110486
0.000447832
-0.00010926
-0.000605989
-0.000885832
-0.000420766
-0.00201474
-0.00206085
-0.00154444
-0.00208491
-0.00156999
-0.00157928
-0.00109638
-0.000833015
-0.000981806
-3.59607e-06
-0.000537558
-0.000486269
-0.000321482
-0.00113476
-0.00109643
0.000409331
-0.000127352
-0.000618051
-0.000909531
-0.000427914
-0.00200333
-0.00205942
-0.00151679
-0.00210066
-0.00158365
-0.00163213
-0.00122365
-0.00094276
-0.00120123
-3.76206e-06
-0.000545666
-0.000483044
-0.000332175
-0.00110478
-0.00108712
0.000368751
-0.000144886
-0.000631997
-0.000931838
-0.000437791
-0.00198869
-0.0020641
-0.00148559
-0.00211759
-0.00160766
-0.00167898
-0.00136518
-0.00105535
-0.001403
-3.80313e-06
-0.000554139
-0.000479757
-0.000343206
-0.00107475
-0.00107673
0.000325873
-0.000161681
-0.000647994
-0.000952639
-0.000450569
-0.00197096
-0.0020744
-0.00145263
-0.00213336
-0.00164476
-0.00171787
-0.00151628
-0.00117504
-0.00158346
-3.70352e-06
-0.000562969
-0.000476496
-0.000354444
-0.00104493
-0.00106498
0.000280503
-0.000177628
-0.000666175
-0.000971924
-0.000466032
-0.0019507
-0.00208965
-0.00142003
-0.00214616
-0.00169605
-0.00175447
-0.00167228
-0.00130582
-0.00174089
-3.45195e-06
-0.000572128
-0.000473373
-0.000365734
-0.0010156
-0.00105159
0.000232467
-0.000192671
-0.000686531
-0.000989931
-0.000483713
-0.00192858
-0.00210922
-0.00138963
-0.00215442
-0.00176179
-0.00178951
-0.0018287
-0.00145076
-0.00187592
-3.0367e-06
-0.000581575
-0.000470535
-0.000376874
-0.000987075
-0.00103629
0.000181638
-0.000206843
-0.000708863
-0.00100716
-0.000503015
-0.00190524
-0.00213241
-0.00136306
-0.00215706
-0.00184137
-0.00182528
-0.00198105
-0.00161153
-0.00199161
-2.4513e-06
-0.000591247
-0.000468165
-0.000387597
-0.000959681
-0.00101889
0.000127957
-0.000220289
-0.000732771
-0.00102432
-0.000523091
-0.00188134
-0.00215884
-0.00134194
-0.00215388
-0.00193321
-0.00186445
-0.00212469
-0.00178819
-0.00209344
-1.70659e-06
-0.000601049
-0.000466488
-0.000397613
-0.000933675
-0.000999301
7.14846e-05
-0.000233284
-0.000757625
-0.0010424
-0.000543109
-0.0018571
-0.00218836
-0.00132788
-0.00214494
-0.00203587
-0.00190979
-0.00225507
-0.00197893
-0.00218884
-8.2117e-07
-0.000610843
-0.000465788
-0.000406645
-0.000909279
-0.000977475
1.24482e-05
-0.000246355
-0.00078261
-0.00106245
-0.000562678
-0.00183249
-0.00222095
-0.00132225
-0.00213028
-0.00214787
-0.00196434
-0.00236787
-0.00218025
-0.00228683
1.67399e-07
-0.000620441
-0.00046638
-0.000414453
-0.000886685
-0.000953406
-4.87558e-05
-0.00026026
-0.00080664
-0.00108543
-0.000582063
-0.00180715
-0.00225666
-0.00132635
-0.00211
-0.00226713
-0.00203144
-0.00245961
-0.00238653
-0.00239753
1.1927e-06
-0.000629611
-0.000468592
-0.000420824
-0.000866015
-0.000927252
-0.000111539
-0.000275821
-0.000828396
-0.00111212
-0.000602083
-0.0017802
-0.0022958
-0.00134193
-0.00208431
-0.00239059
-0.00211424
-0.00252912
-0.00258886
-0.00253059
2.18199e-06
-0.000638074
-0.000472804
-0.000425532
-0.000847337
-0.000899394
-0.000174864
-0.000294161
-0.000846978
-0.00114279
-0.000623809
-0.00175053
-0.00233833
-0.00137101
-0.00205387
-0.00251381
-0.00221557
-0.002579
-0.00277545
-0.00269185
3.01653e-06
-0.000645481
-0.000479348
-0.000428463
-0.000830543
-0.000870423
-0.000237473
-0.000316501
-0.000862016
-0.0011772
-0.000648982
-0.00171738
-0.00238295
-0.00141565
-0.00202038
-0.00263128
-0.00233696
-0.00261614
-0.0029343
-0.00287914
3.53514e-06
-0.000651449
-0.000488467
-0.000429704
-0.000815256
-0.000841111
-0.000298183
-0.000343656
-0.00087348
-0.00121425
-0.000679651
-0.00168092
-0.00242773
-0.00147727
-0.00198613
-0.0027375
-0.00247788
-0.00265017
-0.00305629
-0.00308039
3.5735e-06
-0.000655599
-0.000500355
-0.000429431
-0.000801023
-0.000812368
-0.000355571
-0.000376084
-0.000882126
-0.00125226
-0.000717396
-0.00164221
-0.00247097
-0.00155637
-0.00195375
-0.00282802
-0.00263493
-0.00269089
-0.00313903
-0.00327637
2.93863e-06
-0.000657571
-0.000515046
-0.000427968
-0.000787328
-0.000785168
-0.000408413
-0.000413728
-0.000889174
-0.00128966
-0.000763662
-0.0016032
-0.00251052
-0.00165214
-0.00192636
-0.0029053
-0.00280246
-0.00274685
-0.0031886
-0.0034482
1.42404e-06
-0.000657033
-0.000532352
-0.000425826
-0.000773438
-0.000760318
-0.000456129
-0.000455929
-0.000896072
-0.00132544
-0.000819444
-0.00156637
-0.00254401
-0.00176255
-0.00190784
-0.00295518
-0.00297371
-0.00282331
-0.00321664
-0.0035824
-1.15041e-06
-0.000653739
-0.000551893
-0.00041746
-0.000758785
-0.000738263
-0.000498418
-0.000501805
-0.000904517
-0.00135912
-0.000884776
-0.00153462
-0.0025693
-0.00188436
-0.0019009
-0.00298201
-0.00314236
-0.0029216
-0.00323474
-0.00367521
-4.93668e-06
-0.000647541
-0.000573136
-0.000418042
-0.000743217
-0.000719283
-0.000535368
-0.000550412
-0.000915907
-0.00139098
-0.000959352
-0.00151102
-0.00258418
-0.00201338
-0.00190975
-0.00298787
-0.00330243
-0.00304083
-0.00325211
-0.00373194
-1.00442e-05
-0.000638384
-0.000595347
-0.000420826
-0.00072673
-0.000703706
-0.000567283
-0.000600588
-0.000931693
-0.00142172
-0.00104204
-0.00149721
-0.00258777
-0.00214537
-0.0019371
-0.00297486
-0.00344758
-0.00318007
-0.00327544
-0.00375991
-1.65265e-05
-0.000626379
-0.00061766
-0.000426177
-0.000709689
-0.000691796
-0.000594638
-0.000651165
-0.000953683
-0.00145206
-0.00112952
-0.00149397
-0.00258095
-0.0022764
-0.00198432
-0.00294739
-0.00357144
-0.00333792
-0.00331118
-0.00376452
-2.44252e-05
-0.00061163
-0.000639236
-0.000434478
-0.000692651
-0.000683773
-0.000618702
-0.000701081
-0.00098272
-0.00148132
-0.00121823
-0.00150103
-0.00256551
-0.00240246
-0.00205266
-0.00291257
-0.00366795
-0.00350894
-0.00336688
-0.00375131
-3.37598e-05
-0.000594246
-0.000659385
-0.000445834
-0.000675784
-0.000680577
-0.000641409
-0.000749161
-0.00101828
-0.00151037
-0.00130571
-0.00151781
-0.00254357
-0.00252055
-0.0021422
-0.0028787
-0.0037322
-0.0036825
-0.0034498
-0.00372981
-4.44847e-05
-0.00057444
-0.000677424
-0.000460457
-0.000659128
-0.000682834
-0.000665336
-0.000794632
-0.00105849
-0.00154046
-0.00139062
-0.00154274
-0.00251736
-0.00262827
-0.00225099
-0.00285334
-0.00376326
-0.00384539
-0.00356218
-0.00371387
-5.65408e-05
-0.000552442
-0.000692617
-0.000478559
-0.000642685
-0.000690367
-0.000693867
-0.000837535
-0.00110093
-0.00157207
-0.00147235
-0.00157427
-0.00248836
-0.00272381
-0.00237565
-0.00284277
-0.00376556
-0.00398591
-0.0036979
-0.00371749
-6.98838e-05
-0.000528511
-0.000704285
-0.000500055
-0.000626534
-0.000702463
-0.000730098
-0.000879533
-0.00114325
-0.0016043
-0.00155099
-0.0016116
-0.00245695
-0.00280672
-0.0025121
-0.00285251
-0.0037477
-0.00409653
-0.00384491
-0.00374856
-8.45295e-05
-0.000500725
-0.000711834
-0.000524861
-0.000610941
-0.000717075
-0.000776499
-0.000925402
-0.00118298
-0.0016346
-0.00162678
-0.00165435
-0.0024244
-0.00287188
-0.00265417
-0.0028867
-0.00371945
-0.00417497
-0.00399065
-0.00380625
-0.000100409
-0.000473474
-0.000714642
-0.000553283
-0.000596545
-0.000731359
-0.000834318
-0.000978705
-0.0012181
-0.00166055
-0.0017004
-0.0017037
-0.00239318
-0.00291633
-0.00279446
-0.00294603
-0.00369033
-0.00422243
-0.00412548
-0.00388504
-0.00011723
-0.000446165
-0.000712071
-0.000586393
-0.000585892
-0.000743535
-0.000903863
-0.00103871
-0.00124804
-0.00168082
-0.00177267
-0.00176242
-0.00236627
-0.00294065
-0.00292549
-0.00302697
-0.0036691
-0.0042421
-0.00424207
-0.00397886
-0.000134894
-0.000419306
-0.000704153
-0.000624543
-0.000584025
-0.000754582
-0.000970805
-0.00110442
-0.00127687
-0.00169533
-0.00184244
-0.00183213
-0.00234881
-0.00294852
-0.00304001
-0.00312249
-0.00366277
-0.0042404
-0.00433422
-0.00408143
-0.000152804
-0.000394001
-0.000691141
-0.000669663
-0.000593843
-0.000755616
-0.00102933
-0.0011764
-0.0013114
-0.0017054
-0.00190624
-0.00191027
-0.00234554
-0.00294433
-0.00313251
-0.00322362
-0.00367405
-0.00422682
-0.0043981
-0.00418408
-0.000170634
-0.000371338
-0.000673133
-0.000715233
-0.000616705
-0.000752838
-0.00107711
-0.00125419
-0.00135545
-0.0017124
-0.00195905
-0.00199316
-0.002359
-0.00293453
-0.00320328
-0.00332191
-0.00370097
-0.00421105
-0.00443471
-0.00427529
-0.000187893
-0.000352214
-0.000650892
-0.000759654
-0.000653406
-0.000751664
-0.00111201
-0.00133291
-0.00141074
-0.00171961
-0.00199946
-0.00207522
-0.00238755
-0.00292716
-0.00325561
-0.0034118
-0.00373887
-0.00419922
-0.00445014
-0.00434551
-0.000204021
-0.000337505
-0.000625631
-0.000800226
-0.000704024
-0.000757356
-0.00113324
-0.00140593
-0.00147711
-0.00173301
-0.00202885
-0.00214977
-0.00242722
-0.00292653
-0.003294
-0.00349098
-0.00378306
-0.00419309
-0.0044523
-0.00439239
-0.0002186
-0.000327605
-0.000599371
-0.000834503
-0.000770429
-0.000774647
-0.00114203
-0.00146742
-0.00155228
-0.00175806
-0.00204954
-0.00221239
-0.00247375
-0.00293371
-0.00332348
-0.00355867
-0.00382996
-0.00419238
-0.00444666
-0.00441966
-0.000231302
-0.000322751
-0.00057455
-0.000860392
-0.000844373
-0.00080721
-0.00114288
-0.00151351
-0.00163119
-0.0017973
-0.00206764
-0.00226218
-0.00252025
-0.00294714
-0.00334754
-0.00361497
-0.00387649
-0.0041969
-0.00443592
-0.00443178
-0.000242005
-0.000323094
-0.000554166
-0.000876694
-0.000919364
-0.000856979
-0.00114327
-0.00154317
-0.00170619
-0.00184902
-0.00209123
-0.00230221
-0.0025606
-0.00296335
-0.00336796
-0.00366139
-0.00392057
-0.00420691
-0.00442287
-0.00443063
-0.000250888
-0.000328163
-0.000540327
-0.000882129
-0.00098888
-0.000923194
-0.00115139
-0.00155787
-0.00177042
-0.00191012
-0.00212402
-0.00233685
-0.00259445
-0.00297739
-0.0033836
-0.00369928
-0.00396071
-0.00422166
-0.00441147
-0.00441804
-0.000258478
-0.0003375
-0.00053397
-0.000881903
-0.00105668
-0.00100355
-0.00117316
-0.00156177
-0.00181984
-0.00197467
-0.00216604
-0.00237172
-0.00262424
-0.00298769
-0.0033922
-0.0037275
-0.00399479
-0.00423839
-0.004405
-0.00439909
-0.000265439
-0.000350099
-0.000535864
-0.000877351
-0.00110743
-0.00109208
-0.00121173
-0.00156224
-0.00185348
-0.00203465
-0.00221562
-0.00241042
-0.00265221
-0.00299616
-0.00339325
-0.00374442
-0.00402061
-0.0042532
-0.0044036
-0.00438065
-0.000272538
-0.000363916
-0.000545894
-0.000872974
-0.00114564
-0.00118052
-0.0012667
-0.00156782
-0.00187311
-0.00208385
-0.00226847
-0.00245425
-0.00268083
-0.00300334
-0.00338878
-0.00374974
-0.00403668
-0.00426244
-0.00440336
-0.00436684
-0.000280555
-0.00037871
-0.000562851
-0.000872774
-0.00117229
-0.00126228
-0.00133564
-0.00158461
-0.00188318
-0.00211988
-0.00231731
-0.00250123
-0.00271351
-0.00301078
-0.00338001
-0.00374463
-0.00404235
-0.00426425
-0.00439871
-0.00435618
-0.000290256
-0.000393951
-0.000585047
-0.000879027
-0.00119089
-0.00133402
-0.00141326
-0.00161491
-0.001891
-0.00214364
-0.00235677
-0.00254679
-0.00275016
-0.00302197
-0.00336867
-0.00373037
-0.00403737
-0.00425854
-0.00438638
-0.00434343
-0.0003023
-0.000409726
-0.000610579
-0.000893057
-0.0012061
-0.00139402
-0.00149247
-0.00165794
-0.00190303
-0.00215734
-0.00238505
-0.00258536
-0.00278595
-0.00303828
-0.00335858
-0.00370873
-0.00402149
-0.0042451
-0.00436609
-0.00432358
-0.000317182
-0.000426585
-0.000637705
-0.000914505
-0.00122276
-0.0014432
-0.001567
-0.00171127
-0.00192311
-0.00216584
-0.00240239
-0.00261451
-0.00281654
-0.00305518
-0.00335243
-0.00368354
-0.00399516
-0.00422304
-0.00433861
-0.0042946
-0.000335219
-0.000445161
-0.000665546
-0.000942298
-0.00124354
-0.00148411
-0.00163367
-0.00177001
-0.00195194
-0.00217455
-0.00240992
-0.00263237
-0.00283956
-0.00306795
-0.00334724
-0.00365838
-0.00396074
-0.0041916
-0.0043043
-0.00425663
-0.000356515
-0.000466136
-0.000693978
-0.000974807
-0.00126953
-0.00152088
-0.00169235
-0.00182858
-0.00198741
-0.00218698
-0.00241179
-0.00263819
-0.00285248
-0.00307449
-0.00333758
-0.00363225
-0.00392113
-0.00415066
-0.0042627
-0.00421035
-0.000381236
-0.000490351
-0.000723361
-0.00101017
-0.00130109
-0.00155703
-0.00174425
-0.00188378
-0.00202682
-0.00220326
-0.0024123
-0.00263413
-0.00285193
-0.00307258
-0.00332113
-0.00360028
-0.00387613
-0.00409993
-0.0042123
-0.00415665
-0.000409128
-0.000518262
-0.000754593
-0.00104714
-0.00133745
-0.0015951
-0.00179145
-0.00193478
-0.00206719
-0.00222207
-0.00241233
-0.00262365
-0.00283802
-0.00305772
-0.00329607
-0.00355914
-0.00382239
-0.00403841
-0.00415079
-0.00409467
-0.000440338
-0.000549976
-0.00078859
-0.00108596
-0.0013776
-0.00163618
-0.001837
-0.00198248
-0.00210655
-0.0022425
-0.00241123
-0.00260761
-0.00281316
-0.0030267
-0.00325807
-0.0035072
-0.00375752
-0.00396558
-0.00407627
-0.00402168
-0.000475055
-0.00058538
-0.000825838
-0.00112745
-0.0014212
-0.00168051
-0.00188329
-0.00202853
-0.00214437
-0.00226346
-0.00240964
-0.00258518
-0.00277762
-0.0029795
-0.00320115
-0.00343959
-0.00367759
-0.00387827
-0.00398662
-0.00393455
-0.000513372
-0.00062459
-0.000866785
-0.00117197
-0.00146842
-0.00172878
-0.00193182
-0.002075
-0.00218156
-0.00228352
-0.00240776
-0.00255768
-0.00273051
-0.00291658
-0.00312132
-0.00334735
-0.00357435
-0.00376853
-0.00387622
-0.0038284
-0.000555656
-0.000667604
-0.000911533
-0.00122015
-0.00151953
-0.00178185
-0.00198467
-0.00212347
-0.00221998
-0.00230392
-0.00240449
-0.00252655
-0.00267209
-0.00283554
-0.0030164
-0.00322138
-0.0034351
-0.00362295
-0.00373296
-0.0036935
-0.000602265
-0.000714878
-0.000959915
-0.0012725
-0.00157573
-0.0018401
-0.00204414
-0.00217741
-0.00226133
-0.00232715
-0.00240114
-0.00249112
-0.00260263
-0.00273307
-0.00288177
-0.00305297
-0.00324266
-0.00342071
-0.00353572
-0.00351266
-0.00065298
-0.000767066
-0.00101224
-0.00132941
-0.00163842
-0.00190515
-0.00211121
-0.00224191
-0.00231238
-0.00235678
-0.00240044
-0.00245172
-0.00252081
-0.00260648
-0.00271068
-0.00283453
-0.00298019
-0.00313003
-0.0032386
-0.0032375
-0.000706039
-0.00082174
-0.00107009
-0.00139301
-0.00170788
-0.00197831
-0.00218786
-0.00231934
-0.00238365
-0.00240806
-0.00241265
-0.0024117
-0.00242273
-0.00244626
-0.00249464
-0.00256637
-0.0026523
-0.00274271
-0.00280321
-0.00277844
-0.000760462
-0.000879086
-0.0011345
-0.0014635
-0.00178394
-0.00205801
-0.00227483
-0.00241213
-0.00247837
-0.00249922
-0.00248097
-0.00241541
-0.00231546
-0.00218744
-0.00206917
-0.00201698
-0.00206487
-0.00219975
-0.00235977
-0.00246043
-0.000819454
-0.000945196
-0.00120461
-0.00153788
-0.0018645
-0.00214326
-0.00236627
-0.00251648
-0.00259625
-0.00262667
-0.00262927
-0.00261377
-0.00256542
-0.00238347
-0.00197126
-0.00142708
-0.000905314
-0.000492354
-0.000225647
-0.000127542
-0.00088295
-0.00101928
-0.00128375
-0.00162362
-0.00195818
-0.00223866
-0.00245917
-0.00261237
-0.00270473
-0.0027447
-0.00266903
-0.00240223
-0.0020123
-0.0016089
-0.00125851
-0.000973309
-0.000740505
-0.000544558
-0.000395812
-0.000348189
-0.00094244
-0.00107075
-0.00135013
-0.00171154
-0.00208242
-0.00241179
-0.00267334
-0.00281629
-0.00277607
-0.00255718
-0.00225725
-0.00195631
-0.00167971
-0.00140312
-0.00110051
-0.000751691
-0.000377652
-2.92966e-05
0.000233148
0.000324716
-0.00104542
-0.00118912
-0.00142606
-0.00172874
-0.00204301
-0.00230544
-0.00247957
-0.00254688
-0.00251745
-0.00244117
-0.00236332
-0.00229204
-0.0022243
-0.00210269
-0.00184178
-0.00137829
-0.000721479
-3.24134e-05
0.000504502
0.000740556
-0.00107492
-0.00122709
-0.00153717
-0.00191443
-0.00226211
-0.00249392
-0.00258815
-0.00257633
-0.00248114
-0.00231932
-0.00210812
-0.00184161
-0.00153086
-0.00119717
-0.000842539
-0.000488518
-0.000153978
0.000134885
0.00032353
0.000344555
-0.00115888
-0.00130067
-0.001548
-0.00185974
-0.00219091
-0.0024846
-0.00266779
-0.00269792
-0.00256079
-0.00230155
-0.00201528
-0.00175793
-0.00152228
-0.00130675
-0.0010818
-0.000818955
-0.000521287
-0.000225798
-2.09084e-06
6.95661e-05
0.00518592
0.000749625
-0.00609439
-0.0110918
-0.0120252
-0.0108196
-0.00934534
-0.0080585
-0.0070141
-0.00620276
-0.00560702
-0.00526544
-0.00515195
-0.00503876
-0.00474704
-0.00437634
-0.0040641
-0.00383645
-0.00370491
-0.00360069
-0.00341545
-0.0031771
-0.00296816
-0.00279724
-0.00262954
-0.00242722
-0.00219211
-0.00197743
-0.00180448
-0.00163481
-0.00143607
-0.001222
-0.00102803
-0.000862614
-0.000696304
-0.000512047
-0.000326798
-0.000149089
4.12884e-05
0.000254127
0.000472239
0.000686581
0.000913857
0.0011547
0.00137748
0.00158265
0.0018031
0.00203417
0.00225783
0.00248824
0.00274677
0.00301633
0.0032707
0.00353112
0.00380559
0.00407166
0.00433716
0.00462275
0.0049159
0.00521165
0.00551929
0.00583236
0.00614937
0.00647286
0.00679725
0.00712819
0.00745935
0.00779772
0.00815082
0.00851786
0.00889091
0.00926719
0.00964857
0.0100341
0.0104275
0.0108329
0.0112438
0.0116665
0.0120936
0.0125356
0.012984
0.0134416
0.0139116
0.0143834
0.014876
0.0153764
0.0158813
0.0164056
0.0169321
0.0174711
0.0180273
0.0185883
0.0191564
0.0197412
0.0203332
0.020931
0.0215499
0.0221664
0.0226937
0.0232534
0.0046561
0.000630401
-0.00599593
-0.0109495
-0.0119483
-0.0107852
-0.00932534
-0.00804455
-0.0070032
-0.00619348
-0.00559843
-0.0052574
-0.0051451
-0.00503334
-0.0047425
-0.00437225
-0.00406034
-0.00383292
-0.00370171
-0.00359797
-0.00341304
-0.00317477
-0.00296591
-0.00279514
-0.00262764
-0.00242548
-0.00219045
-0.00197583
-0.00180299
-0.00163347
-0.00143484
-0.00122082
-0.0010269
-0.000861561
-0.000695342
-0.000511144
-0.000325934
-0.00014828
4.20347e-05
0.000254832
0.000472917
0.000687219
0.000914452
0.00115528
0.00137805
0.00158318
0.0018036
0.00203465
0.0022583
0.00248867
0.00274718
0.00301674
0.0032711
0.00353149
0.00380595
0.00407201
0.0043375
0.00462306
0.00491621
0.00521195
0.00551957
0.00583264
0.00614964
0.00647311
0.0067975
0.00712843
0.00745958
0.00779794
0.00815103
0.00851806
0.0088911
0.00926737
0.00964875
0.0100343
0.0104276
0.0108331
0.011244
0.0116666
0.0120938
0.0125357
0.0129841
0.0134418
0.0139117
0.0143835
0.0148761
0.0153765
0.0158814
0.0164057
0.0169322
0.0174712
0.0180274
0.0185884
0.0191565
0.0197413
0.0203333
0.0209311
0.02155
0.0221664
0.0226938
0.0232535
0.00409152
0.000474594
-0.00581351
-0.0106844
-0.0118102
-0.0107329
-0.00929857
-0.00802606
-0.00698951
-0.0061833
-0.00559053
-0.00525039
-0.00513832
-0.00502702
-0.00473696
-0.00436765
-0.00405655
-0.00382953
-0.00369863
-0.00359535
-0.00341074
-0.00317264
-0.00296394
-0.00279329
-0.00262592
-0.00242389
-0.00218893
-0.00197436
-0.00180165
-0.00163226
-0.00143371
-0.00121974
-0.00102587
-0.000860617
-0.000694484
-0.000510334
-0.000325164
-0.000147572
4.26872e-05
0.000255456
0.000473516
0.000687776
0.000914976
0.00115581
0.00137856
0.00158365
0.00180404
0.00203508
0.00225871
0.00248904
0.00274754
0.0030171
0.00327144
0.00353181
0.00380627
0.00407232
0.00433778
0.00462333
0.00491648
0.0052122
0.00551981
0.00583288
0.00614986
0.00647333
0.00679771
0.00712863
0.00745977
0.00779812
0.0081512
0.00851823
0.00889127
0.00926754
0.00964891
0.0100344
0.0104278
0.0108332
0.0112441
0.0116668
0.0120939
0.0125358
0.0129843
0.0134419
0.0139118
0.0143837
0.0148762
0.0153766
0.0158815
0.0164058
0.0169323
0.0174713
0.0180275
0.0185884
0.0191566
0.0197414
0.0203334
0.0209311
0.0215501
0.0221665
0.0226939
0.0232535
0.00355328
0.000324283
-0.00557171
-0.0103333
-0.0116077
-0.0106502
-0.00925461
-0.00799616
-0.00696844
-0.00616912
-0.00558169
-0.00524377
-0.00513089
-0.00501835
-0.00472873
-0.0043613
-0.00405192
-0.00382548
-0.00369458
-0.00359156
-0.00340758
-0.00317016
-0.00296185
-0.00279127
-0.00262391
-0.00242204
-0.00218725
-0.00197279
-0.00180015
-0.00163084
-0.00143239
-0.00121851
-0.00102471
-0.000859553
-0.000693516
-0.000509437
-0.000324328
-0.000146804
4.33982e-05
0.000256135
0.00047416
0.000688373
0.000915541
0.00115637
0.0013791
0.00158413
0.00180449
0.00203553
0.00225912
0.00248942
0.00274791
0.00301748
0.0032718
0.00353214
0.0038066
0.00407264
0.00433806
0.00462361
0.00491676
0.00521246
0.00552007
0.00583312
0.0061501
0.00647356
0.00679793
0.00712884
0.00745998
0.00779831
0.00815138
0.00851841
0.00889144
0.0092677
0.00964907
0.0100346
0.0104279
0.0108334
0.0112443
0.0116669
0.012094
0.0125359
0.0129844
0.013442
0.0139119
0.0143838
0.0148763
0.0153767
0.0158816
0.0164059
0.0169324
0.0174713
0.0180276
0.0185885
0.0191566
0.0197415
0.0203334
0.0209312
0.0215501
0.0221666
0.022694
0.0232536
0.00303931
0.000175595
-0.00531153
-0.00995175
-0.0113753
-0.0105509
-0.00920006
-0.00795727
-0.0069401
-0.00615004
-0.00557086
-0.00523695
-0.00512229
-0.0050065
-0.00471694
-0.00435268
-0.00404639
-0.00382087
-0.00368919
-0.00358567
-0.00340258
-0.00316672
-0.00295933
-0.00278874
-0.00262122
-0.00241961
-0.00218527
-0.00197105
-0.00179836
-0.00162899
-0.00143067
-0.00121697
-0.00102327
-0.000858176
-0.000692254
-0.000508314
-0.000323315
-0.000145868
4.42706e-05
0.000256951
0.000474927
0.000689093
0.000916223
0.00115703
0.00137972
0.00158469
0.00180502
0.00203604
0.00225959
0.00248985
0.00274833
0.00301791
0.0032722
0.00353251
0.00380698
0.00407299
0.00433838
0.00462392
0.00491706
0.00521274
0.00552034
0.00583339
0.00615036
0.00647382
0.00679818
0.00712908
0.0074602
0.00779851
0.00815158
0.0085186
0.00889163
0.00926788
0.00964924
0.0100347
0.0104281
0.0108335
0.0112444
0.011667
0.0120942
0.0125361
0.0129845
0.0134421
0.013912
0.0143839
0.0148764
0.0153768
0.0158817
0.016406
0.0169325
0.0174714
0.0180277
0.0185886
0.0191567
0.0197415
0.0203335
0.0209313
0.0215502
0.0221667
0.0226942
0.0232537
0.00254745
1.22549e-05
-0.00506046
-0.0095623
-0.0111269
-0.0104437
-0.00914207
-0.00791422
-0.0069071
-0.00612719
-0.00555808
-0.0052294
-0.00511232
-0.00499187
-0.00470215
-0.00434217
-0.00404032
-0.00381613
-0.00368275
-0.00357758
-0.00339534
-0.00316188
-0.00295601
-0.00278538
-0.00261748
-0.00241628
-0.00218287
-0.00196913
-0.00179626
-0.00162666
-0.00142849
-0.00121508
-0.00102147
-0.00085633
-0.000690521
-0.000506829
-0.000322019
-0.000144662
4.53838e-05
0.000257952
0.00047586
0.000689996
0.000917081
0.00115783
0.00138047
0.00158539
0.00180566
0.00203662
0.00226014
0.00249037
0.00274883
0.0030184
0.00327267
0.00353295
0.0038074
0.00407338
0.00433874
0.00462427
0.0049174
0.00521306
0.00552066
0.0058337
0.00615064
0.0064741
0.00679845
0.00712934
0.00746045
0.00779874
0.0081518
0.00851882
0.00889185
0.00926809
0.00964944
0.0100349
0.0104282
0.0108337
0.0112446
0.0116672
0.0120943
0.0125362
0.0129846
0.0134422
0.0139122
0.014384
0.0148765
0.0153769
0.0158818
0.0164061
0.0169326
0.0174715
0.0180278
0.0185887
0.0191568
0.0197416
0.0203336
0.0209314
0.0215503
0.0221669
0.0226944
0.0232539
0.00207748
-0.00017526
-0.00482944
-0.00916831
-0.0108616
-0.0103283
-0.009082
-0.00786869
-0.00687064
-0.00610124
-0.00554331
-0.0052207
-0.00510106
-0.00497537
-0.00468547
-0.00433056
-0.00403414
-0.00381165
-0.00367585
-0.00356792
-0.00338624
-0.00315562
-0.00295167
-0.00278093
-0.00261246
-0.00241184
-0.00217987
-0.00196694
-0.00179378
-0.00162381
-0.00142589
-0.00121295
-0.00101936
-0.000853972
-0.000688198
-0.00050485
-0.000320309
-0.00014305
4.68449e-05
0.000259189
0.000476984
0.000691119
0.000918158
0.00115881
0.00138141
0.00158628
0.00180646
0.00203732
0.0022608
0.00249101
0.00274944
0.00301898
0.00327324
0.00353349
0.0038079
0.00407383
0.00433916
0.00462468
0.00491779
0.00521343
0.00552102
0.00583405
0.00615097
0.00647442
0.00679876
0.00712964
0.00746073
0.007799
0.00815205
0.00851906
0.00889209
0.00926833
0.00964967
0.0100351
0.0104284
0.0108339
0.0112447
0.0116674
0.0120945
0.0125364
0.0129848
0.0134424
0.0139123
0.0143841
0.0148767
0.015377
0.0158819
0.0164063
0.0169327
0.0174716
0.0180279
0.0185888
0.0191569
0.0197417
0.0203337
0.0209315
0.0215504
0.022167
0.0226947
0.0232542
0.00162879
-0.000387109
-0.00461923
-0.00876664
-0.0105751
-0.0102023
-0.00901991
-0.00782167
-0.00683144
-0.00607241
-0.00552637
-0.00521068
-0.0050888
-0.00495773
-0.00466766
-0.00431823
-0.00402783
-0.00380738
-0.00366883
-0.00355751
-0.00337606
-0.00314836
-0.00294637
-0.00277536
-0.00260615
-0.00240629
-0.00217619
-0.00196432
-0.00179084
-0.00162042
-0.00142293
-0.00121069
-0.00101711
-0.000851227
-0.000685331
-0.000502352
-0.000318102
-0.000140905
4.87867e-05
0.000260748
0.000478331
0.00069247
0.00091945
0.00115997
0.00138255
0.00158744
0.00180749
0.00203819
0.00226161
0.00249181
0.00275016
0.00301967
0.00327393
0.00353416
0.0038085
0.00407437
0.00433967
0.00462516
0.00491823
0.00521385
0.00552144
0.00583445
0.00615136
0.0064748
0.00679912
0.00712998
0.00746105
0.0077993
0.00815234
0.00851935
0.00889238
0.0092686
0.00964993
0.0100354
0.0104287
0.0108341
0.011245
0.0116676
0.0120947
0.0125365
0.012985
0.0134425
0.0139125
0.0143843
0.0148768
0.0153772
0.015882
0.0164064
0.0169328
0.0174717
0.018028
0.0185889
0.019157
0.0197418
0.0203338
0.0209316
0.0215505
0.0221672
0.0226951
0.0232546
0.00120342
-0.000614721
-0.00442793
-0.00835745
-0.0102667
-0.0100648
-0.00895651
-0.00777442
-0.00679016
-0.0060407
-0.00550709
-0.00519932
-0.00507574
-0.00493927
-0.00464899
-0.00430524
-0.00402118
-0.003803
-0.0036617
-0.00354674
-0.00336535
-0.00314054
-0.0029404
-0.0027689
-0.0025988
-0.0023998
-0.00217187
-0.00196124
-0.00178737
-0.00161647
-0.00141961
-0.00120836
-0.00101485
-0.000848307
-0.00068212
-0.00049946
-0.000315442
-0.000138197
5.12964e-05
0.000262731
0.000479966
0.000694057
0.00092092
0.00116125
0.00138387
0.00158889
0.00180881
0.00203929
0.00226264
0.0024928
0.00275103
0.00302046
0.00327477
0.00353499
0.00380924
0.00407504
0.0043403
0.00462573
0.00491875
0.00521435
0.00552192
0.00583492
0.00615181
0.00647525
0.00679955