/*--------------------------------*- C++ -*----------------------------------*\
| =========                 |                                                 |
| \\      /  F ield         | OpenFOAM: The Open Source CFD Toolbox           |
|  \\    /   O peration     | Version:  v1812                                 |
|   \\  /    A nd           | Web:      www.OpenFOAM.com                      |
|    \\/     M anipulation  |                                                 |
\*---------------------------------------------------------------------------*/
FoamFile
{
    version     2.0;
    format      ascii;
    class       surfaceScalarField;
    location    "2";
    object      phi;
}
// * * * * * * * * * * * * * * * * * * * * * * * * * * * * * * * * * * * * * //

dimensions      [0 3 -1 0 0 0 0];
oriented        oriented;


internalField   nonuniform List<scalar> 
19000
(
1.17529e-06
4.01933e-08
1.17567e-06
-1.70289e-07
1.17142e-06
5.2053e-07
1.11882e-06
-2.25362e-07
1.17094e-06
-3.62083e-07
1.20027e-06
-9.22251e-08
1.15205e-06
8.12024e-08
1.14706e-06
2.44252e-07
1.15271e-06
4.87259e-07
1.11866e-06
-1.98683e-07
1.15251e-06
2.65561e-07
1.12475e-06
-4.78566e-07
1.15913e-06
-1.60727e-07
1.14246e-06
-1.84012e-07
1.15749e-06
-1.78429e-07
1.1561e-06
-1.4186e-08
1.15642e-06
-5.32668e-08
1.1498e-06
4.28321e-08
1.15038e-06
9.37233e-08
1.59781e-07
1.12682e-06
1.22997e-06
3.44855e-08
1.23112e-06
-1.71439e-07
1.22388e-06
5.27769e-07
1.17425e-06
-1.75737e-07
1.2261e-06
-4.13928e-07
1.25646e-06
-1.22585e-07
1.20661e-06
1.31054e-07
1.20431e-06
2.46547e-07
1.20449e-06
4.87076e-07
1.17649e-06
-1.70676e-07
1.20175e-06
2.40297e-07
1.18175e-06
-4.58561e-07
1.20691e-06
-1.85893e-07
1.2044e-06
-1.81496e-07
1.20746e-06
-1.81492e-07
1.22381e-06
-3.05342e-08
1.20383e-06
-3.32932e-08
1.2202e-06
2.64626e-08
1.19122e-06
1.2271e-07
1.41739e-07
1.20926e-06
1.28625e-06
3.10185e-08
1.28865e-06
-1.73842e-07
1.27865e-06
5.37772e-07
1.23758e-06
-1.3467e-07
1.28184e-06
-4.58184e-07
1.31502e-06
-1.55765e-07
1.26533e-06
1.80741e-07
1.26265e-06
2.49235e-07
1.26003e-06
4.89693e-07
1.24132e-06
-1.51965e-07
1.25822e-06
2.23396e-07
1.24952e-06
-4.49867e-07
1.26117e-06
-1.97536e-07
1.27199e-06
-1.9232e-07
1.26483e-06
-1.7433e-07
1.28531e-06
-5.10134e-08
1.26504e-06
-1.30212e-08
1.27361e-06
1.78883e-08
1.25923e-06
1.37087e-07
1.50162e-07
1.25081e-06
1.34485e-06
3.02685e-08
1.34838e-06
-1.77365e-07
1.33721e-06
5.48934e-07
1.30792e-06
-1.05377e-07
1.33996e-06
-4.90219e-07
1.37361e-06
-1.89416e-07
1.32898e-06
2.25366e-07
1.32291e-06
2.55305e-07
1.32103e-06
4.91572e-07
1.31056e-06
-1.41493e-07
1.32193e-06
2.12029e-07
1.32045e-06
-4.48384e-07
1.32375e-06
-2.00838e-07
1.33857e-06
-2.07141e-07
1.33131e-06
-1.6707e-07
1.34507e-06
-6.47717e-08
1.33483e-06
-2.78136e-09
1.3328e-06
1.99128e-08
1.3275e-06
1.42396e-07
1.64453e-07
1.3132e-06
1.40673e-06
3.18962e-08
1.41045e-06
-1.81086e-07
1.4005e-06
5.58883e-07
1.3828e-06
-8.76779e-08
1.40148e-06
-5.08897e-07
1.43163e-06
-2.19568e-07
1.39753e-06
2.5946e-07
1.3875e-06
2.65342e-07
1.38815e-06
4.90922e-07
1.38277e-06
-1.36119e-07
1.39131e-06
2.0349e-07
1.39146e-06
-4.48536e-07
1.39164e-06
-2.01011e-07
1.40465e-06
-2.20157e-07
1.40115e-06
-1.63572e-07
1.40927e-06
-7.28917e-08
1.40528e-06
1.21423e-09
1.40006e-06
2.51309e-08
1.39581e-06
1.46642e-07
1.77864e-07
1.3824e-06
1.47268e-06
3.48971e-08
1.47543e-06
-1.83844e-07
1.46882e-06
5.65494e-07
1.46012e-06
-7.89734e-08
1.46727e-06
-5.16045e-07
1.49062e-06
-2.42918e-07
1.46938e-06
2.80701e-07
1.45791e-06
2.76805e-07
1.46083e-06
4.88002e-07
1.45764e-06
-1.32927e-07
1.4646e-06
1.96527e-07
1.46321e-06
-4.47139e-07
1.46193e-06
-1.99737e-07
1.47171e-06
-2.29932e-07
1.4709e-06
-1.62759e-07
1.47664e-06
-7.86396e-08
1.47524e-06
2.61479e-09
1.46967e-06
3.07037e-08
1.46631e-06
1.5e-07
1.90729e-07
1.45345e-06
1.543e-06
3.81091e-08
1.54409e-06
-1.84925e-07
1.54176e-06
5.67823e-07
1.5389e-06
-7.61137e-08
1.53759e-06
-5.14739e-07
1.55285e-06
-2.58181e-07
1.54283e-06
2.90724e-07
1.53346e-06
2.86174e-07
1.53791e-06
4.83555e-07
1.53516e-06
-1.30174e-07
1.54092e-06
1.90767e-07
1.53695e-06
-4.43168e-07
1.53428e-06
-1.97073e-07
1.5407e-06
-2.36352e-07
1.54095e-06
-1.63004e-07
1.5455e-06
-8.31881e-08
1.54586e-06
2.24629e-09
1.54008e-06
3.64891e-08
1.53854e-06
1.51533e-07
2.0274e-07
1.52653e-06
1.61748e-06
4.07568e-08
1.61693e-06
-1.84378e-07
1.61851e-06
5.66247e-07
1.61898e-06
-7.65823e-08
1.61212e-06
-5.0788e-07
1.61993e-06
-2.65994e-07
1.61753e-06
2.93132e-07
1.61247e-06
2.9123e-07
1.61816e-06
4.77864e-07
1.61524e-06
-1.27251e-07
1.62004e-06
1.85963e-07
1.61348e-06
-4.36604e-07
1.60958e-06
-1.93172e-07
1.61256e-06
-2.39333e-07
1.61291e-06
-1.63355e-07
1.61598e-06
-8.62593e-08
1.61802e-06
2.04508e-10
1.61204e-06
4.24744e-08
1.61253e-06
1.51035e-07
2.13007e-07
1.60227e-06
1.69568e-06
4.26516e-08
1.69411e-06
-1.8281e-07
1.69852e-06
5.61839e-07
1.70066e-06
-7.8722e-08
1.69039e-06
-4.97608e-07
1.69244e-06
-2.68047e-07
1.69429e-06
2.91279e-07
1.69385e-06
2.91668e-07
1.7008e-06
4.70914e-07
1.69772e-06
-1.24172e-07
1.70199e-06
1.81702e-07
1.69317e-06
-4.27789e-07
1.68854e-06
-1.88545e-07
1.68809e-06
-2.38879e-07
1.68813e-06
-1.63395e-07
1.68911e-06
-8.72417e-08
1.69247e-06
-3.15743e-09
1.68642e-06
4.85243e-08
1.68873e-06
1.48732e-07
2.20803e-07
1.68093e-06
1.77737e-06
4.40053e-08
1.77547e-06
-1.80911e-07
1.78166e-06
5.55645e-07
1.78446e-06
-8.15166e-08
1.77213e-06
-4.85282e-07
1.77033e-06
-2.66241e-07
1.77428e-06
2.87328e-07
1.77754e-06
2.88411e-07
1.78572e-06
4.62734e-07
1.78258e-06
-1.21039e-07
1.78681e-06
1.77479e-07
1.77616e-06
-4.17145e-07
1.77143e-06
-1.83817e-07
1.76779e-06
-2.3524e-07
1.76747e-06
-1.6307e-07
1.76595e-06
-8.57214e-08
1.77004e-06
-7.2521e-09
1.76398e-06
5.45896e-08
1.7675e-06
1.45212e-07
2.25752e-07
1.76255e-06
1.86263e-06
4.5123e-08
1.86084e-06
-1.79121e-07
1.86816e-06
5.48324e-07
1.87101e-06
-8.43654e-08
1.85739e-06
-4.71664e-07
1.85336e-06
-2.62205e-07
1.85834e-06
2.82344e-07
1.86399e-06
2.82759e-07
1.87326e-06
4.5347e-07
1.87002e-06
-1.17804e-07
1.87464e-06
1.72865e-07
1.86252e-06
-4.05034e-07
1.85823e-06
-1.79525e-07
1.85185e-06
-2.28862e-07
1.85135e-06
-1.62564e-07
1.84728e-06
-8.16544e-08
1.8515e-06
-1.14707e-08
1.84541e-06
6.06749e-08
1.84924e-06
1.4139e-07
2.278e-07
1.84719e-06
1.95175e-06
4.62162e-08
1.9502e-06
-1.77572e-07
1.95835e-06
5.40168e-07
1.96094e-06
-8.69507e-08
1.9464e-06
-4.57123e-07
1.94129e-06
-2.57102e-07
1.94691e-06
2.76727e-07
1.95379e-06
2.7588e-07
1.96396e-06
4.43299e-07
1.96046e-06
-1.14305e-07
1.96574e-06
1.67587e-07
1.9524e-06
-3.91693e-07
1.94892e-06
-1.76041e-07
1.94029e-06
-2.20238e-07
1.93988e-06
-1.62156e-07
1.93359e-06
-7.53584e-08
1.93741e-06
-1.52956e-08
1.9314e-06
6.66862e-08
1.93448e-06
1.38314e-07
2.27095e-07
1.93518e-06
2.04503e-06
4.73733e-08
2.04366e-06
-1.76204e-07
2.05256e-06
5.31275e-07
2.05476e-06
-8.91487e-08
2.03947e-06
-4.41833e-07
2.03398e-06
-2.51616e-07
2.04014e-06
2.70563e-07
2.04739e-06
2.68637e-07
2.05834e-06
4.32347e-07
2.0544e-06
-1.10368e-07
2.06049e-06
1.61503e-07
2.04603e-06
-3.7724e-07
2.04356e-06
-1.73568e-07
2.03313e-06
-2.09808e-07
2.03305e-06
-1.62082e-07
2.02509e-06
-6.73912e-08
2.02811e-06
-1.8322e-08
2.02246e-06
7.23436e-08
2.02396e-06
1.36811e-07
2.23981e-07
2.02707e-06
2.14277e-06
4.86026e-08
2.14147e-06
-1.74903e-07
2.15106e-06
5.21688e-07
2.15286e-06
-9.09486e-08
2.13695e-06
-4.25923e-07
2.13136e-06
-2.46028e-07
2.1381e-06
2.63821e-07
2.14516e-06
2.61574e-07
2.15683e-06
4.20676e-07
2.15233e-06
-1.05864e-07
2.15928e-06
1.54553e-07
2.14376e-06
-3.61715e-07
2.14236e-06
-1.72167e-07
2.13047e-06
-1.97925e-07
2.13082e-06
-1.62429e-07
2.12185e-06
-5.84223e-08
2.12373e-06
-2.02025e-08
2.11887e-06
7.72091e-08
2.11843e-06
1.37245e-07
2.19014e-07
2.1234e-06
2.24521e-06
4.98782e-08
2.24388e-06
-1.73568e-07
2.2541e-06
5.11463e-07
2.25554e-06
-9.23816e-08
2.23917e-06
-4.09553e-07
2.23348e-06
-2.40342e-07
2.24086e-06
2.56444e-07
2.24745e-06
2.54983e-07
2.25983e-06
4.08291e-07
2.25468e-06
-1.00707e-07
2.26251e-06
1.46717e-07
2.24594e-06
-3.45138e-07
2.24557e-06
-1.71797e-07
2.23252e-06
-1.8488e-07
2.2332e-06
-1.63105e-07
2.2239e-06
-4.91293e-08
2.22429e-06
-2.0592e-08
2.22071e-06
8.07951e-08
2.21844e-06
1.39507e-07
2.12927e-07
2.22453e-06
2.35259e-06
5.11644e-08
2.35116e-06
-1.72137e-07
2.36195e-06
5.00671e-07
2.36304e-06
-9.34713e-08
2.34641e-06
-3.92927e-07
2.34049e-06
-2.34417e-07
2.34855e-06
2.48381e-07
2.35455e-06
2.48988e-07
2.36767e-06
3.95164e-07
2.36181e-06
-9.48401e-08
2.37051e-06
1.38012e-07
2.35292e-06
-3.27551e-07
2.35346e-06
-1.72334e-07
2.33954e-06
-1.70959e-07
2.34027e-06
-1.63834e-07
2.3313e-06
-4.01554e-08
2.32986e-06
-1.91514e-08
2.32794e-06
8.27115e-08
2.32428e-06
1.43163e-07
2.06506e-07
2.33071e-06
2.46513e-06
5.24261e-08
2.46357e-06
-1.70574e-07
2.47486e-06
4.89381e-07
2.4756e-06
-9.42091e-08
2.45894e-06
-3.76266e-07
2.45259e-06
-2.2807e-07
2.46138e-06
2.3959e-07
2.46674e-06
2.43628e-07
2.48065e-06
3.81253e-07
2.47404e-06
-8.82332e-08
2.48356e-06
1.28493e-07
2.46506e-06
-3.09047e-07
2.46631e-06
-1.73583e-07
2.45183e-06
-1.56479e-07
2.45221e-06
-1.6422e-07
2.44412e-06
-3.20601e-08
2.44062e-06
-1.56547e-08
2.44048e-06
8.28517e-08
2.43606e-06
1.47588e-07
2.00449e-07
2.44211e-06
2.58309e-06
5.36327e-08
2.58137e-06
-1.68858e-07
2.59311e-06
4.77639e-07
2.59346e-06
-9.45505e-08
2.57697e-06
-3.5978e-07
2.57003e-06
-2.21128e-07
2.57958e-06
2.30034e-07
2.5843e-06
2.38913e-07
2.59902e-06
3.66532e-07
2.59168e-06
-8.08966e-08
2.60191e-06
1.18271e-07
2.58266e-06
-2.89797e-07
2.58434e-06
-1.75271e-07
2.56968e-06
-1.41817e-07
2.56924e-06
-1.63782e-07
2.56249e-06
-2.5303e-08
2.55693e-06
-1.00978e-08
2.55827e-06
8.15122e-08
2.55384e-06
1.52013e-07
1.95307e-07
2.55899e-06
2.7067e-06
5.47584e-08
2.70482e-06
-1.66979e-07
2.717e-06
4.6546e-07
2.71687e-06
-9.44208e-08
2.70075e-06
-3.43656e-07
2.69307e-06
-2.13451e-07
2.70343e-06
2.19675e-07
2.7075e-06
2.34842e-07
2.72303e-06
3.51004e-07
2.71502e-06
-7.28916e-08
2.72577e-06
1.0752e-07
2.70603e-06
-2.70047e-07
2.70782e-06
-1.77066e-07
2.69338e-06
-1.27377e-07
2.69166e-06
-1.62063e-07
2.68653e-06
-2.01718e-08
2.67915e-06
-2.71897e-09
2.68139e-06
7.92768e-08
2.67774e-06
1.55661e-07
1.91412e-07
2.68163e-06
2.83625e-06
5.57812e-08
2.83419e-06
-1.64922e-07
2.84681e-06
4.52836e-07
2.84612e-06
-9.3725e-08
2.83052e-06
-3.28056e-07
2.822e-06
-2.04932e-07
2.8332e-06
2.08479e-07
2.83663e-06
2.31409e-07
2.85291e-06
3.34725e-07
2.84436e-06
-6.4341e-08
2.8554e-06
9.6476e-08
2.83546e-06
-2.50109e-07
2.837e-06
-1.78603e-07
2.82318e-06
-1.13554e-07
2.81979e-06
-1.58677e-07
2.81639e-06
-1.67656e-08
2.80762e-06
6.0467e-09
2.81008e-06
7.68181e-08
2.80782e-06
1.57915e-07
1.88834e-07
2.8104e-06
2.972e-06
5.66809e-08
2.96974e-06
-1.62671e-07
2.98285e-06
4.3973e-07
2.98148e-06
-9.23551e-08
2.96655e-06
-3.13124e-07
2.95711e-06
-1.95492e-07
2.96916e-06
1.96426e-07
2.97199e-06
2.28578e-07
2.9889e-06
3.17812e-07
2.98e-06
-5.54378e-08
2.99103e-06
8.54441e-08
2.97127e-06
-2.30343e-07
2.97219e-06
-1.79521e-07
2.95931e-06
-1.00678e-07
2.95404e-06
-1.53403e-07
2.9522e-06
-1.49269e-08
2.94263e-06
1.5616e-08
2.94471e-06
7.4734e-08
2.9442e-06
1.58423e-07
1.87376e-07
2.94566e-06
3.11425e-06
5.74382e-08
3.11177e-06
-1.60194e-07
3.12541e-06
4.26089e-07
3.12326e-06
-9.01972e-08
3.10912e-06
-2.98991e-07
3.09871e-06
-1.85075e-07
3.1116e-06
1.83531e-07
3.1139e-06
2.26274e-07
3.13127e-06
3.00447e-07
3.12228e-06
-4.64441e-08
3.13294e-06
7.47773e-08
3.11371e-06
-2.11113e-07
3.1137e-06
-1.79513e-07
3.102e-06
-8.89746e-08
3.09479e-06
-1.46193e-07
3.09421e-06
-1.4341e-08
3.08441e-06
2.54123e-08
3.08571e-06
7.34373e-08
3.08702e-06
1.57112e-07
1.86656e-07
3.08774e-06
3.26331e-06
5.80333e-08
3.26057e-06
-1.57449e-07
3.27482e-06
4.1184e-07
3.27176e-06
-8.71376e-08
3.25854e-06
-2.85769e-07
3.24712e-06
-1.73662e-07
3.2608e-06
1.69855e-07
3.26271e-06
2.24367e-07
3.28027e-06
2.8288e-07
3.27152e-06
-3.76879e-08
3.28144e-06
6.48516e-08
3.26306e-06
-1.92734e-07
3.26193e-06
-1.78379e-07
3.25147e-06
-7.85179e-08
3.24246e-06
-1.37179e-07
3.24271e-06
-1.45937e-08
3.23318e-06
3.49416e-08
3.23347e-06
7.31535e-08
3.23647e-06
1.54112e-07
1.86195e-07
3.23693e-06
3.41952e-06
5.8446e-08
3.41645e-06
-1.54378e-07
3.43139e-06
3.96896e-07
3.42733e-06
-8.30716e-08
3.41511e-06
-2.73549e-07
3.40272e-06
-1.61274e-07
3.41705e-06
1.55523e-07
3.41875e-06
2.22662e-07
3.43621e-06
2.65421e-07
3.42807e-06
-2.95426e-08
3.4369e-06
5.60227e-08
3.41958e-06
-1.75421e-07
3.41725e-06
-1.76043e-07
3.40798e-06
-6.92477e-08
3.3974e-06
-1.26603e-07
3.39809e-06
-1.52847e-08
3.38921e-06
4.38203e-08
3.38837e-06
7.39995e-08
3.39281e-06
1.49669e-07
1.85486e-07
3.39352e-06
3.5832e-06
5.86547e-08
3.57973e-06
-1.50905e-07
3.59547e-06
3.81157e-07
3.59031e-06
-7.7913e-08
3.57915e-06
-2.62392e-07
3.56586e-06
-1.4798e-07
3.58065e-06
1.40731e-07
3.58241e-06
2.20902e-07
3.59941e-06
2.48427e-07
3.59225e-06
-2.2382e-08
3.59972e-06
4.85523e-08
3.58353e-06
-1.5923e-07
3.58006e-06
-1.72581e-07
3.57181e-06
-6.09967e-08
3.55995e-06
-1.14737e-07
3.56075e-06
-1.60849e-08
3.55281e-06
5.17598e-08
3.5508e-06
7.60058e-08
3.55633e-06
1.4414e-07
1.84026e-07
3.55779e-06
3.75472e-06
5.86357e-08
3.75076e-06
-1.4694e-07
3.76739e-06
3.64522e-07
3.76109e-06
-7.1609e-08
3.75101e-06
-2.52314e-07
3.73695e-06
-1.33918e-07
3.75193e-06
1.25749e-07
3.75407e-06
2.18767e-07
3.77021e-06
2.32285e-07
3.76437e-06
-1.654e-08
3.77035e-06
4.25667e-08
3.75517e-06
-1.44048e-07
3.75076e-06
-1.68174e-07
3.74333e-06
-5.35636e-08
3.73044e-06
-1.01848e-07
3.73106e-06
-1.67034e-08
3.72433e-06
5.84933e-08
3.72118e-06
7.91511e-08
3.72734e-06
1.37983e-07
1.81355e-07
3.73001e-06
3.93446e-06
5.83625e-08
3.9299e-06
-1.42379e-07
3.94753e-06
3.46896e-07
3.94007e-06
-6.41538e-08
3.93103e-06
-2.43268e-07
3.91641e-06
-1.19298e-07
3.93123e-06
1.1092e-07
3.93411e-06
2.15888e-07
3.94902e-06
2.17376e-07
3.94471e-06
-1.2231e-08
3.94928e-06
3.80041e-08
3.93485e-06
-1.2962e-07
3.9297e-06
-1.63028e-07
3.92294e-06
-4.6798e-08
3.90923e-06
-8.8138e-08
3.90942e-06
-1.68957e-08
3.90413e-06
6.37812e-08
3.89997e-06
8.33116e-08
3.90617e-06
1.31785e-07
1.77107e-07
3.91042e-06
4.12281e-06
5.78053e-08
4.11755e-06
-1.37118e-07
4.13623e-06
3.28211e-07
4.12768e-06
-5.56038e-08
4.11955e-06
-2.35134e-07
4.10466e-06
-1.04415e-07
4.11893e-06
9.66487e-08
4.12294e-06
2.11879e-07
4.1363e-06
2.04019e-07
4.13354e-06
-9.47239e-09
4.13695e-06
3.45923e-08
4.12295e-06
-1.15614e-07
4.11721e-06
-1.57288e-07
4.11108e-06
-4.0666e-08
4.09668e-06
-7.37456e-08
4.09623e-06
-1.6439e-08
4.09254e-06
6.74706e-08
4.08768e-06
8.81659e-08
4.09324e-06
1.26228e-07
1.71127e-07
4.09922e-06
4.32017e-06
5.69329e-08
4.31412e-06
-1.31063e-07
4.33388e-06
3.08455e-07
4.32437e-06
-4.60932e-08
4.31694e-06
-2.27707e-07
4.30216e-06
-8.96368e-08
4.31544e-06
8.3371e-08
4.32095e-06
2.06368e-07
4.33256e-06
1.92409e-07
4.33114e-06
-8.05575e-09
4.3338e-06
3.1932e-08
4.31992e-06
-1.01733e-07
4.31361e-06
-1.50972e-07
4.30816e-06
-3.52234e-08
4.29326e-06
-5.88364e-08
4.29192e-06
-1.51032e-08
4.28986e-06
6.95338e-08
4.28481e-06
9.3213e-08
4.28912e-06
1.21918e-07
1.63626e-07
4.29662e-06
4.52699e-06
5.57157e-08
4.52008e-06
-1.2415e-07
4.54085e-06
2.8768e-07
4.5306e-06
-3.58433e-08
4.5236e-06
-2.207e-07
4.50935e-06
-7.53897e-08
4.52121e-06
7.15136e-08
4.52853e-06
1.99042e-07
4.53836e-06
1.82581e-07
4.5379e-06
-7.59637e-09
4.54023e-06
2.96021e-08
4.52626e-06
-8.77583e-08
4.51928e-06
-1.43992e-07
4.51459e-06
-3.05341e-08
4.49939e-06
-4.36397e-08
4.497e-06
-1.27151e-08
4.49642e-06
7.01123e-08
4.49175e-06
9.7885e-08
4.49453e-06
1.19139e-07
1.55248e-07
4.50291e-06
4.7437e-06
5.41298e-08
4.73591e-06
-1.16358e-07
4.75757e-06
2.66019e-07
4.74688e-06
-2.51552e-08
4.73994e-06
-2.13764e-07
4.72667e-06
-6.21157e-08
4.73673e-06
6.14502e-08
4.74603e-06
1.89741e-07
4.75426e-06
1.74359e-07
4.75426e-06
-7.59456e-09
4.7566e-06
2.72596e-08
4.74245e-06
-7.36102e-08
4.7346e-06
-1.36147e-07
4.73069e-06
-2.66208e-08
4.71558e-06
-2.85272e-08
4.71198e-06
-9.11597e-09
4.71266e-06
6.94346e-08
4.70884e-06
1.01706e-07
4.71021e-06
1.17766e-07
1.46924e-07
4.71853e-06
4.97077e-06
5.21601e-08
4.96213e-06
-1.07723e-07
4.98446e-06
2.43689e-07
4.97371e-06
-1.44059e-08
4.96645e-06
-2.06502e-07
4.95458e-06
-5.0239e-08
4.96256e-06
5.34651e-08
4.97374e-06
1.78561e-07
4.98079e-06
1.67311e-07
4.98072e-06
-7.52419e-09
4.98328e-06
2.46968e-08
4.969e-06
-5.9331e-08
4.96002e-06
-1.2717e-07
4.95688e-06
-2.34747e-08
4.94228e-06
-1.39252e-08
4.93741e-06
-4.25028e-09
4.93905e-06
6.77943e-08
4.93638e-06
1.0438e-07
4.93675e-06
1.17396e-07
1.39471e-07
4.9442e-06
5.20867e-06
4.98028e-08
5.19929e-06
-9.83378e-08
5.222e-06
2.20981e-07
5.21164e-06
-4.04801e-09
5.20365e-06
-1.98509e-07
5.19349e-06
-4.00826e-08
5.19929e-06
4.76607e-08
5.21193e-06
1.65926e-07
5.21842e-06
1.60825e-07
5.21784e-06
-6.946e-09
5.22063e-06
2.19004e-08
5.20637e-06
-4.50704e-08
5.196e-06
-1.16801e-07
5.19358e-06
-2.1054e-08
5.17997e-06
-3.08726e-10
5.17389e-06
1.8309e-09
5.17614e-06
6.55378e-08
5.17471e-06
1.05807e-07
5.1746e-06
1.17507e-07
1.33338e-07
5.18074e-06
5.45793e-06
4.7066e-08
5.44794e-06
-8.835e-08
5.47067e-06
1.98248e-07
5.46119e-06
5.43218e-09
5.45213e-06
-1.89448e-07
5.44383e-06
-3.17812e-08
5.44762e-06
4.38649e-08
5.46111e-06
1.52439e-07
5.46752e-06
1.5442e-07
5.46618e-06
-5.61205e-09
5.46901e-06
1.90726e-08
5.45496e-06
-3.10167e-08
5.44311e-06
-1.04957e-07
5.44134e-06
-1.92774e-08
5.42915e-06
1.18791e-08
5.42199e-06
8.98838e-09
5.42451e-06
6.30201e-08
5.4243e-06
1.06012e-07
5.42412e-06
1.17688e-07
1.28509e-07
5.42895e-06
5.71905e-06
4.39709e-08
5.70865e-06
-7.795e-08
5.73102e-06
1.75877e-07
5.72288e-06
1.3572e-08
5.71258e-06
-1.79139e-07
5.70603e-06
-2.52369e-08
5.70818e-06
4.17181e-08
5.72187e-06
1.38745e-07
5.72843e-06
1.47859e-07
5.72619e-06
-3.36772e-09
5.72871e-06
1.65521e-08
5.71518e-06
-1.74841e-08
5.70204e-06
-9.18171e-08
5.70074e-06
-1.79771e-08
5.69034e-06
2.22786e-08
5.68231e-06
1.70176e-08
5.68471e-06
6.06164e-08
5.6857e-06
1.05019e-07
5.68568e-06
1.17717e-07
1.24691e-07
5.68949e-06
5.99262e-06
4.05465e-08
5.98201e-06
-6.73478e-08
6.00366e-06
1.54231e-07
5.99722e-06
2.00161e-08
5.98569e-06
-1.67614e-07
5.98056e-06
-2.01023e-08
5.98144e-06
4.08322e-08
5.99475e-06
1.25439e-07
6.00142e-06
1.41184e-07
5.99805e-06
9.05031e-12
5.99999e-06
1.46051e-08
5.98757e-06
-5.05919e-09
5.9736e-06
-7.7849e-08
5.97246e-06
-1.68369e-08
5.96405e-06
3.06888e-08
5.95543e-06
2.56334e-08
5.95734e-06
5.87088e-08
5.9595e-06
1.02857e-07
5.95975e-06
1.17474e-07
1.21569e-07
5.96287e-06
6.2792e-06
3.68301e-08
6.26861e-06
-5.67513e-08
6.28923e-06
1.33608e-07
6.28462e-06
2.46227e-08
6.27216e-06
-1.55146e-07
6.26804e-06
-1.59893e-08
6.2679e-06
4.09709e-08
6.28022e-06
1.1312e-07
6.28677e-06
1.3464e-07
6.28196e-06
4.81241e-09
6.28346e-06
1.31057e-08
6.27287e-06
5.53684e-09
6.25859e-06
-6.35692e-08
6.2572e-06
-1.54522e-08
6.25081e-06
3.70828e-08
6.24198e-06
3.44641e-08
6.24301e-06
5.76725e-08
6.24627e-06
9.95998e-08
6.24694e-06
1.16802e-07
1.18975e-07
6.24954e-06
6.57944e-06
3.28626e-08
6.56903e-06
-4.6347e-08
6.58841e-06
1.14227e-07
6.58554e-06
2.74986e-08
6.57255e-06
-1.42162e-07
6.56925e-06
-1.26897e-08
6.56814e-06
4.20819e-08
6.57889e-06
1.02374e-07
6.58536e-06
1.28173e-07
6.5795e-06
1.0666e-08
6.5805e-06
1.21087e-08
6.57186e-06
1.41782e-08
6.5576e-06
-4.93123e-08
6.55567e-06
-1.35207e-08
6.55115e-06
4.16022e-08
6.54254e-06
4.30781e-08
6.54246e-06
5.77476e-08
6.54655e-06
9.55077e-08
6.54791e-06
1.15442e-07
1.16844e-07
6.55004e-06
6.89396e-06
2.86914e-08
6.8839e-06
-3.62845e-08
6.90191e-06
9.622e-08
6.90058e-06
2.88248e-08
6.88742e-06
-1.29002e-07
6.88497e-06
-1.02382e-08
6.88295e-06
4.41052e-08
6.89179e-06
9.35298e-08
6.89838e-06
1.21584e-07
6.89208e-06
1.69664e-08
6.89219e-06
1.19949e-08
6.88517e-06
2.11969e-08
6.87127e-06
-3.54041e-08
6.86858e-06
-1.08339e-08
6.86567e-06
4.45088e-08
6.85772e-06
5.1031e-08
6.85646e-06
5.90116e-08
6.86093e-06
9.10378e-08
6.86325e-06
1.13118e-07
1.15044e-07
6.86505e-06
7.22346e-06
2.43681e-08
7.21386e-06
-2.66827e-08
7.23039e-06
7.96857e-08
7.23048e-06
2.87406e-08
7.21735e-06
-1.15878e-07
7.21581e-06
-8.69877e-09
7.21321e-06
4.6712e-08
7.22001e-06
8.6727e-08
7.22655e-06
1.15038e-07
7.22015e-06
2.33668e-08
7.21921e-06
1.29388e-08
7.21348e-06
2.69275e-08
7.2002e-06
-2.21245e-08
7.19667e-06
-7.29889e-09
7.19504e-06
4.61357e-08
7.18811e-06
5.79601e-08
7.18581e-06
6.13068e-08
7.1901e-06
8.67512e-08
7.1935e-06
1.09717e-07
1.13281e-07
7.19526e-06
7.56864e-06
1.99528e-08
7.5596e-06
-1.76434e-08
7.57457e-06
6.47149e-08
7.57595e-06
2.73585e-08
7.56292e-06
-1.02842e-07
7.56239e-06
-8.16638e-09
7.55981e-06
4.9289e-08
7.56436e-06
8.21741e-08
7.57043e-06
1.0897e-07
7.56422e-06
2.95819e-08
7.56228e-06
1.48728e-08
7.55754e-06
3.16725e-08
7.54504e-06
-9.62781e-09
7.54069e-06
-2.95125e-09
7.53999e-06
4.68415e-08
7.53432e-06
6.36311e-08
7.53131e-06
6.43142e-08
7.53494e-06
8.31176e-08
7.53925e-06
1.05413e-07
1.11166e-07
7.54136e-06
7.93025e-06
1.55136e-08
7.92186e-06
-9.2529e-09
7.93521e-06
5.13623e-08
7.93781e-06
2.4758e-08
7.92493e-06
-8.99595e-08
7.92511e-06
-8.34546e-09
7.92354e-06
5.08607e-08
7.92568e-06
8.00281e-08
7.93057e-06
1.04085e-07
7.92479e-06
3.53598e-08
7.92218e-06
1.74885e-08
7.91817e-06
3.56788e-08
7.9065e-06
2.03708e-09
7.9014e-06
2.15296e-09
7.90131e-06
4.69359e-08
7.89703e-06
6.79102e-08
7.89364e-06
6.7702e-08
7.89639e-06
8.03629e-08
7.90119e-06
1.00618e-07
1.08393e-07
7.90396e-06
8.30906e-06
1.11316e-08
8.30142e-06
-1.60826e-09
8.31303e-06
3.97529e-08
8.31674e-06
2.10435e-08
8.30415e-06
-7.73689e-08
8.3045e-06
-8.6975e-09
8.30461e-06
5.07504e-08
8.30435e-06
8.02938e-08
8.30767e-06
1.00766e-07
8.30258e-06
4.04498e-08
8.29966e-06
2.04081e-08
8.29617e-06
3.91621e-08
8.2854e-06
1.28158e-08
8.2796e-06
7.94412e-09
8.27981e-06
4.67314e-08
8.27697e-06
7.07528e-08
8.27355e-06
7.11226e-08
8.27537e-06
7.85357e-08
8.28023e-06
9.57631e-08
1.04897e-07
8.28372e-06
8.70589e-06
6.90395e-09
8.69915e-06
5.13071e-09
8.70869e-06
3.02108e-08
8.71346e-06
1.62791e-08
8.70093e-06
-6.48399e-08
8.70104e-06
-8.81084e-09
8.70213e-06
4.96665e-08
8.70021e-06
8.22134e-08
8.70263e-06
9.83431e-08
8.6984e-06
4.46736e-08
8.69546e-06
2.33528e-08
8.69239e-06
4.22285e-08
8.68257e-06
2.26409e-08
8.67616e-06
1.43487e-08
8.67637e-06
4.65247e-08
8.67492e-06
7.22081e-08
8.6718e-06
7.42408e-08
8.67276e-06
7.75769e-08
8.67734e-06
9.1177e-08
1.00832e-07
8.68141e-06
9.12158e-06
2.94057e-09
9.11595e-06
1.07601e-08
9.12312e-06
2.3047e-08
9.12862e-06
1.07784e-08
9.11484e-06
-5.10586e-08
9.1125e-06
-6.46962e-09
9.11352e-06
4.86446e-08
9.11403e-06
8.16968e-08
9.11666e-06
9.57128e-08
9.11318e-06
4.81571e-08
9.11033e-06
2.6205e-08
9.10771e-06
4.48432e-08
9.09884e-06
3.15148e-08
9.09201e-06
2.11805e-08
9.09192e-06
4.66113e-08
9.09167e-06
7.24584e-08
9.08919e-06
7.67197e-08
9.08943e-06
7.73411e-08
9.09352e-06
8.70807e-08
9.64111e-08
9.09795e-06
9.55705e-06
-6.51743e-10
9.55267e-06
1.51407e-08
9.55745e-06
1.82655e-08
9.56293e-06
5.30337e-09
9.54856e-06
-3.66944e-08
9.54227e-06
-1.74723e-10
9.54538e-06
4.5529e-08
9.54838e-06
7.86967e-08
9.55104e-06
9.30572e-08
9.54779e-06
5.14086e-08
9.54505e-06
2.89434e-08
9.54297e-06
4.69243e-08
9.53512e-06
3.93633e-08
9.52808e-06
2.82172e-08
9.52749e-06
4.72066e-08
9.52811e-06
7.18382e-08
9.52654e-06
7.82929e-08
9.52631e-06
7.75671e-08
9.52974e-06
8.36507e-08
9.18273e-08
9.53432e-06
1.00132e-05
-3.75689e-09
1.00102e-05
1.81489e-08
1.00127e-05
1.58226e-08
1.0018e-05
-5.28117e-12
1.00052e-05
-2.39427e-08
9.99723e-06
7.82385e-09
1e-05
4.27445e-08
1.00042e-05
7.45073e-08
1.00067e-05
9.05718e-08
1.00033e-05
5.4828e-08
1.00005e-05
3.17197e-08
9.99902e-06
4.84016e-08
9.99236e-06
4.60269e-08
9.98535e-06
3.52203e-08
9.98414e-06
4.84219e-08
9.98525e-06
7.07223e-08
9.98466e-06
7.88827e-08
9.98433e-06
7.78964e-08
9.98701e-06
8.09798e-08
8.73003e-08
9.99153e-06
1.04912e-05
-6.27061e-09
1.04896e-05
1.96825e-08
1.04899e-05
1.55348e-08
1.0495e-05
-5.08711e-09
1.04847e-05
-1.36592e-08
1.04756e-05
1.69522e-08
1.0477e-05
4.13328e-08
1.04819e-05
6.95473e-08
1.04846e-05
8.79666e-08
1.04809e-05
5.85288e-08
1.04777e-05
3.48481e-08
1.04768e-05
4.93592e-08
1.04715e-05
5.1327e-08
1.04647e-05
4.19558e-08
1.04629e-05
5.02413e-08
1.04642e-05
6.94352e-08
1.04645e-05
7.86003e-08
1.04644e-05
7.79905e-08
1.04664e-05
7.89696e-08
8.31104e-08
1.04706e-05
1.09919e-05
-8.11459e-09
1.09918e-05
1.9753e-08
1.09904e-05
1.69734e-08
1.09947e-05
-9.38777e-09
1.09872e-05
-6.21655e-09
1.09776e-05
2.6526e-08
1.09772e-05
4.18054e-08
1.09823e-05
6.43724e-08
1.09855e-05
8.48365e-08
1.09817e-05
6.23386e-08
1.0978e-05
3.85505e-08
1.09773e-05
5.00419e-08
1.09733e-05
5.52726e-08
1.09672e-05
4.80696e-08
1.09649e-05
5.25622e-08
1.09661e-05
6.82337e-08
1.0967e-05
7.76466e-08
1.09674e-05
7.76706e-08
1.0969e-05
7.73506e-08
7.94854e-08
1.09726e-05
1.15165e-05
-9.242e-09
1.15178e-05
1.84476e-08
1.15151e-05
1.96926e-08
1.1518e-05
-1.2277e-08
1.15134e-05
-1.67579e-09
1.15042e-05
3.5767e-08
1.15017e-05
4.42913e-08
1.15064e-05
5.96769e-08
1.15103e-05
8.09315e-08
1.15068e-05
6.58448e-08
1.15025e-05
4.28644e-08
1.15017e-05
5.07972e-08
1.1499e-05
5.80401e-08
1.14938e-05
5.32378e-08
1.14912e-05
5.51957e-08
1.14921e-05
6.72803e-08
1.14935e-05
7.6239e-08
1.14943e-05
7.6918e-08
1.14958e-05
7.58439e-08
7.6437e-08
1.14988e-05
1.20662e-05
-9.65881e-09
1.20686e-05
1.60358e-08
1.20652e-05
2.31206e-08
1.20661e-05
-1.3157e-08
1.20641e-05
3.37395e-10
1.20561e-05
4.37363e-08
1.20519e-05
4.85331e-08
1.20554e-05
5.61875e-08
1.206e-05
7.63134e-08
1.20573e-05
6.85407e-08
1.20525e-05
4.76288e-08
1.20513e-05
5.19739e-08
1.20495e-05
5.98453e-08
1.20454e-05
5.737e-08
1.20428e-05
5.78199e-08
1.20434e-05
6.66523e-08
1.20451e-05
7.45776e-08
1.20462e-05
7.57696e-08
1.20478e-05
7.43009e-08
7.37879e-08
1.20504e-05
1.26423e-05
-9.41357e-09
1.26455e-05
1.29087e-08
1.26419e-05
2.6711e-08
1.26403e-05
-1.15289e-08
1.26401e-05
4.63833e-10
1.26343e-05
4.95173e-08
1.2629e-05
5.39255e-08
1.26307e-05
5.44448e-08
1.26356e-05
7.13883e-08
1.26341e-05
7.00423e-08
1.26293e-05
5.2467e-08
1.26275e-05
5.3731e-08
1.26263e-05
6.10222e-08
1.26232e-05
6.04945e-08
1.26209e-05
6.01536e-08
1.26212e-05
6.63087e-08
1.2623e-05
7.28383e-08
1.26245e-05
7.42748e-08
1.26261e-05
7.26848e-08
7.13624e-08
1.26285e-05
1.32461e-05
-8.6143e-09
1.32495e-05
9.51758e-09
1.32462e-05
3.00432e-08
1.3242e-05
-7.33717e-09
1.32428e-05
-3.53275e-10
1.32398e-05
5.24879e-08
1.32341e-05
5.966e-08
1.32339e-05
5.46238e-08
1.32385e-05
6.67828e-08
1.32383e-05
7.02658e-08
1.32339e-05
5.68805e-08
1.32316e-05
5.59942e-08
1.32307e-05
6.19699e-08
1.32285e-05
6.26925e-08
1.32266e-05
6.20665e-08
1.32268e-05
6.61023e-08
1.32285e-05
7.11381e-08
1.32303e-05
7.25035e-08
1.3232e-05
7.09543e-08
6.90877e-08
1.32343e-05
1.3879e-05
-7.41117e-09
1.38822e-05
6.31501e-09
1.38795e-05
3.27148e-08
1.38732e-05
-1.05932e-09
1.38738e-05
-9.16233e-10
1.38737e-05
5.26116e-08
1.38685e-05
6.47853e-08
1.38666e-05
5.658e-08
1.38702e-05
6.31689e-08
1.38711e-05
6.93818e-08
1.38676e-05
6.03907e-08
1.3865e-05
5.85751e-08
1.3864e-05
6.29064e-08
1.38626e-05
6.41806e-08
1.38611e-05
6.34991e-08
1.38613e-05
6.58906e-08
1.3863e-05
6.9514e-08
1.38649e-05
7.05592e-08
1.38668e-05
6.90565e-08
6.69382e-08
1.38689e-05
1.45422e-05
-5.98488e-09
1.45447e-05
3.85969e-09
1.45431e-05
3.42744e-08
1.45356e-05
6.48035e-09
1.45348e-05
-1.57217e-10
1.4537e-05
5.04159e-08
1.45333e-05
6.84828e-08
1.45301e-05
5.98572e-08
1.45322e-05
6.10255e-08
1.45338e-05
6.77935e-08
1.45314e-05
6.2799e-08
1.45288e-05
6.11202e-08
1.45279e-05
6.38885e-08
1.45268e-05
6.5196e-08
1.45259e-05
6.44468e-08
1.45262e-05
6.55814e-08
1.45278e-05
6.79424e-08
1.45298e-05
6.85418e-08
1.45319e-05
6.69765e-08
6.48372e-08
1.4534e-05
1.52374e-05
-4.53836e-09
1.52389e-05
2.40047e-09
1.52385e-05
3.46347e-08
1.52306e-05
1.44165e-08
1.52279e-05
2.52357e-09
1.52314e-05
4.69016e-08
1.52297e-05
7.02516e-08
1.52258e-05
6.37618e-08
1.52263e-05
6.04644e-08
1.5228e-05
6.61143e-08
1.52267e-05
6.41133e-08
1.52246e-05
6.3225e-08
1.52235e-05
6.49338e-08
1.52229e-05
6.586e-08
1.52223e-05
6.49917e-08
1.52228e-05
6.51381e-08
1.52243e-05
6.63711e-08
1.52264e-05
6.65181e-08
1.52286e-05
6.47548e-08
6.26661e-08
1.52308e-05
1.5966e-05
-3.23297e-09
1.59664e-05
2.0036e-09
1.59671e-05
3.39917e-08
1.59595e-05
2.19857e-08
1.59549e-05
7.12445e-09
1.59586e-05
4.3245e-08
1.59588e-05
7.00306e-08
1.5955e-05
6.74918e-08
1.59542e-05
6.13098e-08
1.59554e-05
6.49359e-08
1.5955e-05
6.4512e-08
1.59535e-05
6.4663e-08
1.59526e-05
6.58639e-08
1.59522e-05
6.62989e-08
1.5952e-05
6.51816e-08
1.59525e-05
6.45702e-08
1.59542e-05
6.47589e-08
1.59562e-05
6.45052e-08
1.59584e-05
6.24798e-08
6.03426e-08
1.59608e-05
1.67295e-05
-2.1656e-09
1.67288e-05
2.6958e-09
1.67302e-05
3.26277e-08
1.67236e-05
2.85625e-08
1.67175e-05
1.32261e-08
1.67203e-05
4.05202e-08
1.67221e-05
6.81502e-08
1.67193e-05
7.03269e-08
1.67174e-05
6.32183e-08
1.67178e-05
6.45248e-08
1.67179e-05
6.44214e-08
1.67171e-05
6.54122e-08
1.67166e-05
6.64111e-08
1.67163e-05
6.65763e-08
1.67164e-05
6.5064e-08
1.67171e-05
6.38639e-08
1.67188e-05
6.31186e-08
1.67208e-05
6.24576e-08
1.67231e-05
6.02512e-08
5.78679e-08
1.67255e-05
1.75296e-05
-1.38409e-09
1.75281e-05
4.21837e-09
1.75296e-05
3.10518e-08
1.75244e-05
3.37717e-08
1.75174e-05
2.02163e-08
1.75186e-05
3.93824e-08
1.75214e-05
6.52704e-08
1.75199e-05
7.18967e-08
1.75175e-05
6.56202e-08
1.75171e-05
6.49005e-08
1.75172e-05
6.42912e-08
1.75171e-05
6.55761e-08
1.7517e-05
6.64727e-08
1.7517e-05
6.65839e-08
1.75173e-05
6.4738e-08
1.75182e-05
6.29777e-08
1.75198e-05
6.14805e-08
1.7522e-05
6.0334e-08
1.75241e-05
5.81e-08
5.53318e-08
1.75267e-05
1.83678e-05
-8.6182e-10
1.83657e-05
6.3284e-09
1.83671e-05
2.96897e-08
1.83633e-05
3.75376e-08
1.83562e-05
2.73409e-08
1.83556e-05
3.9977e-08
1.83586e-05
6.22417e-08
1.83583e-05
7.22063e-08
1.83561e-05
6.78586e-08
1.8355e-05
6.59681e-08
1.83549e-05
6.43757e-08
1.83551e-05
6.53668e-08
1.83555e-05
6.61363e-08
1.83559e-05
6.61522e-08
1.83564e-05
6.4221e-08
1.83574e-05
6.19484e-08
1.83591e-05
5.98108e-08
1.83613e-05
5.81466e-08
1.83634e-05
5.59616e-08
5.28536e-08
1.83659e-05
1.92461e-05
-5.25846e-10
1.92437e-05
8.72105e-09
1.92445e-05
2.88893e-08
1.92419e-05
4.00569e-08
1.92354e-05
3.39297e-08
1.92333e-05
4.20348e-08
1.92357e-05
5.98294e-08