/*--------------------------------*- C++ -*----------------------------------*\
| =========                 |                                                 |
| \\      /  F ield         | OpenFOAM: The Open Source CFD Toolbox           |
|  \\    /   O peration     | Version:  v1812                                 |
|   \\  /    A nd           | Web:      www.OpenFOAM.com                      |
|    \\/     M anipulation  |                                                 |
\*---------------------------------------------------------------------------*/
FoamFile
{
    version     2.0;
    format      ascii;
    class       volVectorField;
    location    "2";
    object      U;
}
// * * * * * * * * * * * * * * * * * * * * * * * * * * * * * * * * * * * * * //

dimensions      [0 1 -1 0 0 0 0];


internalField   nonuniform List<vector> 
9600
(
(0.863251 0.000454336 0)
(1.1367 -0.00185875 0)
(0.886842 0.00619579 0)
(1.10924 -0.00342348 0)
(0.815946 -0.00454249 0)
(1.17613 -0.00105066 0)
(0.890503 0.000697338 0)
(1.07081 0.0043315 0)
(0.901865 0.00975827 0)
(1.06443 -0.00481475 0)
(0.859532 0.00680927 0)
(1.1017 -0.0126989 0)
(0.83499 -0.00370279 0)
(1.13769 -0.00586088 0)
(0.827754 -0.00553153 0)
(1.14422 -0.000490656 0)
(0.842361 -0.0022454 0)
(1.12758 0.00190229 0)
(0.843907 0.00389853 0)
(1.11715 0.00807164 0)
(0.872613 0.000374259 0)
(1.12578 -0.00186087 0)
(0.895504 0.00620618 0)
(1.09575 -0.00258563 0)
(0.831813 -0.00547569 0)
(1.15899 -0.00166564 0)
(0.905195 0.00173706 0)
(1.05751 0.00452011 0)
(0.916754 0.0096173 0)
(1.0455 -0.00391945 0)
(0.883865 0.00589549 0)
(1.07023 -0.0118821 0)
(0.869119 -0.00494716 0)
(1.09441 -0.00545815 0)
(0.879299 -0.0060679 0)
(1.08794 -0.000595813 0)
(0.914695 -0.00165963 0)
(1.04894 0.00125691 0)
(0.946019 0.00545186 0)
(0.998828 0.00640691 0)
(0.890641 0.000320048 0)
(1.10545 -0.00188279 0)
(0.912251 0.00633044 0)
(1.07476 -0.00196841 0)
(0.861806 -0.00623317 0)
(1.12729 -0.00213115 0)
(0.932016 0.00265881 0)
(1.03435 0.00451549 0)
(0.939267 0.00963812 0)
(1.02173 -0.00342088 0)
(0.918594 0.00534527 0)
(1.03673 -0.01154 0)
(0.916987 -0.00544898 0)
(1.04507 -0.00559865 0)
(0.93978 -0.00587281 0)
(1.03161 -0.00150899 0)
(0.97129 -0.000799949 0)
(1.00185 0.000735074 0)
(0.982898 0.0061663 0)
(0.980665 0.00697596 0)
(0.914378 0.000299994 0)
(1.07951 -0.00191846 0)
(0.93343 0.00646722 0)
(1.05161 -0.00152523 0)
(0.898975 -0.00674528 0)
(1.08877 -0.00264754 0)
(0.961244 0.00343994 0)
(1.01194 0.0045513 0)
(0.959812 0.00969652 0)
(1.00394 -0.00314018 0)
(0.949123 0.00505701 0)
(1.01364 -0.0114748 0)
(0.954424 -0.00556271 0)
(1.01368 -0.00606552 0)
(0.977104 -0.00556792 0)
(1.00558 -0.00216152 0)
(0.993239 -0.000243138 0)
(0.994389 0.000764019 0)
(0.988358 0.00640278 0)
(0.98637 0.00793763 0)
(0.939536 0.00030744 0)
(1.0531 -0.00196311 0)
(0.954481 0.00659501 0)
(1.03137 -0.001219 0)
(0.934373 -0.00708257 0)
(1.05291 -0.00317033 0)
(0.983714 0.00409368 0)
(0.998061 0.0047132 0)
(0.974463 0.00971735 0)
(0.995864 -0.00297903 0)
(0.969614 0.00484838 0)
(1.00309 -0.0114759 0)
(0.975154 -0.00557524 0)
(1.00058 -0.00651434 0)
(0.992325 -0.00537993 0)
(0.999593 -0.00252874 0)
(0.999159 1.69077e-05 0)
(0.997338 0.000976148 0)
(0.991455 0.0065995 0)
(0.989524 0.00871494 0)
(0.961997 0.000333922 0)
(1.03076 -0.00200268 0)
(0.971863 0.00670041 0)
(1.01716 -0.00105064 0)
(0.962004 -0.00725269 0)
(1.02606 -0.00359525 0)
(0.996049 0.00456344 0)
(0.993211 0.0049361 0)
(0.984297 0.00968853 0)
(0.99504 -0.00289255 0)
(0.981825 0.00467366 0)
(1.00052 -0.011453 0)
(0.984627 -0.00556923 0)
(0.996386 -0.00683905 0)
(0.996473 -0.00533609 0)
(0.998812 -0.00274985 0)
(1.00055 0.000139319 0)
(0.998972 0.00116069 0)
(0.994351 0.00680134 0)
(0.991367 0.00940475 0)
(0.979156 0.000367644 0)
(1.0149 -0.00202415 0)
(0.984136 0.00675834 0)
(1.00921 -0.000983573 0)
(0.980444 -0.00728183 0)
(1.00942 -0.00388656 0)
(1.0001 0.00481856 0)
(0.993416 0.00514193 0)
(0.991434 0.00962126 0)
(0.997453 -0.00283256 0)
(0.989399 0.00452987 0)
(1.00119 -0.0113772 0)
(0.989058 -0.00551689 0)
(0.994933 -0.00707776 0)
(0.996603 -0.00535087 0)
(0.997726 -0.00291323 0)
(1.00015 0.000130707 0)
(0.998756 0.00138562 0)
(0.995549 0.00694453 0)
(0.992742 0.0100403 0)
(0.990418 0.000398202 0)
(1.00539 -0.00202491 0)
(0.991765 0.00676223 0)
(1.00578 -0.000974941 0)
(0.991338 -0.00721588 0)
(1.00067 -0.00405305 0)
(0.99964 0.0049075 0)
(0.994903 0.00527748 0)
(0.996878 0.00952444 0)
(1.0004 -0.00277096 0)
(0.994707 0.00441115 0)
(1.00258 -0.0112367 0)
(0.991775 -0.00541796 0)
(0.994268 -0.00722821 0)
(0.995629 -0.00536105 0)
(0.995919 -0.00305109 0)
(0.998555 5.11704e-05 0)
(0.997516 0.00167592 0)
(0.995376 0.0069665 0)
(0.993483 0.0105769 0)
(0.99675 0.00042084 0)
(1.00055 -0.00201053 0)
(0.996108 0.00672353 0)
(1.00473 -0.000997371 0)
(0.997189 -0.00709139 0)
(0.996671 -0.00411813 0)
(0.997725 0.00489948 0)
(0.995976 0.00532336 0)
(1.00081 0.00940038 0)
(1.00272 -0.00270511 0)
(0.998637 0.00430871 0)
(1.00383 -0.0110349 0)
(0.99391 -0.00529426 0)
(0.994077 -0.00726614 0)
(0.994635 -0.00536188 0)
(0.994 -0.00313368 0)
(0.996402 -6.1789e-05 0)
(0.995717 0.00196776 0)
(0.994458 0.00686535 0)
(0.993626 0.0110115 0)
(0.99976 0.000436406 0)
(0.998451 -0.00198948 0)
(0.998473 0.00665724 0)
(1.00461 -0.00103393 0)
(1.00005 -0.00693086 0)
(0.995047 -0.0041112 0)
(0.995971 0.00484299 0)
(0.996446 0.00529028 0)
(1.00337 0.00924977 0)
(1.0042 -0.00263904 0)
(1.00139 0.00421304 0)
(1.00479 -0.0107836 0)
(0.99565 -0.00516176 0)
(0.994278 -0.00719652 0)
(0.993987 -0.00535892 0)
(0.992441 -0.00312008 0)
(0.994277 -0.000209742 0)
(0.993745 0.00223355 0)
(0.993171 0.00669585 0)
(0.993277 0.0113305 0)
(1.00091 0.000448175 0)
(0.997683 -0.00196841 0)
(0.999724 0.00657457 0)
(1.00477 -0.00107385 0)
(1.00126 -0.00674728 0)
(0.994463 -0.00406031 0)
(0.99489 0.00476417 0)
(0.9966 0.00520182 0)
(1.00482 0.00907548 0)
(1.00502 -0.00257295 0)
(1.00308 0.00411249 0)
(1.00545 -0.0104931 0)
(0.996952 -0.00503269 0)
(0.994712 -0.00703719 0)
(0.993729 -0.00534843 0)
(0.991422 -0.00300585 0)
(0.992568 -0.000376323 0)
(0.991954 0.00249735 0)
(0.991793 0.00650903 0)
(0.992568 0.0114956 0)
(1.00121 0.000458964 0)
(0.997475 -0.00195012 0)
(1.00034 0.00648137 0)
(1.00501 -0.00111094 0)
(1.00161 -0.00654824 0)
(0.994287 -0.00398685 0)
(0.994452 0.00467399 0)
(0.99667 0.00508157 0)
(1.00552 0.00888166 0)
(1.0054 -0.00250357 0)
(1.00393 0.00399827 0)
(1.00586 -0.0101686 0)
(0.997825 -0.00492269 0)
(0.99519 -0.00680228 0)
(0.993765 -0.00533722 0)
(0.990907 -0.00280996 0)
(0.991438 -0.000540029 0)
(0.990578 0.00276725 0)
(0.990578 0.00634776 0)
(0.991713 0.0114929 0)
(1.00118 0.000470193 0)
(0.997473 -0.00193442 0)
(1.0006 0.00637948 0)
(1.00525 -0.00114258 0)
(1.00157 -0.00633765 0)
(0.994252 -0.00390445 0)
(0.994452 0.00457515 0)
(0.996743 0.00494853 0)
(1.00574 0.00867112 0)
(1.00553 -0.00242575 0)
(1.00422 0.00386613 0)
(1.00604 -0.00981444 0)
(0.998358 -0.00484163 0)
(0.995577 -0.00650404 0)
(0.993977 -0.00533536 0)
(0.990754 -0.00255138 0)
(0.990862 -0.000687294 0)
(0.989702 0.00302328 0)
(0.989698 0.0062527 0)
(0.990955 0.0113468 0)
(1.00107 0.000482221 0)
(0.997534 -0.00192007 0)
(1.00068 0.00626929 0)
(1.00544 -0.0011687 0)
(1.00141 -0.00611715 0)
(0.994261 -0.0038196 0)
(0.994678 0.00446731 0)
(0.996826 0.00481554 0)
(1.00569 0.00844607 0)
(1.00551 -0.00233528 0)
(1.0042 0.0037125 0)
(1.00603 -0.00943143 0)
(0.998675 -0.00479208 0)
(0.995824 -0.00615651 0)
(0.994264 -0.00535068 0)
(0.990815 -0.00223912 0)
(0.990708 -0.000779808 0)
(0.989288 0.00324398 0)
(0.989208 0.0062544 0)
(0.990456 0.0111 0)
(1.00099 0.000494909 0)
(0.997602 -0.00190589 0)
(1.00069 0.00615119 0)
(1.00553 -0.00118985 0)
(1.00126 -0.00588878 0)
(0.994293 -0.00373377 0)
(0.99498 0.00434941 0)
(0.996909 0.0046893 0)
(1.00551 0.00820828 0)
(1.0054 -0.00223088 0)
(1.00404 0.00353702 0)
(1.00591 -0.00901968 0)
(0.998882 -0.00477244 0)
(0.995946 -0.00577219 0)
(0.994566 -0.00537584 0)
(0.990984 -0.00190738 0)
(0.990815 -0.000816977 0)
(0.989225 0.00340207 0)
(0.989059 0.00635714 0)
(0.990263 0.0107933 0)
(1.00095 0.000507853 0)
(0.997662 -0.00189083 0)
(1.00068 0.00602587 0)
(1.00552 -0.00120642 0)
(1.00117 -0.00565532 0)
(0.994354 -0.0036457 0)
(0.995276 0.00422075 0)
(0.996984 0.00457341 0)
(1.00531 0.00795583 0)
(1.00526 -0.00211032 0)
(1.00385 0.00333993 0)
(1.00571 -0.00858008 0)
(0.999045 -0.00477929 0)
(0.995983 -0.00535939 0)
(0.994851 -0.0054032 0)
(0.991197 -0.00157503 0)
(0.99105 -0.000796704 0)
(0.989397 0.00347889 0)
(0.989158 0.0065374 0)
(0.990326 0.010466 0)
(1.00093 0.000520723 0)
(0.997719 -0.0018745 0)
(1.00068 0.00589439 0)
(1.00541 -0.00121865 0)
(1.00113 -0.00541971 0)
(0.994452 -0.00355203 0)
(0.995537 0.00407981 0)
(0.99705 0.0044701 0)
(1.00511 0.00768735 0)
(1.0051 -0.00197309 0)
(1.00365 0.00312285 0)
(1.00548 -0.00811462 0)
(0.999194 -0.00480773 0)
(0.995976 -0.00492483 0)
(0.995106 -0.00542285 0)
(0.991427 -0.00126334 0)
(0.991327 -0.000705881 0)
(0.989706 0.00348241 0)
(0.98941 0.00675996 0)
(0.990567 0.010156 0)
(1.00093 0.000533199 0)
(0.997781 -0.00185664 0)
(1.00068 0.00575728 0)
(1.00525 -0.00122608 0)
(1.00111 -0.005185 0)
(0.994585 -0.00345048 0)
(0.995765 0.00392649 0)
(0.99711 0.00437911 0)
(1.00493 0.00740209 0)
(1.00495 -0.0018189 0)
(1.00347 0.00288811 0)
(1.00524 -0.00762706 0)
(0.99934 -0.00485378 0)
(0.995953 -0.00447695 0)
(0.99533 -0.00542576 0)
(0.991667 -0.000997509 0)
(0.991606 -0.000525641 0)
(0.990091 0.0034334 0)
(0.989747 0.00698523 0)
(0.990909 0.0098879 0)
(1.00092 0.000544937 0)
(0.997861 -0.00183702 0)
(1.00069 0.00561497 0)
(1.00506 -0.00122811 0)
(1.00109 -0.00495409 0)
(0.99475 -0.00333947 0)
(0.995966 0.00376075 0)
(0.997175 0.0043005 0)
(1.00476 0.00709965 0)
(1.00481 -0.00165073 0)
(1.00328 0.00263998 0)
(1.005 -0.00712144 0)
(0.999482 -0.00491012 0)
(0.995932 -0.00403268 0)
(0.995528 -0.00539461 0)
(0.991923 -0.000793054 0)
(0.991867 -0.000255553 0)
(0.990518 0.00335055 0)
(0.990129 0.00717627 0)
(0.991298 0.00967794 0)
(1.00089 0.000555831 0)
(0.997963 -0.00181584 0)
(1.00069 0.0054678 0)
(1.00487 -0.00122351 0)
(1.00106 -0.00472991 0)
(0.994938 -0.00321563 0)
(0.996149 0.00358045 0)
(0.997254 0.00423415 0)
(1.00459 0.00678173 0)
(1.00469 -0.00146876 0)
(1.00309 0.00238053 0)
(1.00476 -0.00660827 0)
(0.999616 -0.00495981 0)
(0.995924 -0.00360951 0)
(0.995698 -0.00530301 0)
(0.992202 -0.000651063 0)
(0.992109 7.22289e-05 0)
(0.990969 0.00325427 0)
(0.990533 0.00730911 0)
(0.991699 0.00953531 0)
(1.00084 0.000565561 0)
(0.998089 -0.00179255 0)
(1.00067 0.00531512 0)
(1.0047 -0.00121089 0)
(1.001 -0.00451369 0)
(0.995144 -0.00307776 0)
(0.996315 0.00338514 0)
(0.997352 0.00417936 0)
(1.0044 0.00645032 0)
(1.00459 -0.00127627 0)
(1.00289 0.00211849 0)
(1.00454 -0.0061021 0)
(0.999738 -0.00499052 0)
(0.995933 -0.00321232 0)
(0.995845 -0.00514773 0)
(0.99251 -0.000561934 0)
(0.992334 0.000433703 0)
(0.991435 0.00316396 0)
(0.990953 0.00736813 0)
(0.992094 0.00945525 0)
(1.00077 0.000573866 0)
(0.998235 -0.00176683 0)
(1.00064 0.00515612 0)
(1.00455 -0.00118845 0)
(1.00093 -0.004308 0)
(0.995365 -0.00292408 0)
(0.996466 0.00317431 0)
(0.99747 0.0041354 0)
(1.0042 0.00610786 0)
(1.00451 -0.00108017 0)
(1.00268 0.00186289 0)
(1.00432 -0.00560657 0)
(0.999851 -0.00499949 0)
(0.995961 -0.00284735 0)
(0.995968 -0.00493664 0)
(0.992847 -0.000527938 0)
(0.992546 0.000803628 0)
(0.991908 0.00309457 0)
(0.991389 0.00734606 0)
(0.992475 0.00942076 0)
(1.00068 0.00058087 0)
(0.998393 -0.00173887 0)
(1.0006 0.00499064 0)
(1.00441 -0.00115523 0)
(1.00084 -0.00411523 0)
(0.995595 -0.00275366 0)
(0.996605 0.00294798 0)
(0.997603 0.00410164 0)
(1.00399 0.00575825 0)
(1.00444 -0.000885762 0)
(1.00247 0.0016212 0)
(1.00412 -0.00513044 0)
(0.999956 -0.00497835 0)
(0.996009 -0.00251728 0)
(0.996071 -0.0046696 0)
(0.993213 -0.000524085 0)
(0.992754 0.00117275 0)
(0.992378 0.00305937 0)
(0.991841 0.00724467 0)
(0.99284 0.0094096 0)
(1.00058 0.000586162 0)
(0.998553 -0.00170757 0)
(1.00055 0.00481765 0)
(1.00428 -0.00110932 0)
(1.00075 -0.00393782 0)
(0.99583 -0.00256829 0)
(0.996735 0.00271061 0)
(0.997746 0.00407258 0)
(1.00377 0.00540907 0)
(1.00437 -0.000702478 0)
(1.00225 0.00140251 0)
(1.00391 -0.00468563 0)
(1.00006 -0.00492413 0)
(0.996078 -0.00222372 0)
(0.996159 -0.00434491 0)
(0.993603 -0.000538905 0)
(0.992965 0.00152942 0)
(0.992835 0.00306774 0)
(0.992313 0.00707112 0)
(0.993192 0.00939783 0)
(1.00049 0.000589223 0)
(0.998704 -0.00167176 0)
(1.0005 0.00463527 0)
(1.00415 -0.00104875 0)
(1.00066 -0.00377567 0)
(0.996064 -0.0023701 0)
(0.996864 0.00246581 0)
(0.99789 0.00404406 0)
(1.00354 0.00506611 0)
(1.0043 -0.00053828 0)
(1.00204 0.0012154 0)
(1.0037 -0.00426994 0)
(1.00017 -0.00484122 0)
(0.996165 -0.00196266 0)
(0.996238 -0.00397449 0)
(0.994012 -0.000565344 0)
(0.99319 0.00186294 0)
(0.993269 0.00312584 0)
(0.992803 0.00683489 0)
(0.993537 0.0093609 0)
(1.00042 0.000590524 0)
(0.99884 -0.00163167 0)
(1.00046 0.00444271 0)
(1.00401 -0.000972627 0)
(1.00059 -0.0036279 0)
(0.996293 -0.00215896 0)
(0.996997 0.00221391 0)
(0.998027 0.00401014 0)
(1.00332 0.00473874 0)
(1.00422 -0.000398302 0)
(1.00184 0.00106234 0)
(1.00348 -0.00387501 0)
(1.00028 -0.00472719 0)
(0.996271 -0.00172603 0)
(0.996313 -0.00356662 0)
(0.994434 -0.000593993 0)
(0.993437 0.00216287 0)
(0.993671 0.00323422 0)
(0.993309 0.00654836 0)
(0.993886 0.009278 0)
(1.00036 0.000589183 0)
(0.998957 -0.00158489 0)
(1.00043 0.00423802 0)
(1.00387 -0.000881572 0)
(1.00053 -0.00349425 0)
(0.996513 -0.00193837 0)
(0.99714 0.00196135 0)
(0.998155 0.00396616 0)
(1.0031 0.00443177 0)
(1.00413 -0.000295065 0)
(1.00166 0.000939029 0)
(1.00326 -0.00349704 0)
(1.0004 -0.0045929 0)
(0.996394 -0.00151012 0)
(0.996386 -0.00312827 0)
(0.994864 -0.000612693 0)
(0.993715 0.00241596 0)
(0.994038 0.00339499 0)
(0.993823 0.0062345 0)
(0.99425 0.00912589 0)
(1.00032 0.000585052 0)
(0.999058 -0.00153102 0)
(1.00041 0.00402107 0)
(1.00372 -0.000775503 0)
(1.00049 -0.00337397 0)
(0.996723 -0.00171094 0)
(0.997296 0.00171524 0)
(0.998272 0.00390543 0)
(1.00289 0.00415057 0)
(1.00403 -0.000230678 0)
(1.0015 0.00084682 0)
(1.00302 -0.00313805 0)
(1.00053 -0.0044484 0)
(0.996536 -0.00131086 0)
(0.996459 -0.00266725 0)
(0.995295 -0.00061443 0)
(0.994031 0.00260313 0)
(0.994368 0.00360105 0)
(0.994336 0.00592561 0)
(0.994645 0.00887452 0)
(1.00029 0.000578405 0)
(0.999146 -0.00147012 0)
(1.0004 0.00379156 0)
(1.00355 -0.000654988 0)
(1.00046 -0.00326739 0)
(0.996921 -0.00147827 0)
(0.997464 0.00148355 0)
(0.998381 0.00381416 0)
(1.0027 0.0039113 0)
(1.00392 -0.000193045 0)
(1.00136 0.000778445 0)
(1.00277 -0.00278446 0)
(1.00066 -0.00428978 0)
(0.996699 -0.00113352 0)
(0.99653 -0.00218287 0)
(0.99572 -0.000586193 0)
(0.994388 0.00271824 0)
(0.994668 0.00383605 0)
(0.994828 0.00566494 0)
(0.995078 0.0085114 0)
(1.00027 0.000567766 0)
(0.999227 -0.00139849 0)
(1.00039 0.00354737 0)
(1.00338 -0.000524203 0)
(1.00045 -0.00316813 0)
(0.997108 -0.00125375 0)
(0.997642 0.00127391 0)
(0.998486 0.00369289 0)
(1.00251 0.00370876 0)
(1.0038 -0.000177827 0)
(1.00124 0.00072419 0)
(1.00252 -0.00241908 0)
(1.00079 -0.00411221 0)
(0.996884 -0.000984608 0)
(0.9966 -0.00168227 0)
(0.996131 -0.000519206 0)
(0.994785 0.00276628 0)
(0.994951 0.00407498 0)
(0.995283 0.00548923 0)
(0.995546 0.00806345 0)
(1.00026 0.000553644 0)
(0.999305 -0.00131762 0)
(1.0004 0.00329224 0)
(1.0032 -0.000386649 0)
(1.00044 -0.00307122 0)
(0.997285 -0.00104445 0)
(0.997827 0.00109181 0)
(0.998592 0.00353653 0)
(1.00233 0.00353482 0)
(1.00368 -0.000175917 0)
(1.00114 0.000672005 0)
(1.00226 -0.00205034 0)
(1.00091 -0.00391021 0)
(0.997094 -0.000859936 0)
(0.99667 -0.00117889 0)
(0.996519 -0.000411768 0)
(0.995221 0.00275512 0)
(0.99523 0.00428496 0)
(0.995688 0.005406 0)
(0.996034 0.00758339 0)
(1.00025 0.000535875 0)
(0.999381 -0.00122736 0)
(1.00041 0.00302788 0)
(1.00303 -0.00024553 0)
(1.00043 -0.00297351 0)
(0.997452 -0.000850353 0)
(0.998012 0.000945447 0)
(0.998701 0.0033423 0)
(1.00216 0.00338729 0)
(1.00355 -0.000175725 0)
(1.00106 0.000615122 0)
(1.00201 -0.00168288 0)
(1.00102 -0.0036774 0)
(0.997329 -0.000756333 0)
(0.996741 -0.000685443 0)
(0.996876 -0.000258409 0)
(0.995687 0.00269791 0)
(0.995522 0.00443751 0)
(0.996039 0.00539598 0)
(0.996516 0.00713647 0)
(1.00024 0.000513831 0)
(0.999455 -0.00112771 0)
(1.00042 0.00275808 0)
(1.00285 -0.000107721 0)
(1.00042 -0.00286643 0)
(0.997613 -0.000679692 0)
(0.998193 0.000836705 0)
(0.998816 0.00312249 0)
(1.00199 0.00325369 0)
(1.00343 -0.000168719 0)
(1.001 0.000548161 0)
(1.00177 -0.00131141 0)
(1.00111 -0.00340626 0)
(0.99759 -0.000676169 0)
(0.996819 -0.000221446 0)
(0.997197 -6.22767e-05 0)
(0.996171 0.00261104 0)
(0.995836 0.00452435 0)
(0.996347 0.0054265 0)
(0.996964 0.00677798 0)
(1.00022 0.000487777 0)
(0.999527 -0.00102024 0)
(1.00044 0.00248493 0)
(1.00267 1.98362e-05 0)
(1.00042 -0.00274061 0)
(0.99777 -0.000542666 0)
(0.998368 0.000762936 0)
(0.998936 0.00288271 0)
(1.00183 0.0031258 0)
(1.0033 -0.000146287 0)
(1.00096 0.000477797 0)
(1.00153 -0.000947652 0)
(1.00118 -0.00309727 0)
(0.997875 -0.000612113 0)
(0.99691 0.000206775 0)
(0.997478 0.000178319 0)
(0.996663 0.00251358 0)
(0.99618 0.00455303 0)
(0.996624 0.00546317 0)
(0.99736 0.00652272 0)
(1.00021 0.000457675 0)
(0.999594 -0.000907673 0)
(1.00046 0.00221575 0)
(1.0025 0.00013245 0)
(1.00041 -0.00259875 0)
(0.997924 -0.000430228 0)
(0.998534 0.000715102 0)
(0.999061 0.00263294 0)
(1.00168 0.00299742 0)
(1.00317 -0.00010397 0)
(1.00094 0.000413157 0)
(1.00132 -0.000601045 0)
(1.00124 -0.00274575 0)
(0.99818 -0.000568464 0)
(0.99702 0.000579566 0)
(0.997721 0.000451366 0)
(0.997153 0.00241365 0)
(0.996556 0.00452999 0)
(0.996888 0.00547966 0)
(0.997701 0.00634094 0)
(1.00019 0.000424867 0)
(0.999657 -0.000791476 0)
(1.00049 0.00195281 0)
(1.00233 0.000225671 0)
(1.0004 -0.00244331 0)
(0.998078 -0.000339514 0)
(0.99869 0.000690428 0)
(0.999188 0.00238769 0)
(1.00153 0.00286794 0)
(1.00304 -4.53705e-05 0)
(1.00094 0.000356065 0)
(1.00112 -0.000274292 0)
(1.00127 -0.00235816 0)
(0.998498 -0.000534358 0)
(0.997158 0.000895061 0)
(0.997927 0.000753708 0)
(0.99763 0.00232293 0)
(0.996962 0.0044607 0)
(0.997148 0.00547516 0)
(0.997994 0.00619426 0)
(1.00018 0.000388558 0)
(0.999714 -0.000675248 0)
(1.00051 0.00170136 0)
(1.00217 0.000295659 0)
(1.00039 -0.0022735 0)
(0.99823 -0.000271888 0)
(0.998837 0.000689689 0)
(0.999316 0.00215146 0)
(1.00141 0.00273453 0)
(1.0029 4.24349e-05 0)
(1.00096 0.00031681 0)
(1.00094 1.95128e-05 0)
(1.00127 -0.00195614 0)
(0.998822 -0.00049117 0)
(0.997329 0.00114836 0)
(0.998099 0.00107233 0)
(0.998082 0.00225067 0)
(0.997398 0.00434243 0)
(0.997415 0.00546084 0)
(0.99825 0.00606471 0)
(1.00017 0.000349487 0)
(0.999764 -0.000560674 0)
(1.00054 0.00146588 0)
(1.00202 0.000341272 0)
(1.00038 -0.00209368 0)
(0.998382 -0.00021411 0)
(0.998975 0.000702301 0)
(0.999443 0.00193881 0)
(1.00129 0.0025975 0)
(1.00276 0.000162817 0)
(1.00099 0.000289069 0)
(1.0008 0.000263254 0)
(1.00126 -0.00155364 0)
(0.999144 -0.000438493 0)
(0.997535 0.00132851 0)
(0.998246 0.00138818 0)
(0.9985 0.00221471 0)
(0.997862 0.00417474 0)
(0.997697 0.00542762 0)
(0.998475 0.005953 0)
(1.00016 0.000308736 0)
(0.999809 -0.000448119 0)
(1.00056 0.00124361 0)
(1.00188 0.000367312 0)
(1.00037 -0.00191166 0)
(0.998532 -0.00016842 0)
(0.999103 0.000729535 0)
(0.999568 0.00176213 0)
(1.0012 0.00246014 0)
(1.00263 0.000301853 0)
(1.00103 0.000274986 0)
(1.00068 0.000459658 0)
(1.00122 -0.00116073 0)
(0.999457 -0.000368916 0)
(0.997779 0.00144728 0)
(0.998378 0.00169455 0)
(0.998872 0.00223555 0)
(0.998345 0.00397278 0)
(0.998005 0.00535057 0)
(0.998673 0.00586705 0)
(1.00014 0.000265594 0)
(0.999847 -0.000340031 0)
(1.00058 0.00103841 0)
(1.00174 0.000377158 0)
(1.00035 -0.0017298 0)
(0.998682 -0.000140592 0)
(0.999226 0.000773034 0)
(0.999689 0.00162402 0)
(1.00112 0.00232702 0)
(1.0025 0.000441601 0)
(1.00107 0.000286125 0)
(1.00059 0.000618099 0)
(1.00118 -0.000784938 0)
(0.999754 -0.000278146 0)
(0.998059 0.00151671 0)
(0.998509 0.00197332 0)
(0.999191 0.00231061 0)
(0.998829 0.00376205 0)
(0.998351 0.00521042 0)
(0.998857 0.00579811 0)
(1.00013 0.000222009 0)
(0.999878 -0.000238807 0)
(1.0006 0.000851572 0)
(1.00162 0.00036694 0)
(1.00034 -0.00154233 0)
(0.998832 -0.000126561 0)
(0.999344 0.000818604 0)
(0.999805 0.00152975 0)
(1.00106 0.00220126 0)
(1.00237 0.000572271 0)
(1.00112 0.000324956 0)
(1.00053 0.000746745 0)
(1.00112 -0.000429905 0)
(1.00003 -0.000159637 0)
(0.998372 0.00155214 0)
(0.99865 0.00221199 0)
(0.999456 0.00242999 0)
(0.999296 0.00357662 0)
(0.998737 0.00501061 0)
(0.999048 0.00571472 0)
(1.00012 0.000177344 0)
(0.999904 -0.000143761 0)
(1.00061 0.000683366 0)
(1.00151 0.000340115 0)
(1.00033 -0.00135708 0)
(0.998979 -0.000128248 0)
(0.999463 0.000853998 0)
(0.999914 0.00147918 0)
(1.00101 0.00208993 0)
(1.00225 0.000697883 0)
(1.00117 0.000382884 0)
(1.0005 0.000861735 0)
(1.00106 -9.4962e-05 0)
(1.00028 -2.07457e-05 0)
(0.998712 0.00155966 0)
(0.998812 0.00239746 0)
(0.999676 0.00257252 0)
(0.999727 0.00343592 0)
(0.999156 0.00477342 0)
(0.999264 0.00558726 0)
(1.00011 0.000133391 0)
(0.999923 -5.63239e-05 0)
(1.00062 0.000535709 0)
(1.00142 0.000298379 0)
(1.00031 -0.00117797 0)
(0.999125 -0.000134164 0)
(0.999586 0.000864885 0)
(1.00002 0.00146747 0)
(1.00097 0.00200871 0)
(1.00214 0.000817224 0)
(1.00122 0.000451188 0)
(1.00049 0.000967867 0)
(1.00101 0.000215482 0)
(1.00051 0.000136209 0)
(0.999069 0.00154538 0)
(0.999002 0.00252749 0)
(0.99986 0.00272492 0)
(1.00011 0.00335046 0)
(0.999589 0.00453711 0)
(0.999518 0.00541612 0)
(1.0001 8.82834e-05 0)
(0.999937 2.59491e-05 0)
(1.00062 0.000405832 0)
(1.00133 0.000247623 0)
(1.0003 -0.0010028 0)
(0.999266 -0.000138744 0)
(0.999714 0.000838359 0)
(1.00012 0.00147853 0)
(1.00094 0.0019639 0)
(1.00203 0.000921131 0)
(1.00127 0.000523243 0)
(1.0005 0.00105804 0)
(1.00095 0.000503564 0)
(1.0007 0.000318597 0)
(0.999436 0.00151943 0)
(0.999227 0.00259808 0)
(1.00003 0.00286783 0)
(1.00044 0.00330845 0)
(1.00002 0.00431887 0)
(0.999809 0.00521288 0)
(1.00009 4.79525e-05 0)
(0.999945 9.37447e-05 0)
(1.00062 0.00030851 0)
(1.00126 0.000178148 0)
(1.00028 -0.000810468 0)
(0.999398 -0.000133233 0)
(0.999849 0.000799577 0)
(1.00024 0.00149202 0)
(1.00092 0.0019324 0)
(1.00193 0.00100498 0)
(1.00132 0.000591498 0)
(1.00054 0.0011358 0)
(1.00091 0.000775236 0)
(1.00085 0.000525025 0)
(0.999797 0.00150444 0)
(0.999486 0.00261575 0)
(1.00018 0.00298538 0)
(1.00073 0.00329596 0)
(1.00043 0.00411961 0)
(1.00013 0.00499169 0)
(1.00008 9.59811e-06 0)
(0.999949 0.000149222 0)
(1.0006 0.000240866 0)
(1.0012 0.000100765 0)
(1.00027 -0.000604777 0)
(0.999517 -6.86962e-05 0)
(0.99999 0.000764241 0)
(1.00035 0.00147848 0)
(1.0009 0.00188888 0)
(1.00183 0.00107292 0)
(1.00137 0.000641502 0)
(1.0006 0.00118882 0)
(1.00088 0.00101448 0)
(1.00098 0.000742644 0)
(1.00014 0.00151013 0)
(0.999776 0.00259157 0)
(1.00035 0.00306488 0)
(1.00097 0.00330623 0)
(1.00082 0.0039433 0)
(1.00047 0.00476008 0)
(1.00008 -2.45533e-05 0)
(0.99995 0.000191024 0)
(1.00058 0.000195385 0)
(1.00115 3.17855e-05 0)
(1.00026 -0.000417732 0)
(0.999622 5.87831e-05 0)
(1.00012 0.00072287 0)
(1.00047 0.00140173 0)
(1.00088 0.00183345 0)
(1.00173 0.00114074 0)
(1.00142 0.000691525 0)
(1.00069 0.00121881 0)
(1.00087 0.00121853 0)
(1.00108 0.000970897 0)
(1.00046 0.00154407 0)
(1.00009 0.00254407 0)
(1.00053 0.00309767 0)
(1.00117 0.00332522 0)
(1.00116 0.00379878 0)
(1.00082 0.00452081 0)
(1.00007 -5.25513e-05 0)
(0.99995 0.000214202 0)
(1.00055 0.000183241 0)
(1.00112 -4.08151e-05 0)
(1.00027 -0.00025438 0)
(0.999711 0.00020139 0)
(1.00024 0.000685998 0)
(1.00058 0.00129575 0)
(1.00088 0.00178163 0)
(1.00164 0.00122667 0)
(1.00147 0.00076354 0)
(1.0008 0.00123673 0)
(1.00088 0.00138421 0)
(1.00116 0.00119879 0)
(1.00075 0.00161177 0)
(1.0004 0.00249576 0)
(1.00074 0.00309198 0)
(1.00135 0.00333856 0)
(1.00146 0.00369639 0)
(1.00118 0.00428985 0)
(1.00006 -7.52772e-05 0)
(0.99995 0.00022348 0)
(1.00051 0.000190798 0)
(1.00109 -0.000104137 0)
(1.0003 -0.000127322 0)
(0.999787 0.000348066 0)
(1.00034 0.000677998 0)
(1.00071 0.00119698 0)
(1.0009 0.00172514 0)
(1.00155 0.00131893 0)
(1.0015 0.000847141 0)
(1.00092 0.0012439 0)
(1.00093 0.00149913 0)
(1.00124 0.00139801 0)
(1.001 0.00170001 0)
(1.00072 0.00245497 0)
(1.00096 0.00305913 0)
(1.00152 0.00333205 0)
(1.00171 0.00362392 0)
(1.00151 0.00408625 0)
(1.00005 -8.94366e-05 0)
(0.999951 0.000214162 0)
(1.00046 0.000219425 0)
(1.00106 -0.000152692 0)
(1.00034 -4.52716e-05 0)
(0.999855 0.000497377 0)
(1.00041 0.000713633 0)
(1.00082 0.00110214 0)
(1.00094 0.00164486 0)
(1.00147 0.00140452 0)
(1.00152 0.000950594 0)
(1.00104 0.00126136 0)
(1.001 0.00157556 0)
(1.00131 0.00156374 0)
(1.00122 0.00179585 0)
(1.00101 0.00242701 0)
(1.00119 0.00301091 0)
(1.00169 0.00330461 0)
(1.00193 0.00355909 0)
(1.0018 0.00392195 0)
(1.00004 -9.74024e-05 0)
(0.999955 0.000191953 0)
(1.00041 0.000259009 0)
(1.00104 -0.000177534 0)
(1.0004 -2.94014e-06 0)
(0.999924 0.000631625 0)
(1.00047 0.000781677 0)
(1.00092 0.00102856 0)
(1.001 0.00154626 0)
(1.00142 0.00147308 0)
(1.00152 0.00107129 0)
(1.00116 0.0012891 0)
(1.00109 0.00162343 0)
(1.00138 0.00169268 0)
(1.00141 0.00188483 0)
(1.00129 0.00240958 0)
(1.00143 0.00295439 0)
(1.00187 0.00326377 0)
(1.00213 0.00349107 0)
(1.00206 0.00379012 0)
(1.00003 -9.72873e-05 0)
(0.999963 0.00015916 0)
(1.00036 0.000302201 0)
(1.00101 -0.000172586 0)
(1.00047 8.31789e-06 0)
(0.999998 0.00073866 0)
(1.0005 0.000870334 0)
(1.00101 0.000985117 0)
(1.00107 0.00143969 0)
(1.00138 0.00151225 0)
(1.00152 0.00119789 0)
(1.00126 0.00133413 0)
(1.0012 0.00165608 0)
(1.00147 0.00178799 0)
(1.00158 0.00196297 0)
(1.00155 0.00239846 0)
(1.00167 0.00289189 0)
(1.00204 0.00320989 0)
(1.00231 0.00341828 0)
(1.00228 0.00366883 0)
(1.00002 -9.16515e-05 0)
(0.999974 0.000120445 0)
(1.00032 0.000345743 0)
(1.00097 -0.000131391 0)
(1.00055 1.01562e-07 0)
(1.00008 0.000801673 0)
(1.00053 0.000970993 0)
(1.00107 0.000978949 0)
(1.00116 0.00133947 0)
(1.00137 0.00151746 0)
(1.00152 0.00131095 0)
(1.00135 0.00140532 0)
(1.00131 0.0016884 0)
(1.00156 0.00185535 0)
(1.00174 0.00202608 0)
(1.00178 0.00238905 0)
(1.0019 0.00282551 0)
(1.00222 0.00314109 0)
(1.00248 0.00334284 0)
(1.00247 0.00355005 0)
(1.00001 -8.04379e-05 0)
(0.99999 8.17732e-05 0)
(1.00027 0.000379678 0)
(1.00093 -5.54754e-05 0)
(1.00063 -1.18698e-05 0)
(1.00018 0.000812907 0)
(1.00054 0.00106522 0)
(1.00111 0.00101192 0)
(1.00123 0.0012595 0)
(1.00139 0.00149432 0)
(1.00153 0.00139739 0)
(1.00143 0.00148329 0)
(1.00141 0.00172722 0)
(1.00165 0.00190281 0)
(1.00188 0.00206726 0)
(1.00198 0.00237585 0)
(1.00212 0.00275825 0)
(1.00239 0.00306155 0)
(1.00263 0.00326421 0)
(1.00265 0.00344213 0)
(1 -6.65005e-05 0)
(1.00001 5.01102e-05 0)
(1.00024 0.000403566 0)
(1.00088 3.54508e-05 0)
(1.0007 -1.34075e-05 0)
(1.0003 0.000784618 0)
(1.00057 0.00113646 0)
(1.00112 0.00107133 0)
(1.0013 0.00120786 0)
(1.00143 0.00145762 0)
(1.00155 0.0014587 0)
(1.0015 0.00155215 0)
(1.00151 0.00177179 0)
(1.00174 0.00194714 0)
(1.00201 0.00209546 0)
(1.00217 0.00235743 0)
(1.00233 0.00269014 0)
(1.00257 0.00297262 0)
(1.00278 0.003173 0)
(1.00279 0.00334117 0)
(0.999997 -5.17095e-05 0)
(1.00003 2.83357e-05 0)
(1.00022 0.000414478 0)
(1.00083 0.000139263 0)
(1.00077 8.32496e-06 0)
(1.00043 0.000731648 0)
(1.0006 0.00117755 0)
(1.00112 0.00114445 0)
(1.00135 0.00118909 0)
(1.00148 0.00141766 0)
(1.00159 0.00148725 0)
(1.00157 0.00160757 0)
(1.00161 0.00180895 0)
(1.00183 0.00198813 0)
(1.00213 0.00212229 0)
(1.00233 0.00233661 0)
(1.00252 0.0026228 0)
(1.00273 0.00287891 0)
(1.00293 0.00306831 0)
(1.00292 0.00323761 0)
(0.99999 -3.75923e-05 0)
(1.00005 1.89219e-05 0)
(1.00021 0.00040824 0)
(1.00077 0.000246175 0)
(1.00082 6.26679e-05 0)
(1.00056 0.000671467 0)
(1.00066 0.00118056 0)
(1.00112 0.00121749 0)
(1.00139 0.0012059 0)
(1.00153 0.00138999 0)
(1.00164 0.0014926 0)
(1.00164 0.00164602 0)
(1.00171 0.00183744 0)
(1.00191 0.00201402 0)
(1.00223 0.00214429 0)
(1.00248 0.00231557 0)
(1.00269 0.00255528 0)
(1.00289 0.0027854 0)
(1.00308 0.0029547 0)
(1.00305 0.00312254 0)
(0.999984 -2.57651e-05 0)
(1.00007 2.15616e-05 0)
(1.00021 0.000392065 0)
(1.00073 0.00033831 0)
(1.00085 0.00014514 0)
(1.00068 0.000624479 0)
(1.00073 0.00114825 0)
(1.00112 0.00127493 0)
(1.00141 0.00124618 0)
(1.00157 0.00137958 0)
(1.0017 0.00149089 0)
(1.00172 0.00165954 0)
(1.0018 0.00185817 0)
(1.00199 0.00202914 0)
(1.00232 0.00215568 0)
(1.0026 0.00229789 0)
(1.00285 0.00248921 0)
(1.00304 0.00269598 0)
(1.00322 0.00284108 0)
(1.00318 0.00299375 0)
(0.999979 -1.65501e-05 0)
(1.00009 3.43265e-05 0)
(1.00022 0.000373031 0)
(1.00069 0.000414408 0)
(1.00087 0.000242573 0)
(1.0008 0.000597731 0)
(1.00082 0.00109881 0)
(1.00113 0.00130824 0)
(1.00142 0.00129503 0)
(1.00161 0.00138987 0)
(1.00175 0.0014905 0)
(1.00181 0.00165526 0)
(1.00189 0.00185695 0)
(1.00208 0.00203641 0)
(1.0024 0.00215482 0)
(1.0027 0.00227867 0)
(1.00298 0.00242631 0)
(1.00317 0.00260718 0)
(1.00335 0.00273556 0)
(1.00331 0.00285762 0)
(0.999974 -1.05385e-05 0)
(1.0001 5.58617e-05 0)
(1.00024 0.000354361 0)
(1.00066 0.000470393 0)
(1.00087 0.000346347 0)
(1.00089 0.000597266 0)
(1.00092 0.0010459 0)
(1.00116 0.00131575 0)
(1.00143 0.00134152 0)
(1.00163 0.0014191 0)
(1.00181 0.00149643 0)
(1.00189 0.00165152 0)
(1.00199 0.00183564 0)
(1.00216 0.00202522 0)
(1.00247 0.00214506 0)
(1.00278 0.00225242 0)
(1.0031 0.00236722 0)
(1.00328 0.00251521 0)
(1.00345 0.00263669 0)
(1.00343 0.00272441 0)
(0.999971 -6.34831e-06 0)
(1.00011 8.20991e-05 0)
(1.00026 0.000341232 0)
(1.00064 0.000505991 0)
(1.00087 0.000445277 0)
(1.00097 0.000627259 0)
(1.00101 0.00100018 0)
(1.0012 0.00130098 0)
(1.00144 0.00137575 0)
(1.00165 0.00145408 0)
(1.00185 0.00151038 0)
(1.00196 0.00164955 0)
(1.00209 0.00181201 0)
(1.00225 0.00199169 0)
(1.00255 0.00212103 0)
(1.00286 0.00221936 0)
(1.00319 0.0023091 0)
(1.00339 0.00242264 0)
(1.00354 0.00253652 0)
(1.00353 0.00260086 0)
(0.999968 -4.05509e-06 0)
(1.00012 0.000109861 0)