/*--------------------------------*- C++ -*----------------------------------*\
| =========                 |                                                 |
| \\      /  F ield         | OpenFOAM: The Open Source CFD Toolbox           |
|  \\    /   O peration     | Version:  v1906                                 |
|   \\  /    A nd           | Web:      www.OpenFOAM.com                      |
|    \\/     M anipulation  |                                                 |
\*---------------------------------------------------------------------------*/
FoamFile
{
    version     2.0;
    format      ascii;
    class       volScalarField;
    location    "9.5";
    object      p;
}
// * * * * * * * * * * * * * * * * * * * * * * * * * * * * * * * * * * * * * //

dimensions      [0 2 -2 0 0 0 0];


internalField   nonuniform List<scalar> 
9600
(
-8.36678e-11
0.00195202
-0.00446994
0.00212163
0.00847507
0.00451814
0.00235632
0.00862418
0.00660997
0.00554484
0.00607712
0.00595262
0.00743165
0.00740276
0.00666162
0.00722022
0.00844786
0.00964072
0.00983692
0.0129956
-6.35783e-07
0.00191569
-0.00444992
0.00214711
0.00841533
0.0045041
0.00236946
0.00861936
0.0066118
0.00554763
0.0060733
0.00596328
0.00743182
0.00739195
0.00666729
0.00721504
0.00846967
0.00959734
0.00989547
0.012763
-3.67067e-06
0.00187652
-0.00443015
0.00217167
0.00834981
0.00449072
0.00237953
0.00860224
0.00661868
0.00554692
0.0060704
0.00598404
0.00742493
0.0073832
0.0066748
0.00721374
0.0084962
0.00953495
0.00993041
0.0124566
-7.85714e-06
0.00183224
-0.0044088
0.00220783
0.00827931
0.0044803
0.00238934
0.00857585
0.00663014
0.00554034
0.00606716
0.00601178
0.00741339
0.00737983
0.00668092
0.00721659
0.00851789
0.0094787
0.00993705
0.0121562
-1.28956e-05
0.00178399
-0.0043787
0.00225263
0.00819382
0.00448373
0.00240791
0.00853922
0.00664461
0.00552586
0.0060613
0.0060462
0.00739893
0.00737787
0.00668799
0.00721938
0.00853739
0.00942313
0.00991747
0.0118662
-1.80902e-05
0.001737
-0.00433231
0.00229151
0.00809149
0.00450587
0.00244225
0.00849089
0.00666095
0.00550229
0.00605367
0.00608568
0.0073836
0.00737573
0.00669729
0.00722095
0.00855642
0.00936719
0.00987507
0.011589
-2.24098e-05
0.00169675
-0.00426448
0.00231198
0.00797669
0.00454633
0.00249485
0.00843261
0.006679
0.00547135
0.00604596
0.00612883
0.00736983
0.00737262
0.00670819
0.00722114
0.00857303
0.00930079
0.00981383
0.0113258
-2.50013e-05
0.00166712
-0.0041732
0.00231023
0.00785731
0.00459797
0.00256371
0.00836899
0.00669919
0.00543633
0.00603909
0.00617465
0.0073585
0.00736742
0.00671951
0.00721982
0.00858519
0.00924894
0.00973664
0.0110746
-2.54852e-05
0.0016499
-0.0040593
0.00229065
0.00774125
0.00465228
0.00264421
0.00830376
0.00672196
0.00540042
0.0060331
0.00622168
0.00734921
0.00735938
0.00673018
0.0072169
0.00859138
0.00920095
0.00964458
0.0108316
-2.39402e-05
0.00164527
-0.00392524
0.00226257
0.0076334
0.00470249
0.00273106
0.00823863
0.0067475
0.00536601
0.00602755
0.00626806
0.00734125
0.00734831
0.00673923
0.00721283
0.00859056
0.00915573
0.00953803
0.0105944
-2.06448e-05
0.00165247
-0.00377411
0.00223455
0.00753457
0.0047452
0.00281956
0.0081741
0.00677567
0.00533455
0.00602204
0.00631216
0.00733397
0.00733436
0.00674581
0.0072082
0.00858204
0.00911126
0.00941895
0.0103611
-1.57819e-05
0.00167009
-0.00360932
0.00221138
0.00744259
0.00477966
0.00290622
0.00810992
0.00680591
0.00530666
0.0060164
0.00635305
0.00732681
0.00731797
0.00674934
0.0072034
0.00856513
0.00906602
0.00929046
0.0101291
-9.26846e-06
0.00169613
-0.00343451
0.00219417
0.00735427
0.00480638
0.00298895
0.00804592
0.00683747
0.00528207
0.00601048
0.0063906
0.00731937
0.00729999
0.00674938
0.00719857
0.00854013
0.00901827
0.00915494
0.00989524
-8.30205e-07
0.00172826
-0.00325301
0.00218205
0.00726681
0.00482622
0.00306711
0.00798211
0.00686954
0.00525976
0.00600403
0.00642546
0.0073115
0.00728138
0.00674552
0.00719366
0.00850816
0.00896566
0.00901397
0.00965809
9.84894e-06
0.00176426
-0.00306732
0.00217378
0.0071785
0.00484001
0.00314106
0.00791863
0.00690146
0.0052385
0.00599676
0.00645874
0.00730306
0.00726287
0.00673752
0.00718822
0.00847059
0.00890606
0.00886897
0.00941844
2.30584e-05
0.00180232
-0.00287897
0.00216844
0.00708867
0.00484856
0.00321161
0.0078557
0.00693281
0.00521738
0.00598838
0.00649151
0.00729386
0.00724496
0.00672554
0.00718121
0.00842872
0.00883848
0.0087212
0.0091779
3.90304e-05
0.0018411
-0.00268872
0.00216545
0.00699732
0.00485279
0.00327966
0.00779349
0.00696339
0.00519602
0.00597862
0.00652464
0.00728367
0.00722777
0.00671015
0.00717129
0.00838345
0.00876257
0.0085713
0.00893811
5.79429e-05
0.00187969
-0.00249672
0.00216456
0.00690483
0.00485356
0.0033459
0.00773211
0.00699314
0.00517445
0.00596724
0.00655873
0.00727236
0.00721096
0.00669221
0.00715733
0.00833509
0.00867866
0.00841915
0.0087008
7.99575e-05
0.00191747
-0.00230287
0.00216569
0.00681154
0.00485151
0.00341079
0.0076716
0.00702204
0.00515302
0.00595398
0.00659407
0.00725993
0.00719386
0.00667249
0.00713857
0.00828364
0.00858759
0.00826426
0.00846776
0.000105229
0.00195404
-0.00210706
0.00216894
0.00671773
0.0048472
0.00347452
0.00761198
0.00705009
0.00513221
0.00593846
0.0066307
0.00724661
0.00717571
0.00665143
0.00711438
0.00822904
0.00849049
0.00810634
0.0082406
0.000133911
0.00198914
-0.00190928
0.00217441
0.0066237
0.00484107
0.00353711
0.00755331
0.00707733
0.00511244
0.00592038
0.00666858
0.00723266
0.00715584
0.00662926
0.00708433
0.0081713
0.00838858
0.00794495
0.00802037
0.000166162
0.00202261
-0.00170961
0.00218233
0.00652961
0.00483345
0.00359843
0.00749564
0.00710382
0.0050939
0.00589948
0.00670774
0.00721833
0.00713366
0.00660624
0.00704795
0.00811031
0.00828372
0.00777924
0.00780671
0.000202143
0.0020544
-0.00150828
0.00219287
0.00643558
0.00482467
0.00365831
0.00743901
0.00712968
0.00507666
0.00587546
0.00674826
0.00720395
0.00710867
0.00658265
0.00700454
0.00804548
0.0081787
0.00760872
0.00759693
0.000241984
0.00208459
-0.00130565
0.0022062
0.00634167
0.00481499
0.0037166
0.00738336
0.00715507
0.00506072
0.00584781
0.00679018
0.00718998
0.00708031
0.00655891
0.00695373
0.00797545
0.00807642
0.00743455
0.00738578
0.000285784
0.00211335
-0.00110213
0.00222246
0.00624792
0.00480466
0.00377316
0.00732852
0.00718028
0.00504623
0.00581582
0.00683349
0.00717701
0.0070476
0.00653546
0.00689622
0.00789826
0.00797882
0.00726057
0.00716682
0.000333648
0.00214098
-0.000898295
0.00224179
0.00615445
0.00479392
0.00382778
0.00727413
0.00720566
0.00503351
0.00577866
0.00687815
0.00716588
0.00700898
0.00651249
0.00683371
0.00781175
0.00788619
0.00709347
0.00693537
0.00038561
0.00216786
-0.000694701
0.0022643
0.0060614
0.0047831
0.00388045
0.00721957
0.00723148
0.0050233
0.00573531
0.00692385
0.00715803
0.00696286
0.00648953
0.00676865
0.0077141
0.00779656
0.00694073
0.00669268
0.000441614
0.00219453
-0.000491865
0.00229002
0.00596892
0.00477239
0.00393139
0.00716411
0.00725763
0.0050167
0.00568463
0.00696961
0.00715558
0.00690828
0.00646515
0.00670381
0.00760434
0.00770492
0.00680837
0.00644884
0.000501549
0.00222165
-0.000290289
0.00231895
0.00587736
0.00476171
0.00398102
0.00710724
0.00728362
0.00501496
0.00562573
0.00701378
0.00716088
0.00684503
0.00643687
0.00664245
0.00748379
0.00760429
0.00669767
0.00622036
0.000565262
0.0022499
-9.0435e-05
0.00235105
0.00578708
0.00475095
0.00402986
0.00704879
0.0073088
0.00501916
0.00555818
0.00705397
0.00717603
0.00677406
0.00640125
0.00658716
0.00735729
0.0074895
0.00660168
0.00602107
0.000632556
0.00227999
0.000107336
0.00238618
0.00569845
0.00474019
0.00407846
0.00698872
0.00733226
0.00503042
0.00548232
0.00708689
0.00720207
0.0066978
0.00635481
0.00653812
0.00723089
0.00736035
0.00650907
0.00585618
0.000703163
0.00231261
0.000302758
0.00242411
0.00561201
0.00472925
0.00412704
0.00692705
0.0073529
0.00504985
0.00539961
0.00710898
0.00723876
0.0066193
0.00629496
0.00649384
0.00710881
0.00722053
0.00641232
0.0057197
0.000776839
0.00234841
0.000495619
0.00246468
0.0055284
0.00471759
0.00417542
0.00686482
0.00736947
0.00507783
0.00531188
0.00711739
0.00728546
0.00654149
0.00621958
0.00645341
0.00699441
0.00707284
0.00630969
0.00560246
0.000853362
0.00238798
0.000685918
0.00250755
0.00544827
0.00470513
0.00422321
0.00680326
0.00738093
0.00511377
0.00522083
0.0071098
0.00734134
0.00646747
0.00612596
0.00641566
0.0068932
0.00691794
0.00619989
0.00549977
0.000932486
0.00243169
0.000873994
0.00255214
0.00537236
0.00469238
0.00426945
0.00674341
0.00738706
0.00515688
0.00512803
0.00708408
0.00740488
0.00640138
0.00601149
0.00637625
0.00681276
0.00675863
0.00607729
0.00540939
0.00101394
0.00247968
0.00106059
0.00259789
0.00530102
0.00467983
0.00431311
0.00668617
0.00738815
0.00520622
0.00503505
0.00703833
0.00747335
0.00634854
0.00587561
0.00632642
0.00675883
0.00660519
0.00593459
0.00532431
0.00109761
0.0025318
0.00124672
0.00264421
0.00523397
0.0046685
0.00435307
0.0066318
0.0073849
0.00526079
0.00494357
0.00697137
0.00754272
0.00631437
0.00572127
0.00625564
0.00673058
0.00647416
0.00576999
0.00523039
0.00118352
0.00258755
0.00143364
0.0026908
0.00517058
0.00465982
0.00438828
0.00657974
0.00737854
0.00531951
0.00485481
0.00688278
0.00760855
0.00630348
0.00555482
0.00615467
0.00671916
0.00638001
0.00559388
0.00511328
0.00127173
0.00264614
0.00162281
0.00273787
0.0051095
0.00465523
0.0044183
0.00652959
0.00737047
0.00538219
0.00476974
0.00677205
0.00766581
0.00631943
0.00538521
0.00601719
0.00671071
0.00633032
0.00542577
0.00496567
0.00136252
0.00270664
0.00181545
0.00278624
0.00504863
0.00465652
0.00444381
0.00647881
0.00736122
0.00545
0.00468977
0.00663827
0.00770811
0.00636403
0.00522384
0.00584053
0.00668924
0.006325
0.00528586
0.00479129
0.00145639
0.00276785
0.00201198
0.00283732
0.00498578
0.00466487
0.00446609
0.00642409
0.00734954
0.00552377
0.00461768
0.00648182
0.00772788
0.00643596
0.00508405
0.00562692
0.0066376
0.00635732
0.00519268
0.00460298
0.00155406
0.00282845
0.00221182
0.00289367
0.00491912
0.00467973
0.00448859
0.00636401
0.00733341
0.00560389
0.00455769
0.00630524
0.00771672
0.00652895
0.00497958
0.005386
0.00653939
0.0064121
0.0051625
0.00442217
0.00165636
0.00288729
0.00241363
0.0029586
0.00484745
0.00469947
0.00451494
0.00629827
0.00731046
0.00568967
0.0045144
0.00611358
0.0076666
0.00663191
0.00492166
0.00513513
0.00638438
0.0064655
0.00520236
0.00427849
0.00176408
0.00294351
0.00261523
0.00303594
0.00477112
0.00472073
0.00454833
0.00622771
0.00727683
0.00577822
0.00449264
0.00591448
0.00757249
0.00673168
0.00491441
0.00489419
0.00617448
0.00649116
0.00530121
0.0042013
0.0018779
0.00299684
0.00281344
0.00312928
0.00469203
0.0047384
0.00459174
0.00615542
0.007228
0.00586491
0.00449541
0.00571592
0.00743514
0.0068157
0.00495363
0.00468058
0.00592254
0.00647062
0.00543357
0.00420718
0.00199833
0.00304736
0.00300468
0.00324122
0.00461295
0.00474683
0.00464559
0.00608485
0.00716168
0.00594443
0.00452257
0.00552602
0.00726083
0.00687383
0.00503015
0.00450686
0.00564462
0.00639787
0.00557249
0.00429019
0.00212586
0.00309571
0.00318508
0.00337257
0.00453835
0.00474098
0.00470643
0.00602308
0.00708017
0.00600955
0.00457076
0.00535399
0.00705871
0.00689838
0.00513186
0.00438166
0.00535723
0.00627325
0.00569741
0.00442932
0.00226067
0.00314357
0.00335103
0.00352136
0.00447389
0.00471865
0.00476976
0.00597652
0.00698802
0.00605305
0.00463306
0.00520806
0.00684137
0.00688667
0.00524484
0.00430879
0.0050789
0.00609838
0.00579249
0.00460262
0.0024027
0.00319283
0.00349986
0.00368389
0.00443342
0.00468042
0.00482733
0.00594841
0.00689223
0.00607343
0.00470051
0.00508896
0.00662193
0.00684313
0.00535734
0.00428494
0.00482711
0.00587985
0.00584269
0.00479196
0.00255155
0.00324598
0.0036297
0.00385459
0.00442059
0.00462896
0.00486788
0.00593561
0.00680465
0.00607594
0.0047632
0.00499202
0.00640893
0.00677538
0.00546353
0.00430027
0.00461172
0.00563171
0.00583689
0.00498047
0.00270633
0.00330599
0.00373986
0.00402637
0.00443849
0.004569
0.00488269
0.00593371
0.00673519
0.00606691
0.00481611
0.00491334
0.00620518
0.00668913
0.00556157
0.00434638
0.0044361
0.00537131
0.00577287
0.00515034
0.00286599
0.00337531
0.00383093
0.00419186
0.00448865
0.00451029
0.00486802
0.00593245
0.00668739
0.00605671
0.00485969
0.00484732
0.00601191
0.00658626
0.00564755
0.00441898
0.0043036
0.00511504
0.00565682
0.00528399
0.00302889
0.003456
0.00390616
0.00434373
0.00456858
0.00446518
0.00482499
0.00591468
0.00665674
0.00605917
0.00489947
0.00478858
0.00582865
0.00646874
0.00571657
0.00451242
0.00421744
0.004877
0.00549926
0.00536661
0.00319362
0.00354852
0.00396993
0.00447645
0.0046724
0.0044467
0.00475852
0.00586645
0.00663614
0.00608345
0.0049451
0.00473736
0.00565199
0.00633864
0.00576728
0.0046189
0.00417658
0.00467023
0.00531559
0.00539094
0.00335935
0.00365473
0.00402721
0.00458492
0.00479079
0.00444102
0.00467688
0.00578121
0.00661338
0.00612984
0.00500798
0.00469962
0.00548085
0.00619516
0.00579932
0.00473222
0.00417503
0.00450295
0.00512537
0.00536097
0.00352264
0.0037719
0.00408771
0.00467083
0.00491238
0.00448902
0.00459534
0.00566073
0.00657168
0.00619402
0.00509533
0.00468201
0.00532142
0.00603764
0.00580865
0.0048483
0.004207
0.00437598
0.00494499
0.00529112
0.00368467
0.00389549
0.00415155
0.00473199
0.00503063
0.00458235
0.004537
0.00551098
0.00649659
0.00626709
0.00520826
0.00469025
0.00518055
0.00587166
0.00579001
0.00496008
0.0042697
0.00428798
0.00478244
0.00519905
0.00384804
0.00404508
0.00421951
0.00475331
0.00507664
0.0046961
0.00452138
0.0053497
0.00638151
0.00632911
0.00534402
0.00472904
0.0050627
0.00570542
0.00574448
0.00505797
0.00435829
0.00423984
0.00464023
0.00509677
0.00400463
0.00418521
0.00430168
0.00476965
0.00516343
0.00482998
0.0045482
0.0052029
0.00623311
0.00635982
0.00549361
0.00480195
0.00497352
0.00554464
0.00567816
0.00513551
0.00446304
0.00423359
0.00452344
0.00499037
0.00415632
0.00433242
0.0043967
0.00478107
0.00520924
0.00495769
0.00461309
0.00508603
0.00606178
0.00634762
0.00563878
0.00490692
0.00492044
0.00539451
0.00559432
0.00519111
0.00457317
0.00426768
0.00444156
0.00488567
0.00430325
0.0044748
0.00450182
0.00479788
0.00523566
0.00507104
0.00470661
0.0050083
0.00588445
0.0062944
0.00576387
0.00503633
0.004909
0.00526468
0.00549564
0.00522367
0.00468059
0.00433354
0.0044018
0.00479234
0.00444246
0.00461181
0.00461904
0.00482592
0.00523951
0.00516357
0.00481702
0.00497217
0.00572162
0.00620762
0.00585824
0.00517761
0.00493567
0.00516659
0.00539162
0.00523115
0.00477843
0.00441847
0.00440318
0.00472285
0.00457563
0.00473814
0.00474358
0.00486597
0.0052399
0.00523515
0.00493199
0.00497338
0.00558635
0.00609874
0.00591651
0.00531892
0.00499403
0.00510487
0.00529716
0.00521659
0.0048607
0.00451301
0.00443933
0.00468962
0.00470934
0.00486766
0.00485801
0.00490971
0.00519028
0.00528793
0.00504366
0.00500677
0.0054856
0.005984
0.00594073
0.0054518
0.00508209
0.00508149
0.00522306
0.00519008
0.0049239
0.00461004
0.00449916
0.00469217
0.00483682
0.00498105
0.00497253
0.00497054
0.00519919
0.00532517
0.00514633
0.00506428
0.00542144
0.00587683
0.00593686
0.00556675
0.00519271
0.00509614
0.00517223
0.00516112
0.00496919
0.00470257
0.00457214
0.00471974
0.00495967
0.00509416
0.0050817
0.00503795
0.00520791
0.00535033
0.00523548
0.00513676
0.00539229
0.00578822
0.00591557
0.00565758
0.0053105
0.00514566
0.00515205
0.00514054
0.00500436
0.00479006
0.00465779
0.00476889
0.00507518
0.00519467
0.00518677
0.00511563
0.00523566
0.00536766
0.00530972
0.0052158
0.00539354
0.00572546
0.00589044
0.00572873
0.00542535
0.00522338
0.00516957
0.00513839
0.0050354
0.00487068
0.00475289
0.0048379
0.00518814
0.00529312
0.00527764
0.00519117
0.00525879
0.00538169
0.00536966
0.00529552
0.00541901
0.00568842
0.00586946
0.00578804
0.00553819
0.00532186
0.00522424
0.00516567
0.00507232
0.00494526
0.00485127
0.00492295
0.00529306
0.00538453
0.00536125
0.00526582
0.00529356
0.00539445
0.00541597
0.00537183
0.00546341
0.00567768
0.00585904
0.00584118
0.00565049
0.0054373
0.00531148
0.00523111
0.00513234
0.00502363
0.00495221
0.00502171
0.0053838
0.00546308
0.0054454
0.00534378
0.00533774
0.00540925
0.0054523
0.00544022
0.0055187
0.00569311
0.00586678
0.00589318
0.00576424
0.00557252
0.0054294
0.00533595
0.00523076
0.00512417
0.00506556
0.00513563
0.00547439
0.00554313
0.00550545
0.00540121
0.00537959
0.00542836
0.00548304
0.00550029
0.00557613
0.00572739
0.00589672
0.00595297
0.00588174
0.00572947
0.005581
0.00547846
0.0053739
0.00526613
0.00521018
0.00527541
0.00554852
0.00561069
0.00556561
0.00545623
0.00542335
0.00544917
0.0055081
0.00555323
0.00563493
0.00577253
0.00594479
0.00602778
0.00600543
0.00590601
0.00577219
0.00566378
0.00556517
0.00546294
0.00540926
0.00546961
0.00560785
0.00566416
0.00561878
0.0055193
0.00546433
0.00546956
0.00552429
0.00558987
0.00569136
0.00582675
0.00600716
0.00612449
0.00614876
0.00610672
0.00600602
0.00589034
0.0057895
0.00570191
0.005658
0.00572542
0.0056561
0.00573197
0.00568056
0.00556233
0.00550886
0.00549863
0.00554167
0.00560356
0.00572331
0.00589227
0.00610682
0.00628651
0.00638625
0.006424
0.00640772
0.00633597
0.00623396
0.00608747
0.00594203
0.00587918
0.00568245
0.00569223
0.00562313
0.00556041
0.00553637
0.00554808
0.00558188
0.00559766
0.00562034
0.00571395
0.00596028
0.00626251
0.00649756
0.00662696
0.00671724
0.00682785
0.0070306
0.00732923
0.00765211
0.00790628
0.00575055
0.00584458
0.00574479
0.00558657
0.00551238
0.00549609
0.00560652
0.00576578
0.00594659
0.00612051
0.00629994
0.00645567
0.006608
0.00675671
0.00692105
0.00710015
0.00727684
0.00745629
0.00760817
0.0076784
0.00557842
0.00558871
0.005649
0.00570999
0.00576093
0.00579254
0.00583162
0.00588281
0.00597041
0.00607901
0.00622612
0.0063658
0.0065194
0.00669112
0.00688935
0.00714287
0.00745197
0.00779942
0.00813029
0.00835611
0.00578601
0.00593724
0.00591202
0.00581141
0.00579794
0.00581687
0.00587263
0.00593281
0.00604782
0.00621747
0.0064203
0.00661474
0.00678331
0.00692573
0.00700301
0.00698688
0.0068748
0.00667114
0.00642392
0.00620245
0.00559072
0.00564451
0.00575353
0.00583817
0.0059134
0.00595152
0.00599173
0.00601895
0.00610674
0.00623221
0.00637659
0.00653649
0.00670057
0.00688935
0.00713055
0.00741606
0.00774585
0.00808061
0.00836743
0.00851504
0.00570034
0.00589647
0.00601152
0.00603772
0.00607401
0.00608622
0.00610691
0.00610083
0.00614822
0.00626872
0.00642457
0.00661567
0.00681523
0.00701022
0.00722103
0.00742425
0.00761312
0.007768
0.00786271
0.00783835
0.0161237
0.0113118
0.00442766
-0.000628914
-0.00168026
-0.000407459
0.00114892
0.00232994
0.00306266
0.00350603
0.00390737
0.0043346
0.00472087
0.00505167
0.0053293
0.00554781
0.0057476
0.00604998
0.00652512
0.00703755
0.00742045
0.00769885
0.00798405
0.00833342
0.00872604
0.00909508
0.00941152
0.00972673
0.0100609
0.010377
0.0107004
0.0110975
0.0115369
0.011973
0.012403
0.0128307
0.0132472
0.0136499
0.014038
0.0144072
0.0147791
0.0151561
0.0155024
0.0158211
0.0161755
0.0165857
0.0170099
0.0174105
0.0178296
0.0183099
0.0187988
0.0192724
0.0197895
0.0203671
0.0208946
0.0213043
0.0216441
0.0220502
0.0225919
0.023224
0.0238489
0.0244487
0.025017
0.0255553
0.0261237
0.0267022
0.0272774
0.0278856
0.0285314
0.0291538
0.029816
0.0304956
0.0311761
0.0318581
0.032577
0.033306
0.0340557
0.0348224
0.0356099
0.0364166
0.0372398
0.0381064
0.0389335
0.0397913
0.0406634
0.0415944
0.0425275
0.0434485
0.0443813
0.0453088
0.0462851
0.0472964
0.0482906
0.0493344
0.0503521
0.0514076
0.052431
0.0534402
0.0543691
0.0551172
0.0155289
0.011179
0.00451631
-0.000479158
-0.00159152
-0.000364565
0.00117634
0.00234897
0.00307611
0.00351594
0.00391526
0.00434144
0.004727
0.00505726
0.0053344
0.00555229
0.00575129
0.00605291
0.00652771
0.00704014
0.0074229
0.00770095
0.00798581
0.00833493
0.00872745
0.00909646
0.00941279
0.00972788
0.010062
0.0103781
0.0107014
0.0110984
0.0115379
0.0119739
0.0124039
0.0128315
0.0132481
0.0136507
0.0140388
0.014408
0.0147798
0.0151569
0.0155031
0.0158218
0.0161762
0.0165863
0.0170105
0.0174111
0.0178301
0.0183104
0.0187993
0.0192729
0.0197899
0.0203675
0.020895
0.0213048
0.0216445
0.0220505
0.0225922
0.0232243
0.0238492
0.0244489
0.0250173
0.0255556
0.0261239
0.0267024
0.0272776
0.0278858
0.0285316
0.029154
0.0298162
0.0304957
0.0311763
0.0318583
0.0325772
0.0333062
0.0340559
0.0348226
0.0356101
0.0364168
0.03724
0.0381065
0.0389336
0.0397914
0.0406636
0.0415945
0.0425276
0.0434486
0.0443814
0.0453089
0.0462852
0.0472965
0.0482907
0.0493345
0.0503521
0.0514077
0.0524311
0.0534403
0.0543692
0.0551173
0.0149187
0.0110115
0.00467991
-0.000205737
-0.00143918
-0.000311461
0.00120256
0.00237073
0.00309417
0.0035299
0.00392588
0.00434963
0.00473347
0.00506268
0.0053393
0.00555683
0.00575528
0.0060562
0.00653056
0.00704281
0.00742533
0.00770306
0.00798761
0.00833648
0.00872886
0.00909777
0.00941396
0.00972893
0.010063
0.010379
0.0107021
0.0110991
0.0115387
0.0119748
0.0124047
0.0128323
0.0132488
0.0136515
0.0140396
0.0144087
0.0147805
0.0151575
0.0155038
0.0158224
0.0161767
0.0165869
0.017011
0.0174116
0.0178305
0.0183109
0.0187998
0.0192733
0.0197902
0.0203679
0.0208955
0.0213052
0.0216448
0.0220507
0.0225924
0.0232245
0.0238494
0.0244492
0.0250175
0.0255558
0.0261242
0.0267026
0.0272778
0.027886
0.0285318
0.0291541
0.0298163
0.0304959
0.0311765
0.0318584
0.0325773
0.0333063
0.034056
0.0348227
0.0356102
0.0364169
0.0372401
0.0381066
0.0389337
0.0397915
0.0406637
0.0415946
0.0425277
0.0434487
0.0443815
0.045309
0.0462853
0.0472966
0.0482907
0.0493346
0.0503522
0.0514078
0.0524312
0.0534404
0.0543693
0.0551173
0.0143352
0.0108464
0.00489702
0.000147668
-0.00122709
-0.000236609
0.00124009
0.00240319
0.00312125
0.00355085
0.00394194
0.00436179
0.00474252
0.00506957
0.00534512
0.00556261
0.00576124
0.00606162
0.00653483
0.00704613
0.00742828
0.00770599
0.00799038
0.00833882
0.00873078
0.00909944
0.00941542
0.00973022
0.0100642
0.01038
0.0107028
0.0110998
0.0115395
0.0119756
0.0124055
0.0128331
0.0132496
0.0136522
0.0140403
0.0144094
0.0147812
0.0151582
0.0155044
0.015823
0.0161772
0.0165874
0.0170115
0.0174121
0.017831
0.0183113
0.0188002
0.0192737
0.0197906
0.0203683
0.020896
0.0213057
0.0216451
0.0220509
0.0225925
0.0232248
0.0238498
0.0244495
0.0250178
0.025556
0.0261244
0.0267028
0.027278
0.0278861
0.028532
0.0291543
0.0298165
0.0304961
0.0311766
0.0318586
0.0325774
0.0333065
0.0340561
0.0348228
0.0356103
0.036417
0.0372402
0.0381068
0.0389339
0.0397916
0.0406638
0.0415947
0.0425278
0.0434488
0.0443816
0.0453091
0.0462854
0.0472967
0.0482908
0.0493346
0.0503523
0.0514078
0.0524313
0.0534405
0.0543695
0.0551174
0.0137717
0.0106799
0.00513077
0.000527099
-0.000988752
-0.000149668
0.00128397
0.00244325
0.00315636
0.00357913
0.00396434
0.00437909
0.00475557
0.00507925
0.00535281
0.00557045
0.0057703
0.00607046
0.00654137
0.00705035
0.00743191
0.00771022
0.00799485
0.00834262
0.00873371
0.00910191
0.00941769
0.00973223
0.0100658
0.0103812
0.0107037
0.0111005
0.0115402
0.0119764
0.0124064
0.0128339
0.0132503
0.0136529
0.0140412
0.0144103
0.0147819
0.0151589
0.0155051
0.0158237
0.0161779
0.016588
0.0170121
0.0174126
0.0178315
0.0183118
0.0188007
0.0192741
0.019791
0.0203688
0.0208966
0.0213062
0.0216454
0.0220511
0.0225927
0.0232252
0.0238501
0.0244498
0.0250181
0.0255563
0.0261246
0.0267031
0.0272782
0.0278863
0.0285322
0.0291545
0.0298167
0.0304962
0.0311768
0.0318587
0.0325776
0.0333066
0.0340563
0.034823
0.0356105
0.0364171
0.0372403
0.0381069
0.038934
0.0397918
0.0406639
0.0415948
0.042528
0.043449
0.0443817
0.0453092
0.0462855
0.0472968
0.0482909
0.0493347
0.0503524
0.0514079
0.0524314
0.0534406
0.0543698
0.0551175
0.0132293
0.0104996
0.00535533
0.000910418
-0.000736358
-5.58471e-05
0.00132917
0.00248599
0.0031957
0.00361174
0.00399076
0.00440007
0.00477197
0.0050918
0.00536285
0.00558081
0.00578283
0.0060831
0.00655047
0.00705551
0.00743613
0.0077158
0.00800124
0.00834814
0.00873783
0.0091054
0.00942114
0.00973543
0.0100684
0.0103831
0.0107049
0.0111013
0.0115408
0.0119771
0.0124072
0.0128346
0.0132508
0.0136535
0.014042
0.0144114
0.0147828
0.0151596
0.0155058
0.0158245
0.0161787
0.0165886
0.0170127
0.0174133
0.0178322
0.0183124
0.0188013
0.0192746
0.0197915
0.0203694
0.0208973
0.0213068
0.0216458
0.0220512
0.022593
0.0232256
0.0238506
0.0244502
0.0250185
0.0255567
0.0261249
0.0267034
0.0272785
0.0278865
0.0285325
0.0291547
0.0298169
0.0304964
0.031177
0.0318589
0.0325778
0.0333068
0.0340564
0.0348231
0.0356106
0.0364173
0.0372405
0.0381071
0.0389341
0.0397919
0.040664
0.0415949
0.0425281
0.0434491
0.0443818
0.0453093
0.0462856
0.0472969
0.048291
0.0493348
0.0503525
0.051408
0.0524316
0.0534408
0.0543701
0.0551177
0.0127097
0.0102995
0.00556163
0.00129399
-0.000469488
4.59364e-05
0.00137497
0.00252978
0.00323782
0.00364711
0.00401935
0.00442291
0.00479027
0.00510633
0.0053749
0.0055935
0.00579837
0.00609891
0.0065617
0.00706148
0.00744083
0.00772251
0.00800934
0.00835521
0.00874297
0.00910978
0.00942579
0.00974002
0.0100723
0.010386
0.010707
0.0111024
0.0115415
0.0119779
0.012408
0.0128351
0.0132509
0.0136537
0.0140429
0.0144126
0.0147839
0.0151603
0.0155066
0.0158256
0.0161798
0.0165894
0.0170133
0.017414
0.0178329
0.018313
0.0188018
0.0192752
0.0197922
0.0203701
0.020898
0.0213076
0.0216463
0.0220515
0.0225932
0.023226
0.0238511
0.0244507
0.025019
0.0255571
0.0261252
0.0267037
0.0272788
0.0278868
0.0285327
0.0291549
0.0298171
0.0304967
0.0311772
0.0318591
0.0325779
0.033307
0.0340566
0.0348233
0.0356108
0.0364174
0.0372406
0.0381073
0.0389343
0.039792
0.0406641
0.041595
0.0425283
0.0434492
0.044382
0.0453094
0.0462857
0.047297
0.0482911
0.0493349
0.0503526
0.0514081
0.0524317
0.0534411
0.0543706
0.055118
0.0122151
0.010082
0.00574924
0.00167772
-0.000187045
0.000157352
0.00142157
0.00257401
0.00328234
0.00368504
0.00404976
0.00444702
0.00480967
0.00512204
0.00538831
0.00560785
0.00581598
0.00611685
0.00657446
0.00706811
0.00744593
0.00773001
0.00801865
0.00836341
0.00874883
0.00911472
0.00943128
0.00974576
0.0100773
0.0103902
0.0107101
0.0111042
0.0115425
0.0119788
0.012409
0.0128355
0.0132506
0.0136534
0.0140434
0.0144138
0.014785
0.015161
0.0155074
0.015827
0.0161813
0.0165905
0.0170141
0.017415
0.017834
0.0183137
0.0188022
0.0192758
0.0197929
0.0203708
0.0208989
0.0213084
0.0216469
0.0220518
0.0225935
0.0232266
0.0238517
0.0244512
0.0250196
0.0255576
0.0261257
0.0267042
0.0272792
0.0278872
0.0285331
0.0291553
0.0298174
0.030497
0.0311774
0.0318593
0.0325781
0.0333071
0.0340568
0.0348234
0.0356109
0.0364176
0.0372407
0.0381074
0.0389344
0.0397921
0.0406642
0.0415952
0.0425284
0.0434494
0.0443821
0.0453095
0.0462858
0.0472971
0.0482912
0.0493351
0.0503528
0.0514082
0.052432
0.0534414
0.0543713
0.0551183
0.0117496
0.00985494
0.00591802
0.002058
0.000109244
0.000279434
0.00146947
0.00261822
0.00332897
0.0037256
0.00408208
0.00447235
0.00482996
0.00513855
0.00540256
0.00562319
0.00583482
0.00613616
0.00658832
0.00707539
0.00745143
0.00773805
0.00802874
0.00837238
0.00875518
0.00911996
0.00943717
0.00975213
0.0100833
0.0103955
0.0107143
0.0111069
0.011544
0.0119801
0.0124101
0.0128359
0.0132501
0.0136526
0.0140435
0.0144149
0.014786
0.0151615
0.0155082
0.0158287
0.0161832
0.0165918
0.0170151
0.0174163
0.0178354
0.0183145
0.0188026
0.0192763
0.0197935
0.0203715
0.0208997
0.0213094
0.0216477
0.0220522
0.022594
0.0232272
0.0238523
0.0244518
0.0250202
0.0255582
0.0261262
0.0267047
0.0272797
0.0278876
0.0285335
0.0291557
0.0298178
0.0304973
0.0311777
0.0318596
0.0325784
0.0333074
0.034057
0.0348236
0.0356111
0.0364177
0.0372409
0.0381076
0.0389346
0.0397923
0.0406644
0.0415953
0.0425286
0.0434495
0.0443823
0.0453096
0.0462859
0.0472973
0.0482914
0.0493352
0.050353
0.0514084
0.0524323
0.0534419
0.054372
0.0551187
0.0113182
0.00962433
0.00606482
0.00242912
0.000417214
0.000413772
0.00151963
0.0026618
0.00337699
0.00376863
0.00411643
0.00449904
0.0048512
0.00515576
0.00541737
0.00563912
0.00585448
0.00615653
0.00660319
0.00708335
0.00745735
0.00774649
0.00803937
0.0083819
0.00876192
0.00912541
0.00944321
0.00975875
0.0100898
0.0104016
0.0107196
0.0111104
0.011546
0.0119817
0.0124116
0.0128365
0.0132493
0.0136514
0.0140432
0.0144157
0.0147868
0.0151617
0.0155089
0.0158306
0.0161856
0.0165935
0.0170164
0.0174181
0.0178373
0.0183157
0.0188031
0.0192768
0.019794
0.0203717
0.0209002
0.0213104
0.0216487
0.022053
0.0225946
0.0232279
0.0238529
0.0244523
0.0250208
0.0255589
0.0261269
0.0267054
0.0272804
0.0278882
0.0285341
0.0291563
0.0298184
0.0304978
0.0311781
0.03186
0.0325788
0.0333077
0.0340572
0.0348239
0.0356113
0.0364179
0.0372411
0.0381078
0.0389348
0.0397924
0.0406645
0.0415955
0.0425288
0.0434497
0.0443824
0.0453098
0.0462861
0.0472975
0.0482915
0.0493354
0.0503532
0.0514085
0.0524326
0.0534425
0.054373
0.0551193
0.0109215
0.00939259
0.00618662
0.00278722
0.000735605
0.000561981
0.00157281
0.00270386
0.0034254
0.00381389
0.00415303
0.0045274
0.00487358
0.00517373
0.00543269
0.00565557
0.00587495
0.006178
0.00661913
0.00709201
0.00746366
0.0077553
0.00805045
0.00839191
0.00876905
0.00913108
0.00944939
0.0097655
0.0100964
0.0104081
0.0107255
0.0111147
0.0115486
0.0119836
0.0124133
0.0128373
0.0132486
0.0136499
0.0140425
0.0144162
0.0147873
0.0151617
0.0155094
0.0158326
0.0161882
0.0165954
0.0170179
0.0174202
0.0178397
0.0183173
0.018804
0.0192774
0.0197943
0.0203715
0.0209002
0.0213111
0.0216498
0.022054
0.0225956
0.0232289
0.0238536
0.0244527
0.0250213
0.0255596
0.0261275
0.0267061
0.0272812
0.0278889
0.0285348
0.0291569
0.029819
0.0304984
0.0311787
0.0318605
0.0325792
0.0333081
0.0340576
0.0348242
0.0356115
0.0364182
0.0372413
0.038108
0.0389349
0.0397926
0.0406647
0.0415956
0.0425291
0.0434499
0.0443826
0.0453099
0.0462862
0.0472976
0.0482917
0.0493355
0.0503534
0.0514086
0.052433
0.0534432
0.0543741
0.0551199
0.0105562
0.00916178
0.00628396
0.00313033
0.00106229
0.000724655
0.00162987
0.00274405
0.00347358
0.00386134
0.0041922
0.00455774
0.0048973
0.00519258
0.00544863
0.0056727
0.0058964
0.00620073
0.00663624
0.00710142
0.00747037
0.00776447
0.00806201
0.00840242
0.00877654
0.00913699
0.00945576
0.00977239
0.0101032
0.0104149
0.0107319
0.0111195
0.0115516
0.0119858
0.0124152
0.0128383
0.013248
0.0136483
0.0140415
0.0144164