/*--------------------------------*- C++ -*----------------------------------*\
| =========                 |                                                 |
| \\      /  F ield         | OpenFOAM: The Open Source CFD Toolbox           |
|  \\    /   O peration     | Version:  v1812                                 |
|   \\  /    A nd           | Web:      www.OpenFOAM.com                      |
|    \\/     M anipulation  |                                                 |
\*---------------------------------------------------------------------------*/
FoamFile
{
    version     2.0;
    format      ascii;
    class       surfaceScalarField;
    location    "9.5";
    object      phi;
}
// * * * * * * * * * * * * * * * * * * * * * * * * * * * * * * * * * * * * * //

dimensions      [0 3 -1 0 0 0 0];
oriented        oriented;


internalField   nonuniform List<scalar> 
19000
(
1.16742e-06
-7.95939e-09
1.09234e-06
1.36295e-07
1.24528e-06
-1.42088e-06
1.25144e-06
1.1364e-06
1.09411e-06
3.58959e-07
1.11056e-06
-7.91423e-08
1.17976e-06
-7.28159e-07
1.15943e-06
3.20701e-07
1.1726e-06
3.92902e-07
1.16805e-06
7.35221e-07
1.16544e-06
6.57112e-07
1.18431e-06
6.56091e-07
1.17174e-06
2.75732e-07
1.16068e-06
2.30613e-07
1.16898e-06
8.66331e-08
1.16593e-06
4.49927e-08
1.16933e-06
-5.08403e-08
1.17198e-06
3.09974e-08
1.17331e-06
5.29217e-08
1.2127e-07
1.15276e-06
1.22413e-06
-7.82632e-09
1.14298e-06
2.17439e-07
1.30593e-06
-1.58383e-06
1.32878e-06
1.11355e-06
1.16708e-06
5.20655e-07
1.1747e-06
-8.67566e-08
1.24438e-06
-7.97845e-07
1.2198e-06
3.45289e-07
1.23416e-06
3.78534e-07
1.2337e-06
7.35689e-07
1.22097e-06
6.69834e-07
1.25366e-06
6.23404e-07
1.23382e-06
2.95578e-07
1.23325e-06
2.3118e-07
1.22905e-06
9.08289e-08
1.241e-06
3.30447e-08
1.22496e-06
-3.48023e-08
1.24772e-06
8.24029e-09
1.22046e-06
8.01845e-08
1.03387e-07
1.23834e-06
1.28337e-06
-8.4124e-09
1.19827e-06
3.0254e-07
1.36371e-06
-1.74927e-06
1.42358e-06
1.05369e-06
1.25704e-06
6.87192e-07
1.24853e-06
-7.82464e-08
1.31619e-06
-8.65502e-07
1.29959e-06
3.61894e-07
1.30147e-06
3.76646e-07
1.31447e-06
7.22692e-07
1.28429e-06
7.0001e-07
1.33044e-06
5.77261e-07
1.30528e-06
3.20738e-07
1.31111e-06
2.25346e-07
1.29797e-06
1.03974e-07
1.31323e-06
1.77835e-08
1.29452e-06
-1.60963e-08
1.30802e-06
-5.25546e-09
1.29489e-06
9.33119e-08
1.11183e-07
1.28709e-06
1.34554e-06
-9.85e-09
1.25843e-06
3.89652e-07
1.42083e-06
-1.91167e-06
1.52898e-06
9.45536e-07
1.35989e-06
8.56285e-07
1.33005e-06
-4.84045e-08
1.38865e-06
-9.24103e-07
1.39025e-06
3.60289e-07
1.37654e-06
3.90361e-07
1.39919e-06
7.00037e-07
1.35985e-06
7.39348e-07
1.40363e-06
5.33484e-07
1.38467e-06
3.39695e-07
1.38584e-06
2.2418e-07
1.37253e-06
1.17288e-07
1.38024e-06
1.00727e-08
1.36836e-06
-4.21889e-09
1.37091e-06
-7.80867e-09
1.36744e-06
9.67895e-08
1.23972e-07
1.35465e-06
1.41034e-06
-1.18338e-08
1.32536e-06
4.74629e-07
1.47631e-06
-2.06262e-06
1.63363e-06
7.88213e-07
1.47087e-06
1.01905e-06
1.416e-06
6.46089e-09
1.4562e-06
-9.64306e-07
1.47901e-06
3.37482e-07
1.45623e-06
4.13146e-07
1.47837e-06
6.77895e-07
1.44498e-06
7.72738e-07
1.47504e-06
5.03428e-07
1.46606e-06
3.48669e-07
1.46074e-06
2.29497e-07
1.44716e-06
1.30873e-07
1.44699e-06
1.02447e-08
1.43878e-06
3.99421e-09
1.43722e-06
-6.25577e-09
1.43643e-06
9.75842e-08
1.34423e-07
1.42598e-06
1.47765e-06
-1.38054e-08
1.39957e-06
5.5271e-07
1.5293e-06
-2.19235e-06
1.72402e-06
5.93496e-07
1.58339e-06
1.15967e-06
1.50298e-06
8.68726e-08
1.51709e-06
-9.78411e-07
1.55628e-06
2.98287e-07
1.53704e-06
4.32388e-07
1.55259e-06
6.62347e-07
1.53335e-06
7.91971e-07
1.54884e-06
4.87942e-07
1.5452e-06
3.52311e-07
1.53646e-06
2.38233e-07
1.52059e-06
1.46742e-07
1.51385e-06
1.69851e-08
1.50572e-06
1.21297e-08
1.50267e-06
-3.21027e-09
1.50367e-06
9.65897e-08
1.42086e-07
1.496e-06
1.54786e-06
-1.54494e-08
1.4799e-06
6.2067e-07
1.58033e-06
-2.29278e-06
1.79211e-06
3.81713e-07
1.68997e-06
1.26181e-06
1.58888e-06
1.87961e-07
1.57429e-06
-9.63816e-07
1.62178e-06
2.50798e-07
1.61617e-06
4.37989e-07
1.62673e-06
6.51791e-07
1.62043e-06
7.98272e-07
1.62568e-06
4.82692e-07
1.62197e-06
3.56015e-07
1.61188e-06
2.48325e-07
1.59377e-06
1.64852e-07
1.58158e-06
2.91738e-08
1.57177e-06
2.19479e-08
1.56701e-06
1.54916e-09
1.56951e-06
9.40887e-08
1.47201e-07
1.56439e-06
1.62188e-06
-1.72039e-08
1.5653e-06
6.77252e-07
1.63201e-06
-2.35949e-06
1.83904e-06
1.74686e-07
1.7845e-06
1.31636e-06
1.67357e-06
2.98887e-07
1.63314e-06
-9.23382e-07
1.68082e-06
2.03116e-07
1.69145e-06
4.27354e-07
1.70274e-06
6.40509e-07
1.70486e-06
7.9615e-07
1.70408e-06
4.83472e-07
1.69782e-06
3.6227e-07
1.68686e-06
2.59284e-07
1.6677e-06
1.84019e-07
1.65164e-06
4.52285e-08
1.6398e-06
3.37881e-08
1.63252e-06
8.83401e-09
1.6354e-06
9.12084e-08
1.50448e-07
1.63215e-06
1.70057e-06
-2.02023e-08
1.65597e-06
7.21857e-07
1.68826e-06
-2.39178e-06
1.87264e-06
-9.70081e-09
1.86433e-06
1.32467e-06
1.75781e-06
4.05412e-07
1.69812e-06
-8.63693e-07
1.73899e-06
1.62241e-07
1.76177e-06
4.04579e-07
1.77857e-06
6.2371e-07
1.7861e-06
7.88618e-07
1.78227e-06
4.87296e-07
1.77356e-06
3.70987e-07
1.76206e-06
2.70783e-07
1.74325e-06
2.02829e-07
1.72519e-06
6.32846e-08
1.71201e-06
4.69739e-08
1.70187e-06
1.89716e-08
1.70375e-06
8.93291e-08
1.52889e-07
1.70131e-06
1.78402e-06
-2.5499e-08
1.75234e-06
7.53533e-07
1.75253e-06
-2.39197e-06
1.90316e-06
-1.60335e-07
1.93137e-06
1.29647e-06
1.84199e-06
4.94785e-07
1.77131e-06
-7.93013e-07
1.80046e-06
1.33096e-07
1.8281e-06
3.7694e-07
1.85153e-06
6.00275e-07
1.8634e-06
7.76745e-07
1.85908e-06
4.9162e-07
1.84954e-06
3.80529e-07
1.8384e-06
2.81918e-07
1.82141e-06
2.19823e-07
1.80308e-06
8.16167e-08
1.7896e-06
6.0453e-08
1.77697e-06
3.16001e-08
1.77684e-06
8.94596e-08
1.55514e-07
1.77421e-06
1.8715e-06
-3.3249e-08
1.85361e-06
7.71424e-07
1.82664e-06
-2.365e-06
1.93996e-06
-2.73657e-07
1.99134e-06
1.24508e-06
1.92612e-06
5.60011e-07
1.85259e-06
-7.19484e-07
1.86846e-06
1.17221e-07
1.89404e-06
3.51362e-07
1.92179e-06
5.72522e-07
1.93737e-06
7.61172e-07
1.93478e-06
4.94213e-07
1.92658e-06
3.88723e-07
1.91706e-06
2.91441e-07
1.90318e-06
2.33702e-07
1.88593e-06
9.887e-08
1.87308e-06
7.32957e-08
1.85872e-06
4.59599e-08
1.85614e-06
9.20435e-08
1.58931e-07
1.85272e-06
1.96217e-06
-4.25817e-08
1.9578e-06
7.75796e-07
1.91065e-06
-2.31785e-06
1.98949e-06
-3.525e-07
2.05138e-06
1.18319e-06
2.01046e-06
6.00929e-07
1.9406e-06
-6.4962e-07
1.94541e-06
1.1241e-07
1.96475e-06
3.32023e-07
1.99306e-06
5.44208e-07
2.01106e-06
7.4317e-07
2.01147e-06
4.93802e-07
2.00629e-06
3.9391e-07
1.9993e-06
2.98425e-07
1.98931e-06
2.43691e-07
1.97402e-06
1.1416e-07
1.96245e-06
8.4867e-08
1.94726e-06
6.11528e-08
1.94228e-06
9.70253e-08
1.63291e-07
1.93792e-06
2.05575e-06
-5.21424e-08
2.06316e-06
7.68388e-07
2.00338e-06
-2.25807e-06
2.05429e-06
-4.03412e-07
2.11724e-06
1.12025e-06
2.09611e-06
6.22051e-07
2.03386e-06
-5.87364e-07
2.0322e-06
1.14069e-07
2.04454e-06
3.19677e-07
2.07038e-06
5.1837e-07
2.08903e-06
7.2452e-07
2.09234e-06
4.90495e-07
2.09063e-06
3.95624e-07
2.08629e-06
3.0276e-07
2.08021e-06
2.49775e-07
2.06724e-06
1.27129e-07
2.05728e-06
9.48296e-08
2.04219e-06
7.62412e-08
2.03528e-06
1.03932e-07
1.68321e-07
2.03025e-06
2.15259e-06
-6.0736e-08
2.16912e-06
7.51867e-07
2.1032e-06
-2.19215e-06
2.13356e-06
-4.33776e-07
2.19202e-06
1.06179e-06
2.18479e-06
6.29281e-07
2.13147e-06
-5.34044e-07
2.12807e-06
1.17469e-07
2.13511e-06
3.12638e-07
2.15728e-06
4.96203e-07
2.17508e-06
7.06716e-07
2.18014e-06
4.85437e-07
2.18125e-06
3.94513e-07
2.17888e-06
3.05136e-07
2.17602e-06
2.5263e-07
2.16525e-06
1.37898e-07
2.15693e-06
1.03154e-07
2.14283e-06
9.03409e-08
2.13476e-06
1.11997e-07
1.73433e-07
2.12965e-06
2.25342e-06
-6.76704e-08
2.27631e-06
7.28984e-07
2.20866e-06
-2.12451e-06
2.22486e-06
-4.49968e-07
2.27664e-06
1.01e-06
2.27834e-06
6.27589e-07
2.23335e-06
-4.89057e-07
2.2314e-06
1.19422e-07
2.23555e-06
3.08483e-07
2.25447e-06
4.77285e-07
2.2708e-06
6.90383e-07
2.27624e-06
4.80003e-07
2.27903e-06
3.91715e-07
2.27759e-06
3.0658e-07
2.27693e-06
2.53295e-07
2.26792e-06
1.46899e-07
2.26096e-06
1.10117e-07
2.24853e-06
1.02778e-07
2.24015e-06
1.20377e-07
1.77947e-07
2.23563e-06
2.35897e-06
-7.27695e-08
2.38595e-06
7.02009e-07
2.31885e-06
-2.05741e-06
2.3257e-06
-4.56816e-07
2.37088e-06
9.64816e-07
2.3782e-06
6.20269e-07
2.33995e-06
-4.50809e-07
2.34065e-06
1.18725e-07
2.34377e-06
3.05361e-07
2.36054e-06
4.60519e-07
2.37563e-06
6.75293e-07
2.38048e-06
4.75149e-07
2.384e-06
3.88193e-07
2.38265e-06
3.07932e-07
2.38317e-06
2.5278e-07
2.37544e-06
1.54622e-07
2.36935e-06
1.16214e-07
2.3589e-06
1.1322e-07
2.3509e-06
1.28384e-07
1.81386e-07
2.34746e-06
2.46984e-06
-7.62121e-08
2.49928e-06
6.72572e-07
2.43343e-06
-1.99156e-06
2.43441e-06
-4.57796e-07
2.47419e-06
9.25028e-07
2.48521e-06
6.0925e-07
2.45191e-06
-4.17504e-07
2.45499e-06
1.15643e-07
2.45793e-06
3.02424e-07
2.47348e-06
4.44967e-07
2.48796e-06
6.6081e-07
2.4919e-06
4.71207e-07
2.49568e-06
3.84415e-07
2.49404e-06
3.0957e-07
2.49501e-06
2.51819e-07
2.48821e-06
1.61417e-07
2.48246e-06
1.21963e-07
2.47397e-06
1.21718e-07
2.46676e-06
1.35589e-07
1.8364e-07
2.46451e-06
2.58643e-06
-7.83475e-08
2.61725e-06
6.41756e-07
2.55249e-06
-1.92681e-06
2.55008e-06
-4.5538e-07
2.58601e-06
8.89098e-07
2.5996e-06
5.95657e-07
2.56971e-06
-3.87614e-07
2.57425e-06
1.11104e-07
2.57708e-06
2.99596e-07
2.59186e-06
4.30187e-07
2.60633e-06
6.46333e-07
2.6095e-06
4.68045e-07
2.6135e-06
3.80408e-07
2.61165e-06
3.11424e-07
2.61266e-06
2.50811e-07
2.60666e-06
1.67414e-07
2.60089e-06
1.27729e-07
2.59401e-06
1.28599e-07
2.58781e-06
1.41792e-07
1.8493e-07
2.58652e-06
2.70905e-06
-7.95662e-08
2.74052e-06
6.1028e-07
2.67639e-06
-1.86267e-06
2.67228e-06
-4.51276e-07
2.70579e-06
8.55589e-07
2.72123e-06
5.80223e-07
2.69365e-06
-3.60035e-07
2.69867e-06
1.06087e-07
2.70112e-06
2.97138e-07
2.71517e-06
4.16141e-07
2.72999e-06
6.31509e-07
2.73271e-06
4.65329e-07
2.73712e-06
3.75994e-07
2.73539e-06
3.13158e-07
2.73628e-06
2.49917e-07
2.73111e-06
1.72591e-07
2.72518e-06
1.33661e-07
2.71946e-06
1.34315e-07
2.71433e-06
1.46926e-07
1.85616e-07
2.71364e-06
2.83794e-06
-8.02341e-08
2.86957e-06
5.78643e-07
2.80555e-06
-1.79865e-06
2.80086e-06
-4.46582e-07
2.83313e-06
8.23316e-07
2.84989e-06
5.63466e-07
2.82388e-06
-3.34025e-07
2.82862e-06
1.0135e-07
2.83044e-06
2.95315e-07
2.84365e-06
4.0293e-07
2.85895e-06
6.16214e-07
2.86156e-06
4.62713e-07
2.86657e-06
3.70991e-07
2.86534e-06
3.14383e-07
2.86608e-06
2.49179e-07
2.86177e-06
1.76896e-07
2.85571e-06
1.39723e-07
2.85069e-06
1.39333e-07
2.84662e-06
1.50999e-07
1.86007e-07
2.84623e-06
2.97333e-06
-8.06648e-08
3.00476e-06
5.47208e-07
2.94048e-06
-1.73437e-06
2.93582e-06
-4.41922e-07
2.96777e-06
7.91368e-07
2.98547e-06
5.45767e-07
2.96053e-06
-3.09089e-07
2.96449e-06
9.73901e-08
2.96554e-06
2.94267e-07
2.97787e-06
3.90595e-07
2.99366e-06
6.00427e-07
2.99646e-06
4.59919e-07
3.00212e-06
3.65325e-07
3.0017e-06
3.148e-07
3.00227e-06
2.48611e-07
2.99882e-06
1.80351e-07
2.99275e-06
1.45787e-07
2.98802e-06
1.44062e-07
2.98491e-06
1.54111e-07
1.86247e-07
2.98467e-06
3.11545e-06
-8.11038e-08
3.14642e-06
5.16234e-07
3.0817e-06
-1.66965e-06
3.07735e-06
-4.3757e-07
3.10959e-06
7.59126e-07
3.12794e-06
5.27412e-07
3.10375e-06
-2.84894e-07
3.10666e-06
9.44803e-08
3.10692e-06
2.9401e-07
3.11846e-06
3.79047e-07
3.13474e-06
5.84147e-07
3.13791e-06
4.56758e-07
3.14419e-06
3.59043e-07
3.14476e-06
3.14227e-07
3.14513e-06
2.48242e-07
3.14242e-06
1.83065e-07
3.13651e-06
1.51695e-07
3.13174e-06
1.48828e-07
3.12937e-06
1.56485e-07
1.86294e-07
3.12932e-06
3.26452e-06
-8.17184e-08
3.29486e-06
4.85902e-07
3.22975e-06
-1.60454e-06
3.22575e-06
-4.3357e-07
3.2586e-06
7.26275e-07
3.27737e-06
5.08637e-07
3.25373e-06
-2.61255e-07
3.25554e-06
9.2678e-08
3.25507e-06
2.94478e-07
3.26601e-06
3.6811e-07
3.28279e-06
5.67367e-07
3.28638e-06
4.53159e-07
3.29315e-06
3.5228e-07
3.29477e-06
3.12607e-07
3.29491e-06
2.48104e-07
3.29276e-06
1.85208e-07
3.28719e-06
1.57271e-07
3.28219e-06
1.53821e-07
3.28023e-06
1.58449e-07
1.85986e-07
3.28054e-06
3.42081e-06
-8.25996e-08
3.45037e-06
4.56343e-07
3.38511e-06
-1.53928e-06
3.38137e-06
-4.29832e-07
3.41487e-06
6.92773e-07
3.43387e-06
4.89636e-07
3.41073e-06
-2.38117e-07
3.41156e-06
9.18457e-08
3.41048e-06
2.95562e-07
3.42099e-06
3.576e-07
3.43828e-06
5.50077e-07
3.44228e-06
4.49161e-07
3.44932e-06
3.45235e-07
3.45198e-06
3.0995e-07
3.45184e-06
2.48243e-07
3.4501e-06
1.86946e-07
3.44501e-06
1.62359e-07
3.43978e-06
1.59055e-07
3.43785e-06
1.60383e-07
1.85142e-07
3.43869e-06
3.58459e-06
-8.37777e-08
3.61327e-06
4.27663e-07
3.54819e-06
-1.47419e-06
3.54456e-06
-4.2621e-07
3.57858e-06
6.58758e-07
3.59765e-06
4.70569e-07
3.57504e-06
-2.15513e-07
3.57518e-06
9.17079e-08
3.57361e-06
2.97128e-07
3.58381e-06
3.47401e-07
3.60163e-06
5.32259e-07
3.60591e-06
4.44884e-07
3.61301e-06
3.38132e-07
3.61664e-06
3.06321e-07
3.6162e-06
2.4868e-07
3.6147e-06
1.8845e-07
3.61025e-06
1.66812e-07
3.60491e-06
1.64397e-07
3.60267e-06
1.62614e-07
1.83709e-07
3.60411e-06
3.75617e-06
-8.52427e-08
3.78389e-06
3.99946e-07
3.71934e-06
-1.40964e-06
3.71567e-06
-4.22544e-07
3.75e-06
6.24426e-07
3.76904e-06
4.51536e-07
3.74702e-06
-1.93495e-07
3.7468e-06
9.19312e-08
3.74489e-06
2.99034e-07
3.7548e-06
3.37495e-07
3.77317e-06
5.13881e-07
3.77759e-06
4.40468e-07
3.78452e-06
3.31201e-07
3.78903e-06
3.01809e-07
3.78833e-06
2.49385e-07
3.78688e-06
1.89897e-07
3.78315e-06
1.70541e-07
3.77794e-06
1.69614e-07
3.77523e-06
1.65324e-07
1.81827e-07
3.77711e-06
3.93591e-06
-8.69652e-08
3.96261e-06
3.73249e-07
3.89888e-06
-1.34592e-06
3.89501e-06
-4.18674e-07
3.92949e-06
5.89953e-07
3.94845e-06
4.32572e-07
3.92705e-06
-1.72094e-07
3.92678e-06
9.22027e-08
3.92469e-06
3.01125e-07
3.93422e-06
3.27963e-07
3.95319e-06
4.94908e-07
3.95765e-06
4.36005e-07
3.96417e-06
3.24684e-07
3.96947e-06
2.96503e-07
3.96859e-06
2.50268e-07
3.967e-06
1.91485e-07
3.96404e-06
1.73509e-07
3.95922e-06
1.74426e-07
3.95599e-06
1.68554e-07
1.79846e-07
3.95797e-06
4.12419e-06
-8.89049e-08
4.14985e-06
3.47588e-07
4.08717e-06
-1.28323e-06
4.08293e-06
-4.14435e-07
4.11741e-06
5.55468e-07
4.13634e-06
4.13647e-07
4.11554e-06
-1.51293e-07
4.11546e-06
9.22771e-08
4.11337e-06
3.0322e-07
4.12237e-06
3.18961e-07
4.14195e-06
4.75327e-07
4.14646e-06
4.31497e-07
4.1523e-06
3.18843e-07
4.15833e-06
2.9048e-07
4.15738e-06
2.51212e-07
4.15549e-06
1.9338e-07
4.15322e-06
1.75772e-07
4.14908e-06
1.78574e-07
4.14548e-06
1.72149e-07
1.78232e-07
4.1471e-06
4.32141e-06
-9.10159e-08
4.34606e-06
3.22939e-07
4.28456e-06
-1.22173e-06
4.27979e-06
-4.09668e-07
4.31419e-06
5.21075e-07
4.33316e-06
3.94676e-07
4.31291e-06
-1.31049e-07
4.31319e-06
9.19973e-08
4.31132e-06
3.05098e-07
4.3196e-06
3.10676e-07
4.33975e-06
4.55175e-07
4.34442e-06
4.26824e-07
4.34933e-06
3.13933e-07
4.35596e-06
2.83858e-07
4.35512e-06
2.5205e-07
4.35277e-06
1.95726e-07
4.35107e-06
1.77471e-07
4.34778e-06
1.81869e-07
4.34413e-06
1.75803e-07
1.77353e-07
4.345e-06
4.52801e-06
-9.32485e-08
4.5517e-06
2.9925e-07
4.49146e-06
-1.1615e-06
4.48604e-06
-4.04247e-07
4.52022e-06
4.86896e-07
4.53935e-06
3.75545e-07
4.51961e-06
-1.11311e-07
4.52031e-06
9.13014e-08
4.51892e-06
3.06492e-07
4.52631e-06
3.03286e-07
4.54692e-06
4.34565e-07
4.55198e-06
4.2176e-07
4.55572e-06
3.10193e-07
4.56281e-06
2.76771e-07
4.56226e-06
2.52594e-07
4.55929e-06
1.98702e-07
4.55798e-06
1.78776e-07
4.55567e-06
1.8418e-07
4.55231e-06
1.79165e-07
1.7731e-07
4.55235e-06
4.74442e-06
-9.5554e-08
4.7672e-06
2.76473e-07
4.70828e-06
-1.10258e-06
4.70217e-06
-3.98142e-07
4.73596e-06
4.53109e-07
4.75537e-06
3.56133e-07
4.73612e-06
-9.20589e-08
4.73719e-06
9.02292e-08
4.73657e-06
3.07107e-07
4.74294e-06
2.96916e-07
4.76383e-06
4.1368e-07
4.76958e-06
4.16011e-07
4.77197e-06
3.078e-07
4.77932e-06
2.69417e-07
4.77931e-06
2.52607e-07
4.77559e-06
2.02423e-07
4.77445e-06
1.79915e-07
4.77316e-06
1.85473e-07
4.77041e-06
1.81915e-07
1.77941e-07
4.76978e-06
4.97112e-06
-9.78812e-08
4.99303e-06
2.54567e-07
4.93541e-06
-1.04496e-06
4.92874e-06
-3.91471e-07
4.96189e-06
4.19961e-07
4.98168e-06
3.36342e-07
4.96296e-06
-7.33454e-08
4.96426e-06
8.89347e-08
4.9647e-06
3.0667e-07
4.97001e-06
2.91602e-07
4.99093e-06
3.9276e-07
4.99763e-06
4.09314e-07
4.99866e-06
3.06766e-07
5.00598e-06
2.62097e-07
5.00678e-06
2.51811e-07
5.00238e-06
2.06819e-07
5.0011e-06
1.81193e-07
5.00082e-06
1.85758e-07
4.99874e-06
1.83992e-07
1.78865e-07
4.99782e-06
5.20861e-06
-1.0017e-07
5.2297e-06
2.33477e-07
5.17327e-06
-9.88533e-07
5.16632e-06
-3.84519e-07
5.19854e-06
3.87738e-07
5.21877e-06
3.16119e-07
5.20073e-06
-5.53078e-08
5.202e-06
8.76662e-08
5.2037e-06
3.0497e-07
5.20803e-06
2.87269e-07
5.22871e-06
3.72078e-07
5.23657e-06
4.01459e-07
5.23637e-06
3.06963e-07
5.24332e-06
2.55143e-07
5.24517e-06
2.49962e-07
5.24034e-06
2.11651e-07
5.23858e-06
1.82953e-07
5.23914e-06
1.85198e-07
5.23783e-06
1.85305e-07
1.79816e-07
5.23688e-06
5.45736e-06
-1.02346e-07
5.47773e-06
2.13112e-07
5.42228e-06
-9.33083e-07
5.41549e-06
-3.7773e-07
5.44649e-06
3.56735e-07
5.46714e-06
2.95475e-07
5.45e-06
-3.81664e-08
5.45094e-06
8.67183e-08
5.45401e-06
3.01902e-07
5.45754e-06
2.83745e-07
5.47768e-06
3.51933e-07
5.48684e-06
3.92297e-07
5.48569e-06
3.08117e-07
5.49188e-06
2.48947e-07
5.495e-06
2.46844e-07
5.49013e-06
2.16521e-07
5.4875e-06
1.85589e-07
5.48864e-06
1.8406e-07
5.48825e-06
1.85692e-07
1.80682e-07
5.48738e-06
5.71793e-06
-1.04313e-07
5.73773e-06
1.93311e-07
5.68291e-06
-8.78267e-07
5.67684e-06
-3.71658e-07
5.70631e-06
3.27264e-07
5.72727e-06
2.74516e-07
5.71134e-06
-2.224e-08
5.7117e-06
8.63615e-08
5.71612e-06
2.97486e-07
5.71907e-06
2.80788e-07
5.73838e-06
3.32622e-07
5.74895e-06
3.81731e-07
5.7472e-06
3.09866e-07
5.75225e-06
2.43899e-07
5.75669e-06
2.424e-07
5.75234e-06
2.20873e-07
5.74854e-06
1.89393e-07
5.74983e-06
1.82762e-07
5.75056e-06
1.84971e-07
1.81404e-07
5.74983e-06
5.99084e-06
-1.05957e-07
6.01031e-06
1.73838e-07
5.95572e-06
-8.23673e-07
5.95095e-06
-3.66892e-07
5.97864e-06
2.99577e-07
5.99961e-06
2.53544e-07
5.98531e-06
-7.94374e-09
5.98491e-06
8.6769e-08
5.99053e-06
2.91862e-07
5.99319e-06
2.7813e-07
6.01139e-06
3.14417e-07
6.0234e-06
3.69723e-07
6.02145e-06
3.11818e-07
6.02508e-06
2.40269e-07
6.03066e-06
2.36815e-07
6.02738e-06
2.24154e-07
6.02249e-06
1.94283e-07
6.02336e-06
1.81896e-07
6.02514e-06
1.83193e-07
1.81648e-07
6.02489e-06
6.27668e-06
-1.07149e-07
6.29613e-06
1.54386e-07
6.24139e-06
-7.68929e-07
6.23836e-06
-3.63864e-07
6.2642e-06
2.73738e-07
6.28466e-06
2.33079e-07
6.27243e-06
4.2903e-09
6.27124e-06
8.79585e-08
6.27783e-06
2.85271e-07
6.28043e-06
2.75531e-07
6.29733e-06
2.97514e-07
6.31074e-06
3.56318e-07
6.30901e-06
3.13551e-07
6.31105e-06
2.38223e-07
6.31745e-06
2.30421e-07
6.31569e-06
2.2591e-07
6.31011e-06
1.99865e-07
6.30995e-06
1.82053e-07
6.31253e-06
1.80613e-07
1.81035e-07
6.31314e-06
6.57607e-06
-1.07746e-07
6.59586e-06
1.34589e-07
6.54078e-06
-7.13845e-07
6.53951e-06
-3.62599e-07
6.56374e-06
2.49507e-07
6.58306e-06
2.13761e-07
6.57318e-06
1.41733e-08
6.57142e-06
8.97193e-08
6.57864e-06
2.78048e-07
6.58138e-06
2.72791e-07
6.59684e-06
2.82052e-07
6.61152e-06
3.41637e-07
6.61044e-06
3.14635e-07
6.61085e-06
2.37809e-07
6.61754e-06
2.2374e-07
6.61769e-06
2.25752e-07
6.61199e-06
2.05573e-07
6.61048e-06
1.8356e-07
6.61332e-06
1.77771e-07
1.79272e-07
6.61508e-06
6.88967e-06
-1.07622e-07
6.91017e-06
1.14082e-07
6.85478e-06
-6.58452e-07
6.85481e-06
-3.6263e-07
6.87801e-06
2.26303e-07
6.89557e-06
1.96207e-07
6.88803e-06
2.1709e-08
6.88612e-06
9.16339e-08
6.89366e-06
2.70508e-07
6.89664e-06
2.69812e-07
6.9106e-06
2.68092e-07
6.92633e-06
3.25906e-07
6.92636e-06
3.14602e-07
6.92517e-06
2.38996e-07
6.93153e-06
2.17388e-07
6.93383e-06
2.23444e-07
6.92866e-06
2.10748e-07
6.92578e-06
1.86444e-07
6.92824e-06
1.75309e-07
1.76304e-07
6.93121e-06
7.21817e-06
-1.06658e-07
7.23975e-06
9.25057e-08
7.18421e-06
-6.02909e-07
7.18468e-06
-3.63102e-07
7.20771e-06
2.03274e-07
7.22302e-06
1.80898e-07
7.21757e-06
2.71516e-08
7.21599e-06
9.3219e-08
7.22363e-06
2.62864e-07
7.22685e-06
2.66591e-07
7.23927e-06
2.55672e-07
7.2558e-06
3.09383e-07
7.25734e-06
3.13063e-07
7.25477e-06
2.41565e-07
7.26011e-06
2.12047e-07
7.26453e-06
2.19021e-07
7.26058e-06
2.14697e-07
7.25662e-06
1.90411e-07
7.25812e-06
1.73801e-07
1.72404e-07
7.26202e-06
7.56234e-06
-1.04773e-07
7.58521e-06
6.96396e-08
7.5299e-06
-5.47597e-07
7.52964e-06
-3.62844e-07
7.55346e-06
1.7945e-07
7.5663e-06
1.68063e-07
7.56244e-06
3.10099e-08
7.56166e-06
9.39996e-08
7.56932e-06
2.55198e-07
7.57271e-06
2.632e-07
7.58358e-06
2.44807e-07
7.60059e-06
2.9237e-07
7.6039e-06
3.09756e-07
7.60035e-06
2.45111e-07
7.60416e-06
2.08237e-07
7.61023e-06
2.12957e-07
7.60822e-06
2.16703e-07
7.60371e-06
1.94926e-07
7.60389e-06
1.73618e-07
1.68142e-07
7.60815e-06
7.92297e-06
-1.01933e-07
7.94702e-06
4.55912e-08
7.89266e-06
-4.93238e-07
7.89033e-06
-3.60517e-07
7.91585e-06
1.53934e-07
7.92638e-06
1.57537e-07
7.92335e-06
3.4039e-08
7.92375e-06
9.35962e-08
7.93148e-06
2.4747e-07
7.93496e-06
2.59721e-07
7.94425e-06
2.35514e-07
7.96139e-06
2.75229e-07
7.96656e-06
3.0459e-07
7.96265e-06
2.49019e-07
7.96465e-06
2.0624e-07
7.97156e-06
2.0604e-07
7.97195e-06
2.16314e-07
7.96764e-06
1.99236e-07
7.96645e-06
1.74816e-07
1.64245e-07
7.97034e-06
8.30092e-06
-9.81673e-08
8.32569e-06
2.08116e-08
8.27331e-06
-4.40853e-07
8.26758e-06
-3.54789e-07
8.29537e-06
1.2615e-07
8.30415e-06
1.48749e-07
8.30114e-06
3.70505e-08
8.30286e-06
9.18737e-08
8.31083e-06
2.39508e-07
8.31434e-06
2.56203e-07
8.32205e-06
2.27811e-07
8.33883e-06
2.58443e-07
8.34584e-06
2.97584e-07
8.34221e-06
2.5265e-07
8.34245e-06
2.06001e-07
8.34943e-06
1.99059e-07
8.3522e-06
2.13538e-07
8.3489e-06
2.02544e-07
8.34672e-06
1.76989e-07
1.61403e-07
8.34956e-06
8.69706e-06
-9.35632e-08
8.722e-06
-4.12725e-09
8.67264e-06
-3.91497e-07
8.66248e-06
-3.44628e-07
8.69243e-06
9.61963e-08
8.70051e-06
1.40674e-07
8.69676e-06
4.07956e-08
8.69966e-06
8.89786e-08
8.70802e-06
2.31151e-07
8.71162e-06
2.52602e-07
8.71763e-06
2.21796e-07
8.73352e-06
2.42556e-07
8.74226e-06
2.88839e-07
8.73956e-06
2.55357e-07
8.73843e-06
2.07129e-07
8.74473e-06
1.92759e-07
8.74965e-06
2.08613e-07
8.74792e-06
2.04279e-07
8.74544e-06
1.79468e-07
1.59904e-07
8.74694e-06
9.11232e-06
-8.82669e-08
9.13679e-06
-2.8596e-08
9.09148e-06
-3.46183e-07
9.07642e-06
-3.29576e-07
9.10758e-06
6.50425e-08
9.11625e-06
1.31998e-07
9.11126e-06
4.57856e-08
9.11473e-06
8.55139e-08
9.12367e-06
2.22211e-07
9.12738e-06
2.48888e-07
9.13162e-06
2.17559e-07
9.14613e-06
2.28042e-07
9.15641e-06
2.78558e-07
9.15537e-06
2.56403e-07
9.15347e-06
2.0903e-07
9.15857e-06
1.87658e-07
9.16512e-06
2.02058e-07
9.16534e-06
2.04058e-07
9.16318e-06
1.8163e-07
1.59521e-07
9.16356e-06
9.54767e-06
-8.24811e-08
9.57103e-06
-5.19552e-08
9.53067e-06
-3.0582e-07
9.51104e-06
-3.09946e-07
9.54157e-06
3.45144e-08
9.55204e-06
1.21528e-07
9.54565e-06
5.21749e-08
9.5488e-06
8.23662e-08
9.55827e-06
2.12741e-07
9.56241e-06
2.44746e-07
9.56514e-06
2.14828e-07
9.57785e-06
2.15333e-07
9.58942e-06
2.66985e-07
9.59047e-06
2.55354e-07
9.58847e-06
2.11035e-07
9.59215e-06
1.83977e-07
9.59965e-06
1.9456e-07
9.602e-06
2.01709e-07
9.60051e-06
1.83113e-07
1.59662e-07
9.60037e-06
1.00041e-05
-7.6462e-08
1.00257e-05
-7.35409e-08
9.99111e-06
-2.71233e-07
9.96749e-06
-2.86325e-07
9.99532e-06
6.68605e-09
1.00084e-05
1.08476e-07
1.00008e-05
5.97939e-08
1.00028e-05
8.03114e-08
1.00128e-05
2.02781e-07
1.00179e-05
2.39657e-07
1.00197e-05
2.13034e-07
1.00303e-05
2.04706e-07
1.00428e-05
2.5442e-07
1.00459e-05
2.52318e-07
1.00444e-05
2.12509e-07
1.00468e-05
1.81598e-07
1.00544e-05
1.86972e-07
1.00588e-05
1.97272e-07
1.00583e-05
1.83668e-07
1.5982e-07
1.00581e-05
1.04827e-05
-7.05027e-08
1.05018e-05
-9.26772e-08
1.04737e-05
-2.43165e-07
1.04468e-05
-2.59424e-07
1.04701e-05
-1.65488e-08
1.04859e-05
9.27066e-08
1.0478e-05
6.76666e-08
1.04782e-05
8.01094e-08
1.04885e-05
1.92444e-07
1.0495e-05
2.33159e-07
1.04964e-05
2.11672e-07
1.05048e-05
1.96268e-07
1.05178e-05
2.41481e-07
1.05228e-05
2.47296e-07
1.05222e-05
2.13112e-07
1.05236e-05
1.80152e-07
1.05306e-05
1.80028e-07
1.05368e-05
1.9105e-07
1.05374e-05
1.83027e-07
1.59785e-07
1.05375e-05
1.09844e-05
-6.49137e-08
1.10005e-05
-1.0875e-07
1.0979e-05
-2.21712e-07
1.09502e-05
-2.30577e-07
1.09677e-05
-3.39986e-08
1.09859e-05
7.45077e-08
1.0979e-05
7.44721e-08
1.09768e-05
8.24036e-08
1.09867e-05
1.8245e-07
1.09949e-05
2.25045e-07
1.09965e-05
2.10054e-07
1.1003e-05
1.89781e-07
1.10155e-05
2.28907e-07
1.10223e-05
2.40577e-07
1.10227e-05
2.1267e-07
1.10237e-05
1.79163e-07
1.10296e-05
1.74141e-07
1.1037e-05
1.83651e-07
1.10391e-05
1.8086e-07
1.59493e-07
1.10394e-05
1.15104e-05
-5.99971e-08
1.15229e-05
-1.21208e-07
1.15075e-05
-2.06319e-07
1.14786e-05
-2.01617e-07
1.14896e-05
-4.5074e-08
1.15091e-05
5.50001e-08
1.15051e-05
7.85547e-08
1.15004e-05
8.70462e-08
1.15088e-05
1.74053e-07
1.15182e-05
2.15625e-07
1.15209e-05
2.07421e-07
1.15259e-05
1.84778e-07
1.15375e-05
2.17231e-07
1.15455e-05
2.32609e-07
1.1547e-05
2.11164e-07
1.1548e-05
1.78213e-07
1.15528e-05
1.69323e-07
1.15606e-05
1.75857e-07
1.15644e-05
1.7703e-07
1.58721e-07
1.15652e-05
1.20618e-05
-5.60189e-08
1.20703e-05
-1.29629e-07
1.20601e-05
-1.96192e-07
1.20329e-05
-1.74373e-07
1.20376e-05
-4.97354e-08
1.20567e-05
3.5862e-08
1.20567e-05
7.85675e-08
1.20507e-05
9.30425e-08
1.20564e-05
1.6833e-07
1.20663e-05
2.05729e-07
1.20702e-05
2.03489e-07
1.20745e-05
1.80539e-07
1.2085e-05
2.06733e-07
1.20937e-05
2.23833e-07
1.20963e-05
2.08591e-07
1.20975e-05
1.7703e-07
1.21015e-05
1.65361e-07
1.2109e-05
1.68294e-07
1.21143e-05
1.71753e-07
1.57114e-07
1.21159e-05
1.26397e-05
-5.31601e-08
1.2644e-05
-1.33929e-07
1.2638e-05
-1.90202e-07
1.26142e-05
-1.50502e-07
1.2613e-05
-4.86048e-08
1.263e-05
1.89342e-08
1.26343e-05
7.42725e-08
1.26286e-05
9.8699e-08
1.26313e-05
1.65663e-07
1.26405e-05
1.96501e-07
1.26456e-05
1.98381e-07
1.26498e-05
1.76369e-07
1.26591e-05
1.97407e-07
1.26683e-05
2.14643e-07
1.26719e-05
2.05036e-07
1.26734e-05
1.75458e-07
1.26768e-05
1.61989e-07
1.26838e-05
1.61301e-07
1.269e-05
1.65533e-07
1.54342e-07
1.26928e-05
1.32453e-05
-5.14836e-08
1.32457e-05
-1.34419e-07
1.32425e-05
-1.8699e-07
1.32234e-05
-1.31351e-07
1.32175e-05
-4.26939e-08
1.32305e-05
5.94812e-09
1.32384e-05
6.62991e-08
1.32348e-05
1.02306e-07
1.32348e-05
1.65656e-07
1.32424e-05
1.8895e-07
1.32483e-05
1.92451e-07
1.32528e-05
1.71924e-07
1.32612e-05
1.88963e-07
1.32705e-05
2.05345e-07
1.32749e-05
2.00636e-07
1.3277e-05
1.73374e-07
1.328e-05
1.58979e-07
1.32863e-05
1.54948e-07
1.3293e-05
1.5888e-07
1.50416e-07
1.32969e-05
1.38796e-05
-5.09503e-08
1.3877e-05
-1.31747e-07
1.3875e-05
-1.85058e-07
1.38612e-05
-1.17492e-07
1.38521e-05
-3.35994e-08
1.386e-05
-1.94898e-09
1.38701e-05
5.6178e-08
1.38697e-05
1.0266e-07
1.38682e-05
1.67243e-07
1.38737e-05
1.83437e-07
1.38798e-05
1.86338e-07
1.38846e-05
1.67104e-07
1.38925e-05
1.8106e-07
1.39018e-05
1.96089e-07
1.39068e-05
1.95572e-07
1.39095e-05
1.70746e-07
1.39123e-05
1.56084e-07
1.39181e-05
1.49211e-07
1.39248e-05
1.52177e-07
1.45566e-07
1.39296e-05
1.45441e-05
-5.14196e-08
1.45389e-05
-1.26476e-07
1.45366e-05
-1.82813e-07
1.45282e-05
-1.09095e-07
1.45179e-05
-2.32884e-08
1.45203e-05
-4.32143e-09
1.45302e-05
4.62248e-08
1.45337e-05
9.91499e-08
1.45323e-05
1.68701e-07
1.45359e-05
1.79813e-07
1.45415e-05
1.80716e-07
1.45467e-05
1.61948e-07
1.45542e-05
1.73574e-07
1.45634e-05
1.86822e-07
1.45691e-05
1.89916e-07
1.45722e-05
1.67677e-07
1.45752e-05
1.53096e-07
1.45804e-05
1.43992e-07
1.45869e-05
1.4567e-07
1.40121e-07
1.45923e-05
1.52399e-05
-5.24875e-08
1.52299e-05
-1.16383e-07
1.52282e-05
-1.81165e-07
1.52263e-05
-1.0717e-07
1.52162e-05
-1.31738e-08
1.52125e-05
-6.588e-10
1.522e-05
3.8743e-08
1.52276e-05
9.15194e-08
1.52284e-05
1.67922e-07
1.52305e-05
1.77688e-07
1.52353e-05
1.75957e-07
1.52405e-05
1.56727e-07
1.52477e-05
1.6641e-07
1.5257e-05
1.77532e-07
1.52632e-05
1.83684e-07
1.52667e-05
1.642e-07
1.52698e-05
1.49979e-07
1.52747e-05
1.39093e-07
1.52809e-05
1.39449e-07
1.34401e-07
1.52866e-05
1.59694e-05
-5.45839e-08
1.59698e-05
-1.16776e-07
1.59664e-05
-1.77749e-07
1.59608e-05
-1.01558e-07
1.59463e-05
1.28091e-09
1.59379e-05
7.78242e-09
1.59416e-05
3.50104e-08
1.59527e-05
8.04431e-08
1.59573e-05
1.6329e-07
1.59589e-05
1.76081e-07
1.59626e-05
1.72336e-07
1.59675e-05
1.51775e-07
1.59744e-05
1.59497e-07
1.59836e-05
1.68335e-07
1.59905e-05
1.76794e-07
1.59945e-05
1.60262e-07
1.59976e-05
1.46789e-07
1.60023e-05
1.34424e-07
1.60083e-05
1.33434e-07
1.28656e-07
1.60141e-05
1.67316e-05
-5.55702e-08
1.67162e-05
-1.01417e-07
1.67086e-05
-1.70071e-07
1.67131e-05
-1.06063e-07
1.67088e-05
5.58043e-09
1.67001e-05
1.64106e-08
1.66997e-05
3.54095e-08
1.67111e-05
6.90964e-08
1.67201e-05
1.54277e-07
1.67229e-05
1.73305e-07
1.67252e-05
1.69954e-07
1.67297e-05
1.47285e-07
1.67363e-05
1.52905e-07
1.67453e-05
1.59336e-07
1.67528e-05
1.69335e-07
1.67573e-05
1.55709e-07
1.67606e-05
1.43495e-07
1.6765e-05
1.30052e-07
1.67709e-05
1.27531e-07
1.22936e-07
1.67766e-05
1.75315e-05
-5.67229e-08
1.75264e-05
-9.63406e-08
1.75122e-05
-1.55874e-07
1.75103e-05
-1.04097e-07
1.75082e-05
7.69465e-09
1.75004e-05
2.42094e-08
1.74968e-05
3.90063e-08
1.75057e-05
6.01625e-08
1.75178e-05
1.42204e-07
1.7523e-05
1.68058e-07
1.75248e-05
1.68159e-07
1.75286e-05
1.43545e-07
1.75347e-05
1.46781e-07
1.75435e-05
1.5053e-07
1.75514e-05
1.6146e-07
1.75566e-05
1.50504e-07
1.75602e-05
1.3984e-07
1.75642e-05
1.26042e-07
1.75699e-05
1.21882e-07
1.17118e-07
1.75757e-05
1.83681e-05
-5.64734e-08
1.83581e-05
-8.63513e-08
1.83445e-05
-1.42288e-07
1.83449e-05
-1.04445e-07
1.83461e-05
6.51312e-09
1.83398e-05
3.04634e-08
1.8334e-05
4.4812e-08
1.83395e-05
5.46721e-08
1.83528e-05
1.28897e-07
1.83607e-05
1.60179e-07
1.83629e-05
1.65886e-07
1.83659e-05
1.40537e-07
1.83714e-05
1.41337e-07
1.83798e-05
1.42086e-07
1.83881e-05
1.53205e-07
1.83938e-05
1.44745e-07
1.8398e-05
1.35663e-07
1.84019e-05
1.22172e-07
1.84071e-05
1.1666e-07
1.11178e-07
1.84131e-05
1.92457e-05
-5.58263e-08
1.92395e-05
-8.0073e-08
1.92229e-05
-1.257e-07
1.92202e-05
-1.01759e-07
1.92233e-05
3.38791e-09
1.92191e-05
3.46849e-08
1.92126e-05
5.13242e-08
1.92147e-05
5.25732e-08
1.92273e-05
1.16304e-07
1.92375e-05
1.49947e-07
1.9241e-05
1.624e-07
1.92436e-05
1.37937e-07
1.92484e-05
1.36529e-07
1.92562e-05