/*--------------------------------*- C++ -*----------------------------------*\
| =========                 |                                                 |
| \\      /  F ield         | OpenFOAM: The Open Source CFD Toolbox           |
|  \\    /   O peration     | Version:  v1812                                 |
|   \\  /    A nd           | Web:      www.OpenFOAM.com                      |
|    \\/     M anipulation  |                                                 |
\*---------------------------------------------------------------------------*/
FoamFile
{
    version     2.0;
    format      ascii;
    class       volVectorField;
    location    "9.5";
    object      U;
}
// * * * * * * * * * * * * * * * * * * * * * * * * * * * * * * * * * * * * * //

dimensions      [0 1 -1 0 0 0 0];


internalField   nonuniform List<vector> 
9600
(
(0.678797 -7.99887e-05 0)
(1.29751 0.000778496 0)
(0.592579 -0.0154591 0)
(1.51025 0.015026 0)
(0.671065 0.00316708 0)
(1.17634 -0.000973651 0)
(0.742696 -0.0112109 0)
(1.25992 0.00570151 0)
(0.736165 0.00786366 0)
(1.25379 0.0158509 0)
(0.767874 0.0152956 0)
(1.20812 0.0170287 0)
(0.834546 0.0074085 0)
(1.15836 0.00673597 0)
(0.837676 0.00300859 0)
(1.15564 0.00157391 0)
(0.846667 -0.0020371 0)
(1.14575 0.00170777 0)
(0.863601 0.00208818 0)
(1.13809 0.00620766 0)
(0.687673 -8.42435e-05 0)
(1.28983 0.00196885 0)
(0.598697 -0.0178817 0)
(1.50128 0.0142267 0)
(0.707398 0.00633744 0)
(1.17412 -0.00134599 0)
(0.761342 -0.0127977 0)
(1.25715 0.0059097 0)
(0.751646 0.00764239 0)
(1.24377 0.0158315 0)
(0.792757 0.01549 0)
(1.18381 0.0163884 0)
(0.87877 0.00783836 0)
(1.12547 0.00707831 0)
(0.897074 0.00281041 0)
(1.10512 0.00150603 0)
(0.927253 -0.00166007 0)
(1.06885 0.000615113 0)
(0.97109 0.00348278 0)
(1.02181 0.00451001 0)
(0.706641 -7.747e-05 0)
(1.27361 0.00284493 0)
(0.6142 -0.0199781 0)
(1.48044 0.0140138 0)
(0.773227 0.00862636 0)
(1.16478 -0.0014431 0)
(0.796397 -0.0140304 0)
(1.24355 0.00647504 0)
(0.795984 0.00743749 0)
(1.21555 0.0157615 0)
(0.851375 0.0160029 0)
(1.13739 0.0153568 0)
(0.94652 0.0086092 0)
(1.08189 0.00690823 0)
(0.965405 0.00317108 0)
(1.05753 0.000874493 0)
(0.990428 -0.000920615 0)
(1.02681 -0.000124538 0)
(1.0115 0.00417466 0)
(1.00825 0.00504052 0)
(0.736781 -9.1637e-05 0)
(1.24722 0.00376916 0)
(0.642191 -0.021927 0)
(1.44359 0.0132096 0)
(0.860224 0.0109656 0)
(1.14596 -0.00112246 0)
(0.844897 -0.0150924 0)
(1.21276 0.00671687 0)
(0.86474 0.00753669 0)
(1.17082 0.0153963 0)
(0.923767 0.0168887 0)
(1.09118 0.0141573 0)
(1.00254 0.0092455 0)
(1.05471 0.00673033 0)
(1.00762 0.00363817 0)
(1.03657 0.000419818 0)
(1.01592 -0.000355085 0)
(1.01999 -0.000335927 0)
(1.0191 0.00434565 0)
(1.01596 0.00591301 0)
(0.777662 -0.000110769 0)
(1.21043 0.00472315 0)
(0.684854 -0.0238044 0)
(1.38787 0.011503 0)
(0.954141 0.0133301 0)
(1.12243 -0.000449055 0)
(0.897054 -0.0159137 0)
(1.16655 0.0064315 0)
(0.937314 0.00794831 0)
(1.12318 0.0148466 0)
(0.984294 0.0177949 0)
(1.0631 0.0131578 0)
(1.03403 0.00958719 0)
(1.04651 0.00682394 0)
(1.02702 0.00407559 0)
(1.03094 0.00029498 0)
(1.02239 1.33942e-05 0)
(1.0204 -0.000317129 0)
(1.02055 0.00440851 0)
(1.01919 0.00660344 0)
(0.826065 -0.000131928 0)
(1.16593 0.0056294 0)
(0.73948 -0.0254865 0)
(1.31529 0.0091564 0)
(1.03646 0.0154916 0)
(1.10186 0.000626441 0)
(0.941102 -0.016352 0)
(1.11478 0.0057767 0)
(0.993171 0.00841899 0)
(1.08656 0.0143876 0)
(1.02254 0.0184086 0)
(1.05321 0.0125783 0)
(1.04721 0.00973336 0)
(1.0462 0.00706758 0)
(1.03506 0.00455858 0)
(1.02892 0.000432471 0)
(1.02155 0.000321522 0)
(1.0183 -0.000225819 0)
(1.01895 0.00443244 0)
(1.01858 0.00708565 0)
(0.876027 -0.000149116 0)
(1.11961 0.00643825 0)
(0.798355 -0.026842 0)
(1.23428 0.00642649 0)
(1.09271 0.0172085 0)
(1.08873 0.00207646 0)
(0.970689 -0.0163142 0)
(1.06859 0.00494993 0)
(1.02435 0.00868729 0)
(1.06509 0.0141148 0)
(1.04215 0.0186881 0)
(1.05245 0.0123459 0)
(1.05117 0.00982513 0)
(1.04618 0.00735455 0)
(1.03767 0.0051258 0)
(1.02691 0.000785548 0)
(1.018 0.000660351 0)
(1.01372 -6.26304e-05 0)
(1.01448 0.00437027 0)
(1.01512 0.00738724 0)
(0.920624 -0.000163168 0)
(1.07877 0.00712658 0)
(0.852906 -0.0277968 0)
(1.15637 0.00358282 0)
(1.11796 0.0182983 0)
(1.08208 0.00376984 0)
(0.987247 -0.0158114 0)
(1.03391 0.00407903 0)
(1.03413 0.0086289 0)
(1.05391 0.0139177 0)
(1.05029 0.0187271 0)
(1.05338 0.0123136 0)
(1.05094 0.00996282 0)
(1.04438 0.00767038 0)
(1.03705 0.00575144 0)
(1.02454 0.00131061 0)
(1.01401 0.00108905 0)
(1.00853 0.000202349 0)
(1.00864 0.00422632 0)
(1.00976 0.00756122 0)
(0.954624 -0.000184157 0)
(1.04894 0.00769006 0)
(0.897929 -0.0283376 0)
(1.09082 0.000947878 0)
(1.11631 0.0187127 0)
(1.07772 0.0054894 0)
(0.99616 -0.0149336 0)
(1.01084 0.00327411 0)
(1.03008 0.00826846 0)
(1.04587 0.0136394 0)
(1.05134 0.0186095 0)
(1.05228 0.0123869 0)
(1.04807 0.0101811 0)
(1.04084 0.00801141 0)
(1.03438 0.00639112 0)
(1.02199 0.00193975 0)
(1.01065 0.00158576 0)
(1.00424 0.000586187 0)
(1.00316 0.00408483 0)
(1.00394 0.00768943 0)
(0.976346 -0.000224303 0)
(1.03139 0.00811704 0)
(0.932367 -0.0284867 0)
(1.04183 -0.00125484 0)
(1.09718 0.0185425 0)
(1.07179 0.00701751 0)
(1.00191 -0.0138083 0)
(0.996847 0.00263807 0)
(1.01941 0.00773012 0)
(1.03653 0.0132028 0)
(1.04686 0.0183749 0)
(1.04781 0.0125008 0)
(1.04297 0.01045 0)
(1.03597 0.00835826 0)
(1.0306 0.00699217 0)
(1.01956 0.00260849 0)
(1.00834 0.00209951 0)
(1.00149 0.00107942 0)
(0.999199 0.00403524 0)
(0.99898 0.00781796 0)
(0.98761 -0.000291352 0)
(1.02338 0.00839628 0)
(0.957526 -0.0282935 0)
(1.00911 -0.00294816 0)
(1.07099 0.0179496 0)
(1.06289 0.00820273 0)
(1.00619 -0.0125792 0)
(0.989278 0.0022321 0)
(1.00763 0.00717142 0)
(1.02544 0.0126339 0)
(1.03823 0.0180421 0)
(1.04029 0.0125923 0)
(1.03619 0.0107089 0)
(1.03039 0.00867515 0)
(1.02652 0.00750648 0)
(1.01753 0.0032605 0)
(1.00713 0.00260245 0)
(1.00031 0.0016723 0)
(0.997117 0.00410706 0)
(0.995633 0.00795628 0)
(0.992102 -0.000380408 0)
(1.02051 0.00851831 0)
(0.975302 -0.0278323 0)
(0.989819 -0.00415905 0)
(1.04579 0.0171195 0)
(1.05184 0.00899289 0)
(1.0089 -0.0113722 0)
(0.986078 0.00205394 0)
(0.998281 0.00671649 0)
(1.01468 0.0120133 0)
(1.02784 0.0176346 0)
(1.03132 0.0126142 0)
(1.02884 0.0109009 0)
(1.02483 0.00892693 0)
(1.0227 0.00789811 0)
(1.01596 0.0038517 0)
(1.00685 0.00307182 0)
(1.00036 0.00231978 0)
(0.99673 0.00429086 0)
(0.994071 0.00812425 0)
(0.993404 -0.00047819 0)
(1.01916 0.00849169 0)
(0.98744 -0.0271887 0)
(0.98023 -0.0049715 0)
(1.02573 0.0162171 0)
(1.04039 0.0094372 0)
(1.00978 -0.0102727 0)
(0.985551 0.0020408 0)
(0.992839 0.00641248 0)
(1.00656 0.0114201 0)
(1.01846 0.0171933 0)
(1.02293 0.0125552 0)
(1.02217 0.0109959 0)
(1.01994 0.00909704 0)
(1.01945 0.00814883 0)
(1.01474 0.00436474 0)
(1.00711 0.00348663 0)
(1.00117 0.00297069 0)
(0.997563 0.00457914 0)
(0.994087 0.00834165 0)
(0.993842 -0.000571453 0)
(1.01752 0.00834794 0)
(0.995412 -0.0264441 0)
(0.976751 -0.00548234 0)
(1.01156 0.0153471 0)
(1.03008 0.00963036 0)
(1.00912 -0.00932205 0)
(0.986305 0.00209958 0)
(0.990932 0.00623622 0)
(1.002 0.0109011 0)
(1.01187 0.0167619 0)
(1.01661 0.0124371 0)
(1.01706 0.0109965 0)
(1.01611 0.00919539 0)
(1.01687 0.0082757 0)
(1.01367 0.00479379 0)
(1.00747 0.00383642 0)
(1.00224 0.00358265 0)
(0.999051 0.00495103 0)
(0.995254 0.00859028 0)
(0.994398 -0.000650321 0)
(1.01527 0.00812124 0)
(1.00042 -0.0256581 0)
(0.97653 -0.00577204 0)
(1.00223 0.0145623 0)
(1.02173 0.00965563 0)
(1.00767 -0.00851533 0)
(0.987405 0.00215596 0)
(0.991239 0.00613942 0)
(1.00039 0.0104623 0)
(1.00833 0.0163641 0)
(1.01273 0.0122965 0)
(1.01374 0.0109311 0)
(1.01343 0.00925248 0)
(1.01493 0.00831357 0)
(1.01267 0.00514662 0)
(1.00767 0.00413153 0)
(1.00321 0.00412623 0)
(1.00069 0.00536045 0)
(0.997048 0.00882711 0)
(0.995216 -0.000710208 0)
(1.01277 0.00783839 0)
(1.00339 -0.0248648 0)
(0.977683 -0.00591139 0)
(0.996315 0.0138817 0)
(1.01553 0.00958013 0)
(1.00617 -0.00782918 0)
(0.98841 0.00216865 0)
(0.992415 0.00607543 0)
(1.00044 0.0100825 0)
(1.007 0.0160003 0)
(1.01081 0.012166 0)
(1.01187 0.010833 0)
(1.01172 0.00929909 0)
(1.01358 0.00830058 0)
(1.01179 0.00543978 0)
(1.00765 0.0043908 0)
(1.0039 0.00458836 0)
(1.00216 0.00575964 0)
(0.998987 0.00902179 0)
(0.996136 -0.000752187 0)
(1.01044 0.00752268 0)
(1.005 -0.0240812 0)
(0.97918 -0.00595067 0)
(0.992701 0.0132941 0)
(1.01129 0.00943586 0)
(1.00508 -0.00723791 0)
(0.989234 0.00213126 0)
(0.993594 0.00601613 0)
(1.00099 0.00973849 0)
(1.0067 0.0156581 0)
(1.00997 0.0120604 0)
(1.01089 0.0107231 0)
(1.01069 0.00935225 0)
(1.0127 0.00827003 0)
(1.01109 0.00568737 0)
(1.00752 0.00463054 0)
(1.00436 0.00497173 0)
(1.00333 0.00612062 0)
(1.00075 0.00916692 0)
(0.996993 -0.00077921 0)
(1.00853 0.0071879 0)
(1.00573 -0.0233095 0)
(0.980574 -0.00593327 0)
(0.990627 0.0127717 0)
(1.0086 0.00924482 0)
(1.00449 -0.00671317 0)
(0.989942 0.00205857 0)
(0.994423 0.00595563 0)
(1.00141 0.00941583 0)
(1.00658 0.0153205 0)
(1.0095 0.0119783 0)
(1.01029 0.0106086 0)
(1.01005 0.00941153 0)
(1.01212 0.00824327 0)
(1.01061 0.00589914 0)
(1.0074 0.00486219 0)
(1.0047 0.00528905 0)
(1.00425 0.00643199 0)
(1.00223 0.00926639 0)
(0.997708 -0.000794792 0)
(1.00711 0.00684324 0)
(1.00589 -0.0225456 0)
(0.981729 -0.0058875 0)
(0.989561 0.0122906 0)
(1.00702 0.00902204 0)
(1.00429 -0.0062349 0)
(0.990609 0.00196906 0)
(0.994872 0.00589945 0)
(1.00152 0.00910854 0)
(1.00624 0.0149745 0)
(1.00898 0.0119119 0)
(1.00975 0.0104886 0)
(1.00959 0.00946653 0)
(1.01173 0.00822549 0)
(1.01032 0.00608451 0)
(1.00737 0.00509222 0)
(1.00501 0.00555845 0)
(1.00499 0.00669308 0)
(1.00343 0.00932711 0)
(0.998262 -0.000802946 0)
(1.00612 0.00649565 0)
(1.00569 -0.0217849 0)
(0.982654 -0.00582602 0)
(0.989106 0.0118342 0)
(1.0062 0.00877427 0)
(1.00432 -0.00578961 0)
(0.991271 0.00187946 0)
(0.995027 0.00585425 0)
(1.00141 0.00881907 0)
(1.00563 0.014616 0)
(1.00833 0.0118504 0)
(1.00917 0.0103587 0)
(1.00922 0.00950668 0)
(1.01144 0.00821232 0)
(1.01018 0.00624887 0)
(1.00743 0.00532041 0)
(1.00535 0.00579391 0)
(1.00562 0.0069095 0)
(1.0044 0.00935865 0)
(0.998659 -0.00080768 0)
(1.00549 0.0061492 0)
(1.00528 -0.0210213 0)
(0.983418 -0.00576207 0)
(0.988984 0.0113862 0)
(1.00588 0.00851038 0)
(1.00443 -0.00536602 0)
(0.991927 0.00180255 0)
(0.994985 0.0058232 0)
(1.00121 0.00855002 0)
(1.0049 0.0142473 0)
(1.00761 0.0117828 0)
(1.00859 0.0102143 0)
(1.00891 0.00952431 0)
(1.01121 0.00820017 0)
(1.01013 0.00639089 0)
(1.00756 0.00554579 0)
(1.0057 0.00600242 0)
(1.00616 0.00708691 0)
(1.00519 0.00937718 0)
(0.998905 -0.000811562 0)
(1.00513 0.0058069 0)
(1.00474 -0.0202522 0)
(0.984115 -0.00570213 0)
(0.989022 0.0109353 0)
(1.00585 0.00823498 0)
(1.00455 -0.00495846 0)
(0.992561 0.00174452 0)
(0.994821 0.00580685 0)
(1.00101 0.00829885 0)
(1.00417 0.0138716 0)
(1.00694 0.0117021 0)
(1.00805 0.0100531 0)
(1.00868 0.009514 0)
(1.01103 0.00818619 0)
(1.01014 0.00650856 0)
(1.0077 0.00577278 0)
(1.00604 0.006195 0)
(1.00659 0.00722539 0)
(1.00581 0.00939828 0)
(0.999008 -0.000816331 0)
(1.00498 0.0054701 0)
(1.00414 -0.0194789 0)
(0.984828 -0.00564726 0)
(0.989129 0.0104756 0)
(1.00597 0.00795075 0)
(1.00461 -0.00456186 0)
(0.993164 0.00170676 0)
(0.994614 0.00580533 0)
(1.00087 0.00806041 0)
(1.00355 0.01349 0)
(1.00635 0.011608 0)
(1.0076 0.00987665 0)
(1.00851 0.0094742 0)
(1.01089 0.00816893 0)
(1.01016 0.006602 0)
(1.00784 0.00600064 0)
(1.00632 0.00638929 0)
(1.00695 0.00732505 0)
(1.00629 0.00941987 0)
(0.998988 -0.000823602 0)
(1.00496 0.00514325 0)
(1.00354 -0.0187025 0)
(0.985602 -0.00559621 0)
(0.989268 0.0100062 0)
(1.0061 0.00766187 0)
(1.0046 -0.00417273 0)
(0.993727 0.00168659 0)
(0.994435 0.00581863 0)
(1.00082 0.00782875 0)
(1.00312 0.0131001 0)
(1.00587 0.0115044 0)
(1.00725 0.00968904 0)
(1.00837 0.00940853 0)
(1.01074 0.00815489 0)
(1.01017 0.00667354 0)
(1.00794 0.00621958 0)
(1.00655 0.0065967 0)
(1.00723 0.00739802 0)
(1.00667 0.00942224 0)
(0.998879 -0.000833958 0)
(1.005 0.00482491 0)
(1.00297 -0.0179265 0)
(0.986431 -0.0055479 0)
(0.989438 0.00952852 0)
(1.00616 0.00737027 0)
(1.00453 -0.00378881 0)
(0.994244 0.00168273 0)
(0.994339 0.00584526 0)
(1.00086 0.0076003 0)
(1.00288 0.0126999 0)
(1.00549 0.011394 0)
(1.00698 0.00949304 0)
(1.00824 0.00932007 0)
(1.01058 0.00815471 0)
(1.01015 0.00672783 0)
(1.008 0.00642033 0)
(1.00672 0.00681872 0)
(1.00747 0.00746386 0)
(1.00702 0.00938011 0)
(0.998721 -0.000847169 0)
(1.00505 0.00451397 0)
(1.00247 -0.0171555 0)
(0.987272 -0.00549894 0)
(0.989651 0.00904363 0)
(1.0061 0.00707677 0)
(1.00443 -0.00341858 0)
(0.99471 0.00168887 0)
(0.994352 0.00588211 0)
(1.00095 0.00737332 0)
(1.00281 0.012286 0)
(1.00518 0.0112808 0)
(1.00677 0.00929059 0)
(1.00813 0.00920696 0)
(1.01039 0.00817353 0)
(1.01008 0.0067719 0)
(1.00802 0.00659469 0)
(1.00684 0.00705204 0)
(1.00766 0.00754196 0)
(1.00735 0.00928004 0)
(0.998553 -0.000863255 0)
(1.00507 0.00421623 0)
(1.00206 -0.0163931 0)
(0.988072 -0.00544851 0)
(0.989917 0.00855567 0)
(1.00593 0.00678597 0)
(1.00431 -0.00306192 0)
(0.995124 0.00169573 0)
(0.994463 0.00592911 0)
(1.00108 0.00715041 0)
(1.00287 0.0118531 0)
(1.00492 0.0111726 0)
(1.00658 0.00909055 0)
(1.00802 0.0090636 0)
(1.01016 0.00820523 0)
(1.00997 0.00681391 0)
(1.008 0.00673517 0)
(1.00691 0.00728854 0)
(1.00781 0.00765264 0)
(1.00767 0.00913413 0)
(0.998406 -0.000881955 0)
(1.00503 0.00393027 0)
(1.00176 -0.0156432 0)
(0.988796 -0.00539543 0)
(0.990229 0.00806847 0)
(1.00567 0.00649518 0)
(1.00421 -0.00271004 0)
(0.995493 0.00169681 0)
(0.994647 0.00598432 0)
(1.00123 0.0069408 0)
(1.003 0.0113995 0)
(1.00469 0.011072 0)
(1.00639 0.00890681 0)
(1.00793 0.00888898 0)
(1.00991 0.00824264 0)
(1.00983 0.00686276 0)
(1.00796 0.00683443 0)
(1.00695 0.0075115 0)
(1.0079 0.00781222 0)
(1.00797 0.00897544 0)
(0.998298 -0.000902558 0)
(1.00492 0.00365738 0)
(1.00156 -0.0149076 0)
(0.989436 -0.00533466 0)
(0.990568 0.00758127 0)
(1.00534 0.00620343 0)
(1.0041 -0.0023621 0)
(0.995827 0.00168802 0)
(0.994869 0.00603785 0)
(1.00138 0.00675009 0)
(1.00317 0.0109294 0)
(1.00449 0.0109741 0)
(1.00619 0.00875299 0)
(1.00785 0.00868788 0)
(1.00966 0.00828432 0)
(1.00967 0.00693375 0)
(1.0079 0.00689464 0)
(1.00698 0.00769018 0)
(1.00795 0.00801315 0)
(1.00824 0.00885915 0)
(0.998238 -0.000923836 0)
(1.00475 0.00339449 0)
(1.00146 -0.0141844 0)
(0.990014 -0.00526733 0)
(0.990913 0.0070959 0)
(1.00498 0.00591239 0)
(1.00398 -0.00202459 0)
(0.996138 0.00166567 0)
(0.995099 0.00607935 0)
(1.00154 0.00657751 0)
(1.00335 0.0104438 0)
(1.00432 0.0108668 0)
(1.00596 0.00864145 0)
(1.00777 0.00846671 0)
(1.00941 0.00831763 0)
(1.00948 0.00703719 0)
(1.00784 0.00693766 0)
(1.007 0.00780259 0)
(1.00796 0.00821273 0)
(1.00844 0.00883202 0)
(0.998221 -0.000946872 0)
(1.00453 0.00314289 0)
(1.00141 -0.013477 0)
(0.990559 -0.00519328 0)
(0.991247 0.00661885 0)
(1.0046 0.00561872 0)
(1.00384 -0.00170032 0)
(0.996437 0.00163252 0)
(0.995318 0.00610386 0)
(1.0017 0.00642785 0)
(1.00354 0.00994125 0)
(1.00417 0.0107331 0)
(1.00571 0.00857311 0)
(1.00771 0.00823845 0)
(1.00918 0.00832557 0)
(1.00929 0.00716599 0)
(1.00777 0.00698638 0)
(1.00704 0.00786492 0)
(1.00796 0.00836546 0)
(1.00859 0.00888267 0)
(0.998241 -0.000971015 0)
(1.00427 0.00290205 0)
(1.00138 -0.0127857 0)
(0.9911 -0.00510909 0)
(0.991568 0.00614703 0)
(1.00423 0.00531827 0)
(1.00368 -0.00137716 0)
(0.996727 0.0016018 0)
(0.995517 0.00610736 0)
(1.00184 0.00631247 0)
(1.00372 0.00943217 0)
(1.00404 0.0105672 0)
(1.00544 0.00853773 0)
(1.00764 0.00801491 0)
(1.00898 0.00830579 0)
(1.0091 0.00731046 0)
(1.00771 0.00704011 0)
(1.00708 0.00790393 0)
(1.00796 0.00846487 0)
(1.00868 0.00895238 0)
(0.998288 -0.00099473 0)
(1.004 0.00266796 0)
(1.00134 -0.0121092 0)
(0.991651 -0.00501723 0)
(0.991878 0.00568013 0)
(1.00387 0.00501202 0)
(1.0035 -0.00106035 0)
(0.997009 0.0015766 0)
(0.995699 0.00608081 0)
(1.00196 0.00623023 0)
(1.00389 0.00893339 0)
(1.00393 0.0103749 0)
(1.00517 0.00853176 0)
(1.00757 0.00780175 0)
(1.00882 0.00826176 0)
(1.0089 0.00747248 0)
(1.00764 0.00709114 0)
(1.00713 0.00791719 0)
(1.00797 0.00853811 0)
(1.00875 0.00899573 0)
(0.998354 -0.00101792 0)
(1.00372 0.00244152 0)
(1.00127 -0.0114477 0)
(0.992215 -0.00492546 0)
(0.992186 0.00523375 0)
(1.00353 0.00469407 0)
(1.0033 -0.000765762 0)
(0.997281 0.0015573 0)
(0.995866 0.00601966 0)
(1.00206 0.00616544 0)
(1.00406 0.00845198 0)
(1.00385 0.0101518 0)
(1.00488 0.00855186 0)
(1.00748 0.00760303 0)
(1.0087 0.00818778 0)
(1.00871 0.00765529 0)
(1.00756 0.0071578 0)
(1.00718 0.00788599 0)
(1.00799 0.00860483 0)
(1.00879 0.00902828 0)
(0.998432 -0.00103904 0)
(1.00344 0.00222257 0)
(1.00118 -0.0107928 0)
(0.992785 -0.00483871 0)
(0.992494 0.00481154 0)
(1.0032 0.00436287 0)
(1.00309 -0.000490869 0)
(0.99754 0.00154797 0)
(0.996026 0.00592651 0)
(1.00212 0.00610469 0)
(1.00422 0.00799124 0)
(1.00378 0.0098903 0)
(1.00459 0.00859079 0)
(1.00737 0.0074262 0)
(1.00861 0.0080691 0)
(1.00851 0.00784304 0)
(1.00746 0.00726895 0)
(1.00723 0.00780722 0)
(1.00802 0.0086348 0)
(1.0088 0.00908029 0)
(0.998515 -0.00105909 0)
(1.00316 0.00201219 0)
(1.00106 -0.0101436 0)
(0.993352 -0.00476804 0)
(0.992804 0.00441546 0)
(1.00289 0.00403367 0)
(1.00289 -0.000237917 0)
(0.997784 0.00155506 0)
(0.99618 0.00581055 0)
(1.00215 0.00604415 0)
(1.00437 0.00755628 0)
(1.00374 0.00958972 0)
(1.00428 0.00864022 0)
(1.00723 0.00728749 0)
(1.00856 0.00790124 0)
(1.00834 0.00800642 0)
(1.00732 0.00744296 0)
(1.00727 0.00771812 0)
(1.00808 0.00858523 0)
(1.0088 0.0091513 0)
(0.998601 -0.00107445 0)
(1.00288 0.00179801 0)
(1.00092 -0.00949292 0)
(0.993908 -0.00471933 0)
(0.993115 0.00404911 0)
(1.00259 0.00371156 0)
(1.00268 -1.89724e-05 0)
(0.998013 0.00158557 0)
(0.99633 0.00568033 0)
(1.00216 0.00598467 0)
(1.0045 0.0071568 0)
(1.00371 0.00925644 0)
(1.00398 0.0086878 0)
(1.00705 0.00719843 0)
(1.00853 0.00769779 0)
(1.00819 0.00811693 0)
(1.00716 0.00767097 0)
(1.00728 0.00767289 0)
(1.00815 0.00845406 0)
(1.00881 0.00919331 0)
(0.998684 -0.00108387 0)
(1.00262 0.0015839 0)
(1.00076 -0.00883474 0)
(0.994445 -0.00469559 0)
(0.993425 0.00370774 0)
(1.00231 0.00340393 0)
(1.00248 0.000169057 0)
(0.998226 0.00163386 0)
(0.996476 0.00553877 0)
(1.00213 0.0059179 0)
(1.00462 0.00679571 0)
(1.00372 0.0089012 0)
(1.00367 0.00872525 0)
(1.00683 0.0071581 0)
(1.00851 0.00747189 0)
(1.00809 0.00815218 0)
(1.00696 0.00791745 0)
(1.00723 0.00769961 0)
(1.00824 0.00828231 0)
(1.00884 0.00915011 0)
(0.998765 -0.00108719 0)
(1.00237 0.00136539 0)
(1.00059 -0.00817085 0)
(0.99496 -0.00469871 0)
(0.993735 0.00337822 0)
(1.00203 0.00311946 0)
(1.00229 0.000312787 0)
(0.998422 0.00168419 0)
(0.996616 0.00539955 0)
(1.00208 0.00583737 0)
(1.00471 0.00645747 0)
(1.00375 0.00852247 0)
(1.00336 0.00874586 0)
(1.00656 0.00716892 0)
(1.00849 0.00724177 0)
(1.00804 0.00810669 0)
(1.00677 0.008155 0)
(1.00712 0.0078014 0)
(1.00831 0.0081271 0)
(1.0089 0.0090196 0)
(0.998841 -0.00108244 0)
(1.00212 0.00113566 0)
(1.00042 -0.00750523 0)
(0.995449 -0.00471614 0)
(0.994044 0.00305369 0)
(1.00175 0.00287002 0)
(1.0021 0.000406542 0)
(0.998606 0.00172048 0)
(0.996747 0.00526665 0)
(1.00201 0.00575149 0)
(1.00477 0.00613822 0)
(1.0038 0.00812017 0)
(1.00307 0.00873906 0)
(1.00624 0.00722995 0)
(1.00844 0.00702627 0)
(1.00803 0.00797426 0)
(1.00659 0.00835554 0)
(1.00694 0.00796243 0)
(1.00833 0.00801437 0)
(1.009 0.00882345 0)
(0.998913 -0.00106922 0)
(1.0019 0.00089267 0)
(1.00024 -0.0068362 0)
(0.995909 -0.00472645 0)
(0.994355 0.00272424 0)
(1.00149 0.00266574 0)
(1.00191 0.000474431 0)
(0.998778 0.00173773 0)
(0.996873 0.00513513 0)
(1.00191 0.00567237 0)
(1.0048 0.00584654 0)
(1.00389 0.00769558 0)
(1.00282 0.00868953 0)
(1.00587 0.0073347 0)
(1.00835 0.00685234 0)
(1.00807 0.00776063 0)
(1.00644 0.00848994 0)
(1.00671 0.00817075 0)
(1.00828 0.00795964 0)
(1.00911 0.00858416 0)
(0.99898 -0.00104439 0)
(1.00169 0.000633555 0)
(1.00005 -0.00617416 0)
(0.996337 -0.00471195 0)
(0.994667 0.00237282 0)
(1.00123 0.00250241 0)
(1.00173 0.000529001 0)
(0.998941 0.00173655 0)
(0.996994 0.00500203 0)
(1.00178 0.00560214 0)
(1.0048 0.00558837 0)
(1.00399 0.00724964 0)
(1.0026 0.00858297 0)
(1.00546 0.0074708 0)
(1.0082 0.00674943 0)
(1.00814 0.00749122 0)
(1.00636 0.00852562 0)
(1.00645 0.00840284 0)
(1.00815 0.00798532 0)
(1.0092 0.00833222 0)
(0.999042 -0.00101046 0)
(1.00149 0.00036395 0)
(0.999864 -0.00553136 0)
(0.996729 -0.00466262 0)
(0.994985 0.00198706 0)
(1.00098 0.00236966 0)
(1.00153 0.000575508 0)
(0.999094 0.00170764 0)
(0.997115 0.00486304 0)
(1.00164 0.00554238 0)
(1.00475 0.00537562 0)
(1.00411 0.00679139 0)
(1.00245 0.00841098 0)
(1.00504 0.00761135 0)
(1.00798 0.00672514 0)
(1.00821 0.00720556 0)
(1.00634 0.00844072 0)
(1.00618 0.00860297 0)
(1.00791 0.0080957 0)
(1.00924 0.00812049 0)
(0.999101 -0.000967138 0)
(1.00132 8.73319e-05 0)
(0.999682 -0.00492104 0)
(0.997081 -0.0045587 0)
(0.995308 0.00156159 0)
(1.00074 0.00224863 0)
(1.00134 0.000630102 0)
(0.999238 0.00164318 0)
(0.997239 0.00470826 0)
(1.00148 0.00549132 0)
(1.00465 0.00521551 0)
(1.00423 0.00634161 0)
(1.00235 0.00817242 0)
(1.00462 0.0077242 0)
(1.00769 0.00676594 0)
(1.00826 0.00695311 0)
(1.0064 0.00825793 0)
(1.00594 0.0087224 0)
(1.00759 0.00825483 0)
(1.00917 0.00800353 0)
(0.999156 -0.000916101 0)
(1.00117 -0.000185539 0)
(0.999509 -0.00435838 0)
(0.997388 -0.00438984 0)
(0.995634 0.00111543 0)
(1.00054 0.00212482 0)
(1.00113 0.000706867 0)
(0.999368 0.00155577 0)
(0.997371 0.00452742 0)
(1.00132 0.0054387 0)
(1.00452 0.00510547 0)
(1.00434 0.00593106 0)
(1.00231 0.00787963 0)
(1.00423 0.00778514 0)
(1.00733 0.00684117 0)
(1.00827 0.00675345 0)
(1.00651 0.00801129 0)
(1.00576 0.00874322 0)
(1.00722 0.00839676 0)
(1.00899 0.00798445 0)
(0.999208 -0.000859942 0)
(1.00104 -0.000451527 0)
(0.999351 -0.00384536 0)
(0.997648 -0.00415788 0)
(0.99596 0.000667827 0)
(1.00036 0.00197895 0)
(1.00092 0.000819619 0)
(0.999483 0.00148113 0)
(0.997512 0.00432006 0)
(1.00115 0.00537311 0)
(1.00433 0.00504224 0)
(1.00443 0.00557411 0)
(1.00232 0.00754505 0)
(1.00386 0.00778261 0)
(1.00692 0.00693015 0)
(1.00822 0.00661289 0)
(1.00665 0.00772971 0)
(1.00565 0.00867774 0)
(1.00685 0.00848676 0)
(1.0087 0.00801415 0)
(0.999256 -0.00079827 0)
(1.00093 -0.00070265 0)
(0.999215 -0.00340356 0)
(0.997862 -0.00386548 0)
(0.99628 0.000251639 0)
(1.00022 0.00179139 0)
(1.00071 0.000955485 0)
(0.999576 0.00143456 0)
(0.997662 0.00409218 0)
(1.00101 0.00527565 0)
(1.00412 0.00502724 0)
(1.0045 0.00528428 0)
(1.00238 0.00718179 0)
(1.00355 0.00770566 0)
(1.00648 0.00701005 0)
(1.0081 0.00653039 0)
(1.00681 0.00742975 0)
(1.00561 0.00852712 0)
(1.00648 0.00852943 0)
(1.00834 0.00803983 0)
(0.999303 -0.00073564 0)
(1.00084 -0.000928911 0)
(0.999106 -0.0030386 0)
(0.998037 -0.00352758 0)
(0.996584 -0.000102163 0)
(1.00013 0.00155947 0)
(1.00051 0.00109776 0)
(0.999646 0.00141974 0)
(0.997818 0.00385817 0)
(1.00088 0.00513136 0)
(1.00387 0.00502908 0)
(1.00452 0.00507254 0)
(1.00247 0.0068185 0)
(1.00329 0.00755819 0)
(1.00603 0.00705227 0)
(1.0079 0.0064895 0)
(1.00694 0.00713499 0)
(1.00563 0.00828076 0)
(1.00615 0.00852546 0)
(1.00794 0.00804397 0)
(0.999347 -0.000675917 0)
(1.00076 -0.00112559 0)
(0.999029 -0.00274486 0)
(0.998177 -0.00315894 0)
(0.996866 -0.000386377 0)
(1.00009 0.00128101 0)
(1.00034 0.00123093 0)
(0.999692 0.00146078 0)
(0.997975 0.00364039 0)
(1.00078 0.00493999 0)
(1.00362 0.00500153 0)
(1.00451 0.00492399 0)
(1.00257 0.00648041 0)
(1.00309 0.00736245 0)
(1.00558 0.00704238 0)
(1.00764 0.00645998 0)
(1.00704 0.00688227 0)
(1.00572 0.00796374 0)
(1.00587 0.00846027 0)
(1.00751 0.00804055 0)
(0.99939 -0.000621476 0)
(1.0007 -0.00128157 0)
(0.998988 -0.00253263 0)
(0.998292 -0.0027793 0)
(0.997117 -0.000581986 0)
(1.00008 0.000970807 0)
(1.0002 0.00132182 0)
(0.999721 0.00155619 0)
(0.99812 0.00346418 0)
(1.00071 0.00471632 0)
(1.00337 0.0049385 0)
(1.00446 0.00480731 0)
(1.00268 0.00617308 0)
(1.00294 0.00713615 0)
(1.00516 0.00698397 0)
(1.00733 0.00641288 0)
(1.00707 0.00667803 0)
(1.00586 0.00762269 0)
(1.00567 0.00831625 0)
(1.00708 0.00802998 0)
(0.999433 -0.000576189 0)
(1.00065 -0.0013935 0)
(0.998981 -0.00238974 0)
(0.998394 -0.00241042 0)
(0.997331 -0.000689038 0)
(1.00011 0.000662898 0)
(1.00011 0.00135229 0)
(0.999742 0.00167869 0)
(0.998247 0.00334012 0)
(1.00067 0.00447949 0)
(1.00314 0.00483966 0)
(1.00438 0.00470007 0)
(1.00278 0.00589101 0)
(1.00283 0.00689126 0)
(1.00476 0.00690337 0)
(1.007 0.00635529 0)
(1.00706 0.00650633 0)
(1.00601 0.00729008 0)
(1.00555 0.00809145 0)
(1.00667 0.00798274 0)
(0.999475 -0.000540988 0)
(1.0006 -0.00146162 0)
(0.999009 -0.00230502 0)
(0.99849 -0.00207277 0)
(0.997506 -0.000705682 0)
(1.00017 0.000384784 0)
(1.00007 0.0013023 0)
(0.999767 0.00180112 0)
(0.998351 0.00328558 0)
(1.00063 0.00426385 0)
(1.00293 0.00469943 0)
(1.00429 0.00459216 0)
(1.00288 0.00563343 0)
(1.00277 0.00663248 0)
(1.00439 0.00680802 0)
(1.00664 0.00630394 0)
(1.00698 0.00635945 0)
(1.00615 0.00697746 0)
(1.00552 0.00781291 0)
(1.00631 0.00787879 0)
(0.999516 -0.000519108 0)
(1.00056 -0.00147646 0)
(0.999065 -0.00225823 0)
(0.998593 -0.00180363 0)
(0.997646 -0.000652383 0)
(1.00023 0.000155147 0)
(1.00009 0.00116902 0)
(0.99982 0.00188214 0)
(0.998438 0.00329553 0)
(1.00059 0.00409524 0)
(1.00274 0.00453767 0)
(1.0042 0.00446326 0)
(1.00297 0.00539551 0)
(1.00274 0.00636587 0)
(1.00406 0.00668684 0)
(1.00628 0.00624832 0)
(1.00686 0.00623697 0)
(1.00628 0.00668863 0)
(1.00555 0.00750606 0)
(1.00602 0.00771379 0)
(0.999558 -0.000514028 0)
(1.00052 -0.00146841 0)
(0.999139 -0.0022262 0)
(0.998709 -0.00158167 0)
(0.997758 -0.000532748 0)
(1.00028 8.69488e-06 0)
(1.00015 0.00099992 0)
(0.999917 0.00191165 0)
(0.998518 0.00334376 0)
(1.00054 0.00398137 0)
(1.00256 0.00438942 0)
(1.00411 0.00431248 0)
(1.00306 0.0051615 0)
(1.00276 0.00609805 0)
(1.00379 0.0065397 0)
(1.00592 0.00616946 0)
(1.00669 0.00612875 0)
(1.00636 0.00642638 0)
(1.00562 0.00718015 0)
(1.00583 0.00747978 0)
(0.999597 -0.000496957 0)
(1.00048 -0.00141144 0)
(0.999235 -0.00222935 0)
(0.998846 -0.00146252 0)
(0.99785 -0.000395252 0)
(1.00031 -7.36463e-05 0)
(1.00025 0.000811412 0)
(1.00007 0.00186048 0)
(0.998605 0.00338546 0)
(1.00048 0.00391677 0)
(1.00238 0.00426154 0)
(1.00402 0.00416188 0)
(1.00315 0.00492219 0)
(1.00281 0.00581765 0)
(1.00356 0.00637457 0)
(1.00557 0.00607085 0)
(1.00648 0.00602037 0)
(1.00641 0.00619831 0)
(1.0057 0.00686369 0)
(1.00572 0.0072014 0)
(0.99964 -0.000542627 0)
(1.00042 -0.00132001 0)
(0.99932 -0.00213524 0)
(0.999005 -0.00138289 0)
(0.997939 -0.000264884 0)
(1.00031 -6.09097e-05 0)
(1.00035 0.000662201 0)
(1.00027 0.00172851 0)
(0.998721 0.00340021 0)
(1.00041 0.0038964 0)
(1.00219 0.00416412 0)
(1.00391 0.00403064 0)
(1.00324 0.00469824 0)
(1.0029 0.00552051 0)
(1.00338 0.00618651 0)
(1.00524 0.00596546 0)
(1.00626 0.00590579 0)
(1.00641 0.00599172 0)
(1.00578 0.00656897 0)
(1.00567 0.00690503 0)
(0.999674 -0.000524132 0)
(1.00039 -0.00128232 0)
(0.99941 -0.0021789 0)
(0.999168 -0.0013538 0)
(0.998031 -7.89124e-05 0)
(1.0003 5.40013e-05 0)
(1.00044 0.000573918 0)
(1.00051 0.00152085 0)
(0.998881 0.00333284 0)
(1.00033 0.00387351 0)
(1.00199 0.00409202 0)
(1.00379 0.00390556 0)
(1.0033 0.0044953 0)
(1.00301 0.00522157 0)
(1.00326 0.00596031 0)
(1.00493 0.00584575 0)
(1.006 0.00579104 0)
(1.00637 0.0057922 0)
(1.00585 0.00629149 0)
(1.00565 0.00661309 0)
(0.999717 -0.000552674 0)
(1.00032 -0.00119008 0)
(0.999495 -0.00209713 0)
(0.999398 -0.00134721 0)
(0.998154 8.30638e-05 0)
(1.00026 0.00020988 0)
(1.00049 0.00057076 0)
(1.00077 0.00130913 0)
(0.999103 0.00316825 0)
(1.00028 0.00383196 0)
(1.00179 0.00405412 0)
(1.00366 0.00380061 0)
(1.00336 0.00431024 0)
(1.00315 0.00494224 0)
(1.00321 0.00571276 0)
(1.00468 0.00569663 0)
(1.00574 0.00567965 0)
(1.00629 0.00560562 0)
(1.00591 0.00602266 0)
(1.00566 0.00633126 0)
(0.999744 -0.000577408 0)
(1.00029 -0.00107443 0)
(0.999558 -0.00192375 0)
(0.999593 -0.00137207 0)
(0.998291 0.000110351 0)
(1.00021 0.000338284 0)
(1.0005 0.000624265 0)
(1.00101 0.0011295 0)
(0.999368 0.00291512 0)
(1.00028 0.00372996 0)
(1.00157 0.00401933 0)
(1.0035 0.00371563 0)
(1.00339 0.00413268 0)
(1.00328 0.0046655 0)
(1.0032 0.00544987 0)
(1.00446 0.00550688 0)
(1.00548 0.00554571 0)
(1.00617 0.00542763 0)
(1.00595 0.00574584 0)
(1.00568 0.00603578 0)
(0.99978 -0.000562439 0)
(1.00023 -0.000990539 0)
(0.999593 -0.00179217 0)
(0.999803 -0.00136643 0)
(0.998459 0.000105385 0)
(1.00017 0.00044379 0)
(1.00048 0.000712532 0)
(1.00121 0.00100176 0)
(0.999661 0.00262906 0)
(1.00033 0.00355625 0)
(1.00137 0.00396524 0)
(1.00331 0.00364597 0)
(1.00339 0.00397506 0)
(1.00341 0.00439176 0)
(1.00322 0.00517802 0)
(1.00429 0.00530436 0)
(1.00522 0.00538911 0)
(1.00601 0.00526648 0)
(1.00595 0.00548688 0)
(1.00571 0.00573095 0)
(0.999802 -0.000566084 0)
(1.00021 -0.000916554 0)
(0.99962 -0.00158997 0)
(0.999975 -0.00134035 0)
(0.99863 6.9029e-05 0)
(1.00015 0.000521362 0)
(1.00042 0.000828352 0)
(1.00136 0.000949157 0)
(0.999956 0.00237032 0)
(1.00044 0.00333355 0)
(1.0012 0.00389126 0)
(1.0031 0.00358466 0)
(1.00334 0.00384902 0)
(1.00352 0.00413944 0)
(1.00328 0.00488772 0)
(1.00415 0.00508462 0)
(1.00499 0.00520923 0)
(1.00582 0.0050968 0)
(1.0059 0.00525628 0)
(1.00574 0.00542316 0)
(0.999827 -0.000565408 0)
(1.00016 -0.000808139 0)
(0.999619 -0.00138567 0)
(1.00013 -0.00131055 0)
(0.998822 6.28213e-06 0)
(1.00015 0.000565199 0)
(1.00035 0.00093689 0)
(1.00146 0.000949731 0)
(1.00023 0.00214826 0)
(1.00058 0.00306989 0)
(1.00107 0.00377746 0)
(1.00289 0.00351944 0)
(1.00324 0.00374371 0)
(1.00358 0.00393803 0)
(1.00335 0.00460858 0)
(1.00406 0.00485359 0)
(1.00477 0.00503782 0)
(1.00562 0.00492981 0)
(1.0058 0.00507197 0)
(1.00574 0.00515495 0)
(0.999844 -0.000531699 0)
(1.00017 -0.000800337 0)
(0.999601 -0.00123269 0)
(1.00023 -0.0011977 0)
(0.999006 -1.39853e-05 0)
(1.00017 0.000585028 0)
(1.00028 0.00103228 0)
(1.0015 0.000987998 0)
(1.00045 0.00197945 0)
(1.00076 0.00280425 0)
(1.00099 0.00362191 0)
(1.00267 0.00344534 0)
(1.00313 0.00363631 0)