/*--------------------------------*- C++ -*----------------------------------*\
| =========                 |                                                 |
| \\      /  F ield         | OpenFOAM: The Open Source CFD Toolbox           |
|  \\    /   O peration     | Version:  v1906                                 |
|   \\  /    A nd           | Web:      www.OpenFOAM.com                      |
|    \\/     M anipulation  |                                                 |
\*---------------------------------------------------------------------------*/
FoamFile
{
    version     2.0;
    format      ascii;
    class       surfaceScalarField;
    location    "4.6";
    object      phi;
}
// * * * * * * * * * * * * * * * * * * * * * * * * * * * * * * * * * * * * * //

dimensions      [0 3 -1 0 0 0 0];
oriented        oriented;


internalField   nonuniform List<scalar> 
19000
(
1.15426e-06
5.4903e-08
1.11851e-06
2.59508e-07
1.22171e-06
-2.04409e-06
1.31231e-06
-4.1363e-07
1.19906e-06
7.59954e-07
1.10881e-06
1.15716e-06
1.14095e-06
-7.48386e-07
1.15215e-06
-8.58639e-07
1.21623e-06
-1.45529e-06
1.20228e-06
-6.54549e-07
1.19181e-06
-3.02388e-07
1.21947e-06
1.56378e-07
1.21661e-06
-2.34412e-08
1.21767e-06
2.453e-07
1.20373e-06
7.20251e-08
1.19599e-06
1.66598e-07
1.18267e-06
2.51192e-08
1.17076e-06
4.71748e-08
1.16676e-06
3.14457e-08
6.28429e-08
1.13741e-06
1.20712e-06
7.20429e-08
1.17438e-06
2.92245e-07
1.28251e-06
-2.15222e-06
1.37886e-06
-5.09981e-07
1.25489e-06
8.83928e-07
1.19899e-06
1.21306e-06
1.22176e-06
-7.71156e-07
1.22455e-06
-8.61432e-07
1.29079e-06
-1.52152e-06
1.27355e-06
-6.37307e-07
1.25792e-06
-2.86761e-07
1.29021e-06
1.24091e-07
1.28212e-06
-1.53518e-08
1.29372e-06
2.33699e-07
1.26847e-06
9.7278e-08
1.27497e-06
1.6009e-07
1.24353e-06
5.65612e-08
1.25016e-06
4.05506e-08
1.218e-06
6.36019e-08
5.49334e-08
1.22591e-06
1.26108e-06
9.37417e-08
1.23256e-06
3.20771e-07
1.3386e-06
-2.25826e-06
1.44805e-06
-6.19435e-07
1.32684e-06
1.00514e-06
1.29764e-06
1.24226e-06
1.30524e-06
-7.78761e-07
1.29857e-06
-8.54761e-07
1.35633e-06
-1.57928e-06
1.35242e-06
-6.33391e-07
1.32686e-06
-2.612e-07
1.3666e-06
8.43431e-08
1.35327e-06
-2.01547e-09
1.372e-06
2.14971e-07
1.34262e-06
1.26658e-07
1.34957e-06
1.53137e-07
1.3197e-06
8.64348e-08
1.31627e-06
4.39716e-08
1.29447e-06
8.54082e-08
6.84173e-08
1.28098e-06
1.31741e-06
1.20431e-07
1.29414e-06
3.44043e-07
1.38736e-06
-2.35148e-06
1.51238e-06
-7.44453e-07
1.41354e-06
1.10398e-06
1.40397e-06
1.25183e-06
1.39079e-06
-7.65577e-07
1.37257e-06
-8.36547e-07
1.41069e-06
-1.6174e-06
1.42339e-06
-6.46092e-07
1.39594e-06
-2.33752e-07
1.43499e-06
4.52932e-08
1.42759e-06
5.3838e-09
1.44392e-06
1.9864e-07
1.42321e-06
1.47367e-07
1.42209e-06
1.54265e-07
1.40081e-06
1.07713e-07
1.38794e-06
5.68388e-08
1.37056e-06
1.02788e-07
8.74343e-08
1.35154e-06
1.37783e-06
1.50955e-07
1.35837e-06
3.63503e-07
1.42798e-06
-2.4211e-06
1.56531e-06
-8.81779e-07
1.51113e-06
1.15816e-06
1.5137e-06
1.24926e-06
1.47784e-06
-7.29716e-07
1.44427e-06
-8.0298e-07
1.45605e-06
-1.62918e-06
1.48029e-06
-6.70328e-07
1.46323e-06
-2.16698e-07
1.49676e-06
1.17701e-08
1.50145e-06
6.90486e-10
1.51523e-06
1.84864e-07
1.5045e-06
1.58096e-07
1.49904e-06
1.5972e-07
1.48176e-06
1.24991e-07
1.46584e-06
7.27677e-08
1.44766e-06
1.20967e-07
1.07908e-07
1.42718e-06
1.44481e-06
1.81823e-07
1.42514e-06
3.83167e-07
1.46386e-06
-2.45981e-06
1.60676e-06
-1.02468e-06
1.61295e-06
1.15196e-06
1.62324e-06
1.23897e-06
1.56729e-06
-6.73769e-07
1.51598e-06
-7.51665e-07
1.50057e-06
-1.61377e-06
1.52869e-06
-6.98444e-07
1.52849e-06
-2.16498e-07
1.55853e-06
-1.82692e-08
1.57348e-06
-1.4261e-08
1.5886e-06
1.6974e-07
1.58471e-06
1.61995e-07
1.57885e-06
1.65578e-07
1.56274e-06
1.41099e-07
1.5456e-06
8.99082e-08
1.52686e-06
1.3971e-07
1.29821e-07
1.50494e-06
1.52034e-06
2.07704e-07
1.49619e-06
4.07311e-07
1.50262e-06
-2.46623e-06
1.64337e-06
-1.16543e-06
1.71158e-06
1.08376e-06
1.7287e-06
1.22185e-06
1.65815e-06
-6.03226e-07
1.59076e-06
-6.84276e-07
1.55154e-06
-1.57455e-06
1.57762e-06
-7.24519e-07
1.59282e-06
-2.31702e-07
1.62398e-06
-4.94335e-08
1.64519e-06
-3.54721e-08
1.66356e-06
1.51378e-07
1.6641e-06
1.61451e-07
1.65918e-06
1.70503e-07
1.6436e-06
1.56677e-07
1.62537e-06
1.0814e-07
1.60667e-06
1.58404e-07
1.52622e-07
1.58387e-06
1.60435e-06
2.23483e-07
1.57443e-06
4.37234e-07
1.55269e-06
-2.4445e-06
1.68399e-06
-1.29673e-06
1.80153e-06
9.66215e-07
1.82598e-06
1.1974e-06
1.74729e-06
-5.24531e-07
1.66955e-06
-6.06542e-07
1.61186e-06
-1.51686e-06
1.63268e-06
-7.45337e-07
1.65798e-06
-2.56998e-07
1.69296e-06
-8.44144e-08
1.71793e-06
-6.04435e-08
1.73922e-06
1.30093e-07
1.74269e-06
1.57974e-07
1.73873e-06
1.74465e-07
1.72369e-06
1.71721e-07
1.70446e-06
1.27364e-07
1.68607e-06
1.76802e-07
1.75532e-07
1.66316e-06
1.69437e-06
2.26684e-07
1.66177e-06
4.69833e-07
1.61863e-06
-2.40135e-06
1.73428e-06
-1.41238e-06
1.88092e-06
8.1958e-07
1.91218e-06
1.16613e-06
1.83142e-06
-4.43762e-07
1.75132e-06
-5.26449e-07
1.68132e-06
-1.44685e-06
1.69555e-06
-7.59569e-07
1.7252e-06
-2.86649e-07
1.7634e-06
-1.22609e-07
1.7908e-06
-8.78484e-08
1.81425e-06
1.06644e-07
1.81978e-06
1.52442e-07
1.81654e-06
1.77711e-07
1.80228e-06
1.85979e-07
1.78248e-06
1.47163e-07
1.76464e-06
1.94642e-07
1.97756e-07
1.74241e-06
1.78691e-06
2.18498e-07
1.75756e-06
4.9918e-07
1.69968e-06
-2.34347e-06
1.79485e-06
-1.50755e-06
1.95043e-06
6.64004e-07
1.98646e-06
1.13009e-06
1.90895e-06
-3.66244e-07
1.83461e-06
-4.52114e-07
1.75875e-06
-1.371e-06
1.76609e-06
-7.6691e-07
1.79499e-06
-3.15547e-07
1.83339e-06
-1.61003e-07
1.86177e-06
-1.16232e-07
1.88682e-06
8.15897e-08
1.89429e-06
1.44973e-07
1.89187e-06
1.80129e-07
1.87895e-06
1.98906e-07
1.85936e-06
1.66748e-07
1.84251e-06
2.11491e-07
2.18487e-07
1.82178e-06
1.87947e-06
2.02778e-07
1.85888e-06
5.19771e-07
1.792e-06
-2.2766e-06
1.86329e-06
-1.57884e-06
2.01174e-06
5.15549e-07
2.05026e-06
1.09157e-06
1.98068e-06
-2.96664e-07
1.91861e-06
-3.90047e-07
1.84301e-06
-1.2954e-06
1.84394e-06
-7.6783e-07
1.86794e-06
-3.3955e-07
1.90272e-06
-1.9578e-07
1.92999e-06
-1.43507e-07
1.95593e-06
5.56501e-08
1.9657e-06
1.35199e-07
1.96477e-06
1.81065e-07
1.95406e-06
2.09618e-07
1.9358e-06
1.85004e-07
1.92052e-06
2.26767e-07
2.37012e-07
1.902e-06
1.97165e-06
1.83968e-07
1.96241e-06
5.29012e-07
1.89158e-06
-2.20577e-06
1.93746e-06
-1.62472e-06
2.06779e-06
3.85214e-07
2.10753e-06
1.05184e-06
2.04969e-06
-2.38827e-07
2.00358e-06
-3.43936e-07
1.93304e-06
-1.22486e-06
1.92879e-06
-7.63575e-07
1.94531e-06
-3.56069e-07
1.9734e-06
-2.23874e-07
1.99724e-06
-1.67343e-07
2.02278e-06
3.01104e-08
2.03503e-06
1.22943e-07
2.03642e-06
1.79682e-07
2.02892e-06
2.17117e-07
2.01325e-06
2.00675e-07
2.00016e-06
2.39857e-07
2.52807e-07
1.98436e-06
2.06473e-06
1.65424e-07
2.06622e-06
5.27521e-07
1.99553e-06
-2.13507e-06
2.0172e-06
-1.64639e-06
2.12376e-06
2.78658e-07
2.16451e-06
1.01109e-06
2.12046e-06
-1.94781e-07
2.09071e-06
-3.14179e-07
2.0279e-06
-1.16206e-06
2.02029e-06
-7.55966e-07
2.02879e-06
-3.64564e-07
2.04886e-06
-2.43952e-07
2.06747e-06
-1.85949e-07
2.09082e-06
6.75754e-09
2.105e-06
1.08764e-07
2.10913e-06
1.75557e-07
2.10549e-06
2.2075e-07
2.09346e-06
2.12712e-07
2.08307e-06
2.50243e-07
2.65573e-07
2.07031e-06
2.16056e-06
1.48869e-07
2.17031e-06
5.17764e-07
2.10236e-06
-2.06712e-06
2.10381e-06
-1.64784e-06
2.18617e-06
1.963e-07
2.22801e-06
9.6925e-07
2.19734e-06
-1.64106e-07
2.18159e-06
-2.98429e-07
2.12691e-06
-1.10738e-06
2.11786e-06
-7.46918e-07
2.11969e-06
-3.66392e-07
2.13226e-06
-2.56524e-07
2.14498e-06
-1.9867e-07
2.16439e-06
-1.26538e-08
2.17917e-06
9.39824e-08
2.1857e-06
1.69026e-07
2.18583e-06
2.20625e-07
2.1779e-06
2.20642e-07
2.17049e-06
2.57652e-07
2.75228e-07
2.16084e-06
2.26061e-06
1.34742e-07
2.27594e-06
5.02442e-07
2.21171e-06
-2.00289e-06
2.1985e-06
-1.63463e-06
2.26018e-06
1.34612e-07
2.30291e-06
9.26519e-07
2.28309e-06
-1.44287e-07
2.27763e-06
-2.92961e-07
2.22982e-06
-1.05957e-06
2.22078e-06
-7.37876e-07
2.21834e-06
-3.63949e-07
2.22508e-06
-2.6327e-07
2.23247e-06
-2.06057e-07
2.24687e-06
-2.70525e-08
2.26064e-06
8.02073e-08
2.26858e-06
1.61084e-07
2.27156e-06
2.1765e-07
2.26748e-06
2.24724e-07
2.26298e-06
2.62152e-07
2.81884e-07
2.25632e-06
2.36579e-06
1.22829e-07
2.38463e-06
4.83597e-07
2.3239e-06
-1.94216e-06
2.30143e-06
-1.61216e-06
2.34761e-06
8.84293e-08
2.39079e-06
8.83335e-07
2.37853e-06
-1.32026e-07
2.3797e-06
-2.94125e-07
2.33685e-06
-1.01673e-06
2.32848e-06
-7.295e-07
2.32417e-06
-3.59638e-07
2.32702e-06
-2.66125e-07
2.33037e-06
-2.09402e-07
2.3397e-06
-3.63811e-08
2.35119e-06
6.87176e-08
2.35933e-06
1.5294e-07
2.3638e-06
2.13183e-07
2.36272e-06
2.25798e-07
2.36077e-06
2.64107e-07
2.8584e-07
2.35681e-06
2.4765e-06
1.12728e-07
2.49761e-06
4.62481e-07
2.43962e-06
-1.88416e-06
2.41191e-06
-1.58444e-06
2.44734e-06
5.29959e-08
2.49059e-06
8.40084e-07
2.48307e-06
-1.24507e-07
2.48814e-06
-2.99193e-07
2.44854e-06
-9.77128e-07
2.44077e-06
-7.21728e-07
2.4363e-06
-3.55166e-07
2.4368e-06
-2.66635e-07
2.43755e-06
-2.10144e-07
2.4426e-06
-4.14325e-08
2.45122e-06
6.00969e-08
2.45862e-06
1.45538e-07
2.46329e-06
2.08513e-07
2.46413e-06
2.24955e-07
2.46423e-06
2.64013e-07
2.87531e-07
2.46254e-06
2.59296e-06
1.04058e-07
2.61565e-06
4.39795e-07
2.55953e-06
-1.82805e-06
2.52906e-06
-1.55397e-06
2.55721e-06
2.48519e-08
2.60035e-06
7.96941e-07
2.59577e-06
-1.19923e-07
2.60302e-06
-3.06452e-07
2.56548e-06
-9.39581e-07
2.55785e-06
-7.14099e-07
2.55407e-06
-3.51392e-07
2.55318e-06
-2.65744e-07
2.55247e-06
-2.09429e-07
2.55443e-06
-4.33973e-08
2.56028e-06
5.42516e-08
2.56652e-06
1.39294e-07
2.57056e-06
2.04472e-07
2.57234e-06
2.23182e-07
2.57403e-06
2.62314e-07
2.8744e-07
2.57413e-06
2.71539e-06
9.64998e-08
2.73924e-06
4.15943e-07
2.68421e-06
-1.77302e-06
2.65232e-06
-1.52209e-06
2.67546e-06
1.72144e-09
2.7185e-06
7.53896e-07
2.71591e-06
-1.17328e-07
2.72434e-06
-3.14891e-07
2.6882e-06
-9.03432e-07
2.68016e-06
-7.06063e-07
2.67729e-06
-3.48521e-07
2.67545e-06
-2.63905e-07
2.67399e-06
-2.07969e-07
2.67404e-06
-4.3442e-08
2.6776e-06
5.06848e-08
2.68277e-06
1.34127e-07
2.68592e-06
2.01319e-07
2.68794e-06
2.21162e-07
2.69095e-06
2.59307e-07
2.85968e-07
2.69242e-06
2.84398e-06
8.9784e-08
2.86875e-06
3.91175e-07
2.81416e-06
-1.71842e-06
2.78151e-06
-1.48945e-06
2.80117e-06
-1.79314e-08
2.84423e-06
7.10834e-07
2.84318e-06
-1.16278e-07
2.85214e-06
-3.23856e-07
2.81708e-06
-8.68365e-07
2.80819e-06
-6.97177e-07
2.80607e-06
-3.46403e-07
2.80346e-06
-2.6129e-07
2.8016e-06
-2.06112e-07
2.80065e-06
-4.2486e-08
2.80254e-06
4.87909e-08
2.80698e-06
1.29682e-07
2.80945e-06
1.98848e-07
2.81138e-06
2.19239e-07
2.81552e-06
2.55167e-07
2.83349e-07
2.81813e-06
2.979e-06
8.36843e-08
3.00452e-06
3.65646e-07
2.94982e-06
-1.66372e-06
2.91674e-06
-1.45636e-06
2.93404e-06
-3.52358e-08
2.97725e-06
6.67623e-07
2.97753e-06
-1.16561e-07
2.98653e-06
-3.32853e-07
2.9524e-06
-8.34235e-07
2.9424e-06
-6.87173e-07
2.94077e-06
-3.4477e-07
2.93745e-06
-2.57977e-07
2.93531e-06
-2.03965e-07
2.934e-06
-4.11764e-08
2.93475e-06
4.80393e-08
2.93885e-06
1.25578e-07
2.94108e-06
1.96619e-07
2.94282e-06
2.17503e-07
2.94794e-06
2.50048e-07
2.79635e-07
2.95165e-06
3.12066e-06
7.80282e-08
3.14686e-06
3.39447e-07
3.09168e-06
-1.60854e-06
3.05826e-06
-1.42294e-06
3.07408e-06
-5.10544e-08
3.11753e-06
6.24175e-07
3.11902e-06
-1.1805e-07
3.12765e-06
-3.41485e-07
3.09439e-06
-8.00973e-07
3.08317e-06
-6.75954e-07
3.08178e-06
-3.43377e-07
3.07785e-06
-2.54051e-07
3.0754e-06
-2.01521e-07
3.07418e-06
-3.99526e-08
3.07419e-06
4.80267e-08
3.07822e-06
1.21549e-07
3.08069e-06
1.94155e-07
3.08227e-06
2.15918e-07
3.08816e-06
2.44161e-07
2.7475e-07
3.09304e-06
3.26923e-06
7.27074e-08
3.29605e-06
3.12631e-07
3.24022e-06
-1.55272e-06
3.20646e-06
-1.38918e-06
3.22142e-06
-6.60185e-08
3.26511e-06
5.80492e-07
3.26771e-06
-1.20652e-07
3.27568e-06
-3.49455e-07
3.24325e-06
-7.68549e-07
3.23086e-06
-6.63557e-07
3.22953e-06
-3.42049e-07
3.22509e-06
-2.49617e-07
3.22231e-06
-1.98739e-07
3.22146e-06
-3.91006e-08
3.22103e-06
4.84608e-08
3.22511e-06
1.17467e-07
3.22817e-06
1.91098e-07
3.22973e-06
2.14356e-07
3.23604e-06
2.37847e-07
2.68593e-07
3.2422e-06
3.42496e-06
6.76754e-08
3.45235e-06
2.85243e-07
3.39589e-06
-1.49625e-06
3.36173e-06
-1.35502e-06
3.37626e-06
-8.05455e-08
3.42007e-06
5.36676e-07
3.42371e-06
-1.24293e-07
3.43084e-06
-3.56577e-07
3.39924e-06
-7.36957e-07
3.38578e-06
-6.50095e-07
3.38443e-06
-3.40696e-07
3.3796e-06
-2.4479e-07
3.37644e-06
-1.95577e-07
3.37612e-06
-3.87767e-08
3.37545e-06
4.91222e-08
3.37959e-06
1.13332e-07
3.38345e-06
1.87241e-07
3.38516e-06
2.12638e-07
3.39149e-06
2.31517e-07
2.61155e-07
3.39893e-06
3.58815e-06
6.2932e-08
3.61605e-06
2.57349e-07
3.55911e-06
-1.43932e-06
3.52447e-06
-1.32038e-06
3.53881e-06
-9.48822e-08
3.58259e-06
4.92892e-07
3.58721e-06
-1.28909e-07
3.5934e-06
-3.6277e-07
3.56265e-06
-7.06208e-07
3.54827e-06
-6.35709e-07
3.54685e-06
-3.39279e-07
3.54174e-06
-2.39682e-07
3.53816e-06
-1.91993e-07
3.5384e-06
-3.90207e-08
3.53769e-06
4.98346e-08
3.54179e-06
1.09237e-07
3.54651e-06
1.82521e-07
3.54858e-06
2.10564e-07
3.55458e-06
2.25522e-07
2.52616e-07
3.56311e-06
3.75914e-06
5.84997e-08
3.78744e-06
2.29048e-07
3.73029e-06
-1.38217e-06
3.69507e-06
-1.28516e-06
3.70935e-06
-1.09164e-07
3.75292e-06
4.49326e-07
3.75844e-06
-1.34436e-07
3.76371e-06
-3.68034e-07
3.73382e-06
-6.76319e-07
3.71863e-06
-6.20524e-07
3.71715e-06
-3.37799e-07
3.71186e-06
-2.34386e-07
3.70782e-06
-1.87957e-07
3.70858e-06
-3.97752e-08
3.70797e-06
5.04446e-08
3.71188e-06
1.05318e-07
3.71742e-06
1.76988e-07
3.72004e-06
2.07943e-07
3.72552e-06
2.20044e-07
2.43365e-07
3.73477e-06
3.93828e-06
5.44034e-08
3.96685e-06
2.0048e-07
3.90979e-06
-1.32511e-06
3.8739e-06
-1.24927e-06
3.8882e-06
-1.23462e-07
3.93139e-06
4.0614e-07
3.93774e-06
-1.40786e-07
3.94213e-06
-3.72429e-07
3.91312e-06
-6.47309e-07
3.89723e-06
-6.04634e-07
3.8957e-06
-3.36265e-07
3.89027e-06
-2.28959e-07
3.88578e-06
-1.83464e-07
3.88692e-06
-4.09164e-08
3.88655e-06
5.08166e-08
3.89017e-06
1.01693e-07
3.89635e-06
1.70804e-07
3.89967e-06
2.04625e-07
3.90466e-06
2.15058e-07
2.33902e-07
3.91412e-06
4.126e-06
5.06581e-08
4.15466e-06
1.7182e-07
4.09801e-06
-1.26847e-06
4.06136e-06
-1.21262e-06
4.07571e-06
-1.37809e-07
4.11839e-06
3.63463e-07
4.12546e-06
-1.47853e-07
4.12906e-06
-3.76029e-07
4.10097e-06
-6.19222e-07
4.08443e-06
-5.88093e-07
4.08284e-06
-3.34677e-07
4.07733e-06
-2.23448e-07
4.07238e-06
-1.78511e-07
4.07376e-06
-4.23029e-08
4.07374e-06
5.08454e-08
4.077e-06
9.84328e-08
4.08359e-06
1.64206e-07
4.0877e-06
2.00516e-07
4.09241e-06
2.1035e-07
2.24703e-07
4.10161e-06
4.3227e-06
4.72637e-08
4.35124e-06
1.43273e-07
4.29534e-06
-1.21256e-06
4.25788e-06
-1.17516e-06
4.27227e-06
-1.52201e-07
4.31436e-06
3.2137e-07
4.322e-06
-1.55494e-07
4.32488e-06
-3.78912e-07
4.29779e-06
-5.92125e-07
4.28064e-06
-5.70948e-07
4.27897e-06
-3.33003e-07
4.27342e-06
-2.17901e-07
4.268e-06
-1.73093e-07
4.26951e-06
-4.38109e-08
4.26986e-06
5.04994e-08
4.27272e-06
9.55733e-08
4.27953e-06
1.5739e-07
4.28444e-06
1.95615e-07
4.28913e-06
2.05654e-07
2.16026e-07
4.29781e-06
4.52883e-06
4.42071e-08
4.55705e-06
1.15056e-07
4.50216e-06
-1.15768e-06
4.46389e-06
-1.13688e-06
4.47828e-06
-1.66592e-07
4.51975e-06
2.79902e-07
4.52781e-06
-1.63554e-07
4.53003e-06
-3.81136e-07
4.50401e-06
-5.66107e-07
4.48631e-06
-5.53246e-07
4.48448e-06
-3.31172e-07
4.47896e-06
-2.12386e-07
4.47307e-06
-1.67194e-07
4.4746e-06
-4.53488e-08
4.47529e-06
4.98151e-08
4.47775e-06
9.3114e-08
4.48464e-06
1.505e-07
4.49031e-06
1.89944e-07
4.49517e-06
2.00791e-07
2.07903e-07
4.50329e-06
4.74486e-06
4.14655e-08
4.77252e-06
8.73907e-08
4.71892e-06
-1.10407e-06
4.67988e-06
-1.09785e-06
4.69418e-06
-1.80886e-07
4.735e-06
2.39078e-07
4.74334e-06
-1.71893e-07
4.74493e-06
-3.82721e-07
4.72008e-06
-5.41259e-07
4.70189e-06
-5.35059e-07
4.69983e-06
-3.29107e-07
4.69441e-06
-2.06974e-07
4.68802e-06
-1.60804e-07
4.6895e-06
-4.68304e-08
4.69053e-06
4.87866e-08
4.69259e-06
9.10614e-08
4.6994e-06
1.43681e-07
4.70579e-06
1.83554e-07
4.71097e-06
1.95611e-07
2.00298e-07
4.71858e-06
4.97125e-06
3.90119e-08
4.99815e-06
6.04908e-08
4.94602e-06
-1.05194e-06
4.90637e-06
-1.05819e-06
4.92041e-06
-1.94934e-07
4.9606e-06
1.98897e-07
4.96911e-06
-1.80404e-07
4.97003e-06
-3.83643e-07
4.94643e-06
-5.17661e-07
4.92787e-06
-5.16495e-07
4.92547e-06
-3.26707e-07
4.92025e-06
-2.0176e-07
4.91336e-06
-1.53914e-07
4.91469e-06
-4.81576e-08
4.91614e-06
4.7333e-08
4.91781e-06
8.93951e-08
4.92438e-06
1.37114e-07
4.93145e-06
1.76483e-07
4.93698e-06
1.90074e-07
1.93138e-07
4.94414e-06
5.2085e-06
3.68239e-08
5.23446e-06
3.45386e-08
5.18392e-06
-1.00141e-06
5.14385e-06
-1.01812e-06
5.1575e-06
-2.08578e-07
5.197e-06
1.59392e-07
5.20562e-06
-1.89027e-07
5.20583e-06
-3.83847e-07
5.18354e-06
-4.95374e-07
5.16471e-06
-4.97661e-07
5.16192e-06
-3.23922e-07
5.15696e-06
-1.96796e-07
5.14961e-06
-1.4657e-07
5.1507e-06
-4.92433e-08
5.15263e-06
4.54062e-08
5.15402e-06
8.7998e-08
5.16014e-06
1.31002e-07
5.16776e-06
1.68858e-07
5.17379e-06
1.84045e-07
1.86451e-07
5.18048e-06
5.45713e-06
3.48843e-08
5.48199e-06
9.67513e-09
5.43309e-06
-9.52503e-07
5.39288e-06
-9.77918e-07
5.40597e-06
-2.21663e-07
5.44471e-06
1.20655e-07
5.45346e-06
-1.97777e-07
5.45289e-06
-3.83278e-07
5.43188e-06
-4.74366e-07
5.41292e-06
-4.78707e-07
5.40972e-06
-3.2072e-07
5.40504e-06
-1.92115e-07
5.39735e-06
-1.38875e-07
5.39808e-06
-4.99752e-08
5.40055e-06
4.29395e-08
5.40183e-06
8.67093e-08
5.4073e-06
1.25534e-07
5.41525e-06
1.6091e-07
5.42189e-06
1.77404e-07
1.80132e-07
5.42821e-06
5.71766e-06
3.31799e-08
5.74135e-06
-1.40131e-08
5.694e-06
-9.05148e-07
5.65402e-06
-9.37939e-07
5.66639e-06
-2.34042e-07
5.70422e-06
8.28275e-08
5.71318e-06
-2.06737e-07
5.71179e-06
-3.81885e-07
5.69197e-06
-4.54547e-07
5.67303e-06
-4.59762e-07
5.6694e-06
-3.17099e-07
5.66506e-06
-1.87772e-07
5.65711e-06
-1.30925e-07
5.65739e-06
-5.0251e-08
5.66043e-06
3.98938e-08
5.66181e-06
8.53286e-08
5.66656e-06
1.20786e-07
5.67445e-06
1.5302e-07
5.6818e-06
1.70058e-07
1.73921e-07
5.68801e-06
5.99067e-06
3.16993e-08
6.01315e-06
-3.64888e-08
5.96717e-06
-8.59172e-07
5.92783e-06
-8.98595e-07
5.93938e-06
-2.45593e-07
5.97611e-06
4.60939e-08
5.98537e-06
-2.15994e-07
5.98316e-06
-3.79672e-07
5.96438e-06
-4.35769e-07
5.94555e-06
-4.4093e-07
5.94152e-06
-3.13072e-07
5.93757e-06
-1.83823e-07
5.92949e-06
-1.22837e-07
5.9292e-06
-4.9961e-08
5.93282e-06
3.6268e-08
5.93454e-06
8.36118e-08
5.93854e-06
1.16781e-07
5.94605e-06
1.45517e-07
5.95397e-06
1.6213e-07
1.67448e-07
5.96045e-06
6.27675e-06
3.04332e-08
6.29804e-06
-5.77697e-08
6.2532e-06
-8.14338e-07
6.21492e-06
-8.60312e-07
6.22556e-06
-2.5624e-07
6.2609e-06
1.07541e-08
6.27058e-06
-2.25668e-07
6.26763e-06
-3.76728e-07
6.24974e-06
-4.17871e-07
6.23106e-06
-4.22251e-07
6.22663e-06
-3.08647e-07
6.22317e-06
-1.8036e-07
6.21507e-06
-1.14734e-07
6.21409e-06
-4.89809e-08
6.21829e-06
3.20681e-08
6.22054e-06
8.13627e-08
6.22391e-06
1.13411e-07
6.23077e-06
1.38657e-07
6.23893e-06
1.53961e-07
1.6036e-07
6.24602e-06
6.57653e-06
2.93689e-08
6.59667e-06
-7.79028e-08
6.55277e-06
-7.7044e-07
6.5159e-06
-8.23444e-07
6.52561e-06
-2.65953e-07
6.55916e-06
-2.27949e-08
6.56933e-06
-2.35832e-07
6.56585e-06
-3.73253e-07
6.5487e-06
-4.0072e-07
6.53016e-06
-4.03707e-07
6.52531e-06
-3.038e-07
6.52244e-06
-1.77491e-07
6.51444e-06
-1.06733e-07
6.51272e-06
-4.72614e-08
6.5173e-06
2.74838e-08
6.52033e-06
7.83342e-08
6.52329e-06
1.10451e-07
6.52937e-06
1.32581e-07
6.53736e-06
1.45965e-07
1.52541e-07
6.54518e-06
6.89068e-06
2.84795e-08
6.9097e-06
-9.69198e-08
6.86682e-06
-7.27567e-07
6.83141e-06
-7.88031e-07
6.84028e-06
-2.74824e-07
6.87159e-06
-5.41041e-08
6.88214e-06
-2.46385e-07
6.87844e-06
-3.69546e-07
6.86198e-06
-3.8426e-07
6.84353e-06
-3.85261e-07
6.83812e-06
-2.98393e-07
6.83594e-06
-1.7531e-07
6.82827e-06
-9.90552e-08
6.82573e-06
-4.47258e-08
6.83042e-06
2.27945e-08
6.83445e-06
7.43019e-08
6.83733e-06
1.07574e-07
6.84258e-06
1.27328e-07
6.8501e-06
1.38448e-07
1.4419e-07
6.85845e-06
7.2199e-06
2.77125e-08
7.23776e-06
-1.14778e-07
7.19627e-06
-6.86077e-07
7.16179e-06
-7.53549e-07
7.17026e-06
-2.83295e-07
7.19902e-06
-8.28594e-08
7.2096e-06
-2.56965e-07
7.20599e-06
-3.65939e-07
7.19027e-06
-3.6854e-07
7.17186e-06
-3.66853e-07
7.16571e-06
-2.92246e-07
7.16422e-06
-1.73815e-07
7.15716e-06
-9.19998e-08
7.15383e-06
-4.13952e-08
7.15828e-06
1.83459e-08
7.16342e-06
6.91643e-08
7.16656e-06
1.04429e-07
7.17112e-06
1.2277e-07
7.17791e-06
1.31659e-07
1.35667e-07
7.18643e-06
7.56495e-06
2.69873e-08
7.58152e-06
-1.31344e-07
7.54192e-06
-6.46482e-07
7.50748e-06
-7.19106e-07
7.51614e-06
-2.91952e-07
7.54232e-06
-1.09043e-07
7.55236e-06
-2.67002e-07
7.5491e-06
-3.62686e-07
7.53426e-06
-3.53692e-07
7.51587e-06
-3.48469e-07
7.50877e-06
-2.85147e-07
7.50781e-06
-1.72855e-07
7.50168e-06
-8.58722e-08
7.49777e-06
-3.74785e-08
7.50168e-06
1.44333e-08
7.50779e-06
6.30527e-08
7.51155e-06
1.00674e-07
7.51561e-06
1.18705e-07
7.52161e-06
1.25659e-07
1.27445e-07
7.52984e-06
7.9266e-06
2.61939e-08
7.94165e-06
-1.46385e-07
7.90455e-06
-6.09385e-07
7.86932e-06
-6.83879e-07
7.87851e-06
-3.01135e-07
7.90248e-06
-1.33018e-07
7.91134e-06
-2.75862e-07
7.90847e-06
-3.5981e-07
7.89457e-06
-3.39794e-07
7.87626e-06
-3.30159e-07
7.86804e-06
-2.76932e-07
7.86732e-06
-1.72134e-07
7.8624e-06
-8.09464e-08
7.85823e-06
-3.33077e-08
7.86137e-06
1.12882e-08
7.86815e-06
5.62737e-08
7.87279e-06
9.6031e-08
7.87665e-06
1.14846e-07
7.88201e-06
1.20302e-07
1.19982e-07
7.88947e-06
8.30568e-06
2.51985e-08
8.31889e-06
-1.59595e-07
8.28489e-06
-5.75392e-07
8.2483e-06
-6.47286e-07
8.25819e-06
-3.11024e-07
8.28097e-06
-1.55797e-07
8.28763e-06
-2.82523e-07
8.28441e-06
-3.56588e-07
8.27168e-06
-3.27065e-07
8.25369e-06
-3.12169e-07
8.24425e-06
-2.6749e-07
8.24352e-06
-1.71408e-07
8.23987e-06
-7.72986e-08
8.23588e-06
-2.93163e-08
8.23815e-06
9.01946e-09
8.24516e-06
4.9264e-08
8.25091e-06
9.02822e-08
8.25484e-06
1.1091e-07
8.25977e-06
1.15377e-07
1.13435e-07
8.26631e-06
8.70301e-06
2.38548e-08
8.71403e-06
-1.70624e-07
8.68364e-06
-5.44993e-07
8.6456e-06
-6.0925e-07
8.65491e-06
-3.20338e-07
8.67553e-06
-1.76416e-07
8.68006e-06
-2.87054e-07
8.67715e-06
-3.53674e-07
8.66611e-06
-3.16023e-07
8.64887e-06
-2.94932e-07
8.63825e-06
-2.5687e-07
8.63717e-06
-1.70327e-07
8.63489e-06
-7.50212e-08
8.63146e-06
-2.58793e-08
8.6329e-06
7.57598e-09
8.63964e-06
4.25256e-08
8.64656e-06
8.33633e-08
8.6509e-06
1.06571e-07
8.65555e-06
1.10726e-07
1.07639e-07
8.66134e-06
9.11946e-06
2.20096e-08
9.12794e-06
-1.79101e-07
9.10134e-06
-5.18391e-07
9.06223e-06
-5.70136e-07
9.06962e-06
-3.2773e-07
9.08986e-06
-1.96658e-07
9.09228e-06
-2.89471e-07
9.08855e-06
-3.49953e-07
9.07883e-06
-3.06303e-07
9.06267e-06
-2.78769e-07
9.05111e-06
-2.45306e-07
9.04923e-06
-1.68449e-07
9.04832e-06
-7.41084e-08
9.0457e-06
-2.32663e-08
9.04651e-06
6.76693e-09
9.0526e-06
3.644e-08
9.06047e-06
7.54873e-08
9.06558e-06
1.01467e-07
9.07002e-06
1.06282e-07
1.02279e-07
9.07538e-06
9.55595e-06
1.95217e-08
9.56157e-06
-1.84718e-07
9.53871e-06
-4.95531e-07
9.49992e-06
-5.31351e-07
9.50443e-06
-3.32235e-07
9.52425e-06
-2.16485e-07
9.52482e-06
-2.90036e-07
9.51937e-06
-3.44508e-07
9.51066e-06
-2.97591e-07
9.49603e-06
-2.64135e-07
9.48389e-06
-2.33168e-07
9.48108e-06
-1.65641e-07
9.48116e-06
-7.41857e-08
9.47953e-06
-2.1638e-08
9.47995e-06
6.34528e-09
9.48521e-06
3.11811e-08
9.49356e-06
6.71327e-08
9.49976e-06
9.52767e-08
9.50407e-06
1.01963e-07
9.71654e-08
9.50919e-06
1.00134e-05
1.62687e-08
1.0016e-05
-1.87326e-07
9.99656e-06
-4.76093e-07
9.95959e-06
-4.94383e-07
9.96007e-06
-3.32719e-07
9.97924e-06
-2.35653e-07
9.97897e-06
-2.89768e-07
9.97097e-06
-3.36509e-07
9.96272e-06
-2.89337e-07
9.9499e-06
-2.51316e-07
9.93768e-06
-2.20941e-07
9.93399e-06
-1.61952e-07
9.93461e-06
-7.48067e-08
9.93392e-06
-2.09556e-08
9.93426e-06
6.01178e-09
9.93865e-06
2.67882e-08
9.94693e-06
5.88541e-08
9.95429e-06
8.79186e-08
9.95876e-06
9.74954e-08
9.23211e-08
9.9636e-06
1.04927e-05
1.21639e-08
1.04924e-05
-1.86965e-07
1.04758e-05
-4.59523e-07
1.0442e-05
-4.60603e-07
1.04379e-05
-3.28609e-07
1.04557e-05
-2.53443e-07
1.04558e-05
-2.89857e-07
1.04452e-05
-3.25889e-07
1.04363e-05
-2.80485e-07
1.04253e-05
-2.4024e-07
1.04136e-05
-2.09323e-07
1.04091e-05
-1.57398e-07
1.041e-05
-7.56866e-08
1.04101e-05
-2.10714e-08
1.04105e-05
5.61045e-09
1.04141e-05
2.31878e-08
1.04218e-05
5.11185e-08
1.04301e-05
7.96466e-08
1.04351e-05
9.25254e-08
8.77565e-08
1.04396e-05
1.0995e-05
7.17017e-09
1.09919e-05
-1.83882e-07
1.09775e-05
-4.45073e-07
1.09479e-05
-4.31067e-07
1.09393e-05
-3.19984e-07
1.09546e-05
-2.68701e-07
1.09561e-05
-2.91385e-07
1.09437e-05
-3.13493e-07
1.09332e-05
-2.69945e-07
1.09233e-05
-2.30385e-07
1.09126e-05
-1.98646e-07
1.09076e-05
-1.52343e-07
1.09084e-05
-7.64866e-08
1.09092e-05
-2.18973e-08
1.09097e-05
5.12865e-09
1.09126e-05
2.02558e-08
1.09195e-05
4.42102e-08
1.09283e-05
7.09122e-08
1.0934e-05
8.67673e-08
8.33661e-08
1.09384e-05
1.15212e-05
1.31172e-09
1.15158e-05
-1.78455e-07
1.15027e-05
-4.31996e-07
1.1478e-05
-4.0635e-07
1.14656e-05
-3.07622e-07
1.14769e-05
-2.79979e-07
1.14802e-05
-2.94656e-07
1.14676e-05
-3.00885e-07
1.1455e-05
-2.57346e-07
1.14453e-05
-2.20718e-07
1.14356e-05
-1.88981e-07
1.14305e-05
-1.47176e-07
1.14311e-05
-7.70904e-08
1.14324e-05
-2.32417e-08
1.14331e-05
4.49105e-09
1.14354e-05
1.78842e-08
1.14414e-05
3.8292e-08
1.14501e-05
6.21852e-08
1.14567e-05
8.01829e-08
7.89382e-08
1.14611e-05
1.20724e-05
-5.30236e-09
1.20652e-05
-1.7126e-07
1.20528e-05
-4.19512e-07
1.20329e-05
-3.86525e-07
1.20181e-05
-2.92794e-07
1.2024e-05
-2.85883e-07
1.20285e-05
-2.99132e-07
1.20175e-05
-2.89885e-07
1.20031e-05
-2.43011e-07
1.19926e-05
-2.10214e-07
1.19838e-05
-1.801e-07
1.19787e-05
-1.42096e-07
1.19791e-05
-7.75544e-08
1.19809e-05
-2.49981e-08
1.19817e-05
3.64477e-09
1.19837e-05
1.59155e-08
1.19886e-05
3.33954e-08
1.19969e-05
5.39128e-08
1.20042e-05
7.29196e-08
7.42483e-08
1.20088e-05
1.26497e-05
-1.24535e-08
1.26414e-05
-1.62926e-07
1.26286e-05
-4.06737e-07
1.26134e-05
-3.71314e-07
1.25977e-05
-2.7707e-07
1.25975e-05
-2.8567e-07
1.26017e-05
-3.03322e-07
1.25938e-05
-2.8203e-07
1.25788e-05
-2.2797e-07
1.2567e-05
-1.98406e-07
1.25582e-05
-1.71372e-07
1.25533e-05
-1.37163e-07
1.25537e-05
-7.79343e-08
1.25558e-05
-2.71332e-08
1.25569e-05
2.58792e-09
1.25586e-05
1.41476e-08
1.25626e-05
2.94497e-08
1.25701e-05
4.64475e-08
1.25777e-05
6.52467e-08
6.91525e-08
1.25828e-05
1.32543e-05
-1.98189e-08
1.32451e-05
-1.53766e-07
1.32313e-05
-3.9293e-07
1.32202e-05
-3.6023e-07
1.32052e-05
-2.6206e-07
1.3199e-05
-2.7944e-07
1.32009e-05
-3.052e-07
1.31968e-05
-2.77932e-07
1.31829e-05
-2.1405e-07
1.31698e-05
-1.85309e-07
1.31605e-05
-1.62084e-07
1.31556e-05
-1.32322e-07
1.31559e-05
-7.82121e-08
1.31584e-05
-2.96427e-08
1.31598e-05
1.26579e-09
1.31614e-05
1.25003e-08
1.31646e-05
2.62035e-08
1.3171e-05
4.00511e-08
1.31787e-05
5.75486e-08
6.36264e-08
1.31843e-05
1.38874e-05
-2.70083e-08
1.38786e-05
-1.45052e-07
1.38627e-05
-3.76988e-07
1.38546e-05
-3.52168e-07
1.38414e-05
-2.48846e-07
1.38305e-05
-2.68477e-07
1.38278e-05
-3.02543e-07
1.38268e-05
-2.76977e-07
1.38162e-05
-2.03394e-07
1.38024e-05
-1.71524e-07
1.37922e-05
-1.5185e-07
1.3787e-05
-1.27135e-07
1.3787e-05
-7.82706e-08
1.37899e-05
-3.2544e-08
1.37916e-05
-4.19301e-10
1.37932e-05
1.09426e-08
1.3796e-05
2.3369e-08
1.38013e-05
3.47512e-08
1.38086e-05
5.02594e-08
5.77429e-08
1.38145e-05
1.45502e-05
-3.35749e-08
1.4542e-05
-1.36795e-07
1.45237e-05
-3.58692e-07
1.45179e-05
-3.46385e-07
1.45074e-05
-2.38371e-07
1.44935e-05
-2.54559e-07
1.44855e-05
-2.94555e-07
1.44853e-05
-2.76795e-07
1.44792e-05
-1.97243e-07
1.44661e-05
-1.58428e-07
1.44548e-05
-1.40561e-07
1.44489e-05
-1.21234e-07
1.44485e-05
-7.79157e-08
1.44517e-05
-3.56556e-08
1.44539e-05
-2.65684e-09
1.44554e-05
9.42363e-09
1.44579e-05
2.08348e-08
1.44623e-05
3.03517e-08
1.44689e-05
4.37212e-08
5.17124e-08
1.44749e-05
1.52444e-05
-3.9113e-08
1.52377e-05
-1.30042e-07
1.52165e-05
-3.37514e-07
1.52115e-05
-3.41414e-07
1.52043e-05
-2.31188e-07
1.51893e-05
-2.39505e-07
1.51767e-05
-2.8195e-07
1.51745e-05
-2.74625e-07
1.51726e-05
-1.95299e-07
1.51618e-05
-1.47707e-07
1.51498e-05
-1.28558e-07
1.5143e-05
-1.14385e-07
1.51419e-05
-7.68478e-08
1.51449e-05
-3.86102e-08
1.51478e-05
-5.58206e-09
1.51495e-05
7.73633e-09
1.51517e-05
1.86216e-08
1.51555e-05
2.65974e-08
1.51611e-05
3.80392e-08
4.57919e-08
1.51671e-05
1.59715e-05
-4.32694e-08
1.59664e-05
-1.24989e-07
1.59427e-05
-3.13777e-07
1.59369e-05
-3.35639e-07
1.59334e-05
-2.27638e-07
1.59189e-05
-2.25006e-07
1.5903e-05
-2.66072e-07
1.58971e-05
-2.68739e-07
1.58976e-05
-1.95757e-07
1.58904e-05
-1.40576e-07
1.58787e-05
-1.16839e-07
1.58708e-05
-1.06513e-07
1.58688e-05
-7.48305e-08
1.58713e-05
-4.11282e-08
1.58747e-05
-8.8893e-09
1.58768e-05
5.6108e-09
1.58788e-05
1.66016e-08
1.5882e-05
2.34063e-08
1.58869e-05
3.31291e-08
4.01954e-08
1.58925e-05
1.67332e-05
-4.58391e-08
1.67287e-05
-1.20549e-07
1.67037e-05
-2.88766e-07
1.66959e-05
-3.27806e-07
1.66959e-05
-2.27658e-07
1.66834e-05
-2.12484e-07
1.66657e-05
-2.48366e-07
1.66558e-05
-2.58873e-07
1.66562e-05
-1.9612e-07
1.66528e-05
-1.3722e-07
1.66426e-05
-1.06631e-07
1.6634e-05
-9.78778e-08
1.66309e-05
-7.17409e-08
1.66328e-05
-4.30069e-08
1.66361e-05
-1.22431e-08
1.66387e-05
3.06977e-09
1.66408e-05
1.44712e-08
1.66435e-05
2.07152e-08
1.66477e-05
2.8903e-08
3.50814e-08
1.66528e-05
1.75314e-05
-4.69048e-08
1.75291e-05
-1.1821e-07
1.75036e-05
-2.63293e-07
1.74914e-05
-3.15583e-07
1.74936e-05
-2.29829e-07
1.74839e-05
-2.02852e-07
1.74658e-05
-2.30207e-07
1.74527e-05
-2.45776e-07
1.74509e-05
-1.94361e-07
1.74504e-05
-1.36674e-07
1.74427e-05
-9.89339e-08
1.7434e-05
-8.9161e-08
1.74298e-05
-6.76057e-08
1.74308e-05
-4.39473e-08
1.74339e-05
-1.54316e-08
1.74367e-05
3.1545e-10
1.74391e-05
1.2087e-08
1.74416e-05
1.82432e-08
1.74451e-05
2.53597e-08
3.04808e-08
1.74497e-05
1.83681e-05
-4.66538e-08
1.83667e-05
-1.16785e-07
1.83428e-05
-2.39411e-07
1.83267e-05
-2.99511e-07
1.83285e-05
-2.316e-07
1.8322e-05
-1.96329e-07
1.83045e-05
-2.12765e-07
1.82892e-05
-2.30438e-07
1.82845e-05
-1.89694e-07
1.82849e-05
-1.37099e-07
1.82801e-05
-9.40954e-08
1.82722e-05
-8.12573e-08
1.82673e-05
-6.26857e-08
1.82671e-05
-4.37224e-08
1.82699e-05