/*--------------------------------*- C++ -*----------------------------------*\
| =========                 |                                                 |
| \\      /  F ield         | OpenFOAM: The Open Source CFD Toolbox           |
|  \\    /   O peration     | Version:  v1812                                 |
|   \\  /    A nd           | Web:      www.OpenFOAM.com                      |
|    \\/     M anipulation  |                                                 |
\*---------------------------------------------------------------------------*/
FoamFile
{
    version     2.0;
    format      ascii;
    class       volScalarField;
    location    "2.5";
    object      p;
}
// * * * * * * * * * * * * * * * * * * * * * * * * * * * * * * * * * * * * * //

dimensions      [0 2 -2 0 0 0 0];


internalField   nonuniform List<scalar> 
9600
(
-2.90285e-11
-0.000863763
-0.00206311
-0.00105022
0.000539699
-0.00112873
-0.0014059
0.00055256
-0.000266815
0.000236483
0.0011583
0.00251697
0.00255297
0.00273146
0.00425504
0.00585294
0.00801954
0.00977294
0.0140441
0.0193897
2.26967e-07
-0.000866754
-0.00204618
-0.00104701
0.000523648
-0.00113528
-0.00136007
0.000545852
-0.000255619
0.000230579
0.0011527
0.00252219
0.00253946
0.00273
0.0042564
0.005843
0.00803581
0.00972737
0.0142002
0.0189692
-2.92471e-07
-0.000870379
-0.00203095
-0.00104586
0.000501577
-0.00113878
-0.00132447
0.000533365
-0.000237016
0.000220368
0.0011507
0.00252903
0.0025165
0.0027361
0.00425189
0.00583426
0.00803881
0.00967561
0.0142678
0.0183668
-1.83816e-06
-0.000874236
-0.00201423
-0.00104488
0.000479171
-0.00114022
-0.00129417
0.000514868
-0.000213736
0.000210141
0.00115337
0.00253607
0.00248839
0.00274483
0.0042456
0.00582407
0.008037
0.00962285
0.0142487
0.0178428
-4.42014e-06
-0.000878338
-0.00199464
-0.00104387
0.000456009
-0.00113877
-0.00126623
0.00048972
-0.000185089
0.000199579
0.00115709
0.00254143
0.00245739
0.00275403
0.00424234
0.00581032
0.00803763
0.009561
0.0142009
0.0173673
-7.94207e-06
-0.000882399
-0.00197216
-0.00104382
0.000433293
-0.0011335
-0.00123993
0.000459332
-0.000151337
0.000187629
0.00116008
0.00254534
0.00242726
0.00276441
0.0042436
0.00579496
0.00803684
0.00949491
0.0141205
0.0169188
-1.21665e-05
-0.000886223
-0.00194743
-0.00104484
0.000412456
-0.00112483
-0.0012148
0.000426035
-0.000113549
0.00017488
0.00116198
0.00254939
0.00240013
0.00277572
0.00424968
0.00577829
0.00803197
0.00942747
0.0140022
0.0164888
-1.68256e-05
-0.000889799
-0.00192112
-0.00104655
0.000393665
-0.00111373
-0.00119025
0.000391733
-7.24744e-05
0.000162297
0.00116262
0.00255438
0.00237637
0.00278739
0.00425965
0.00576061
0.00802151
0.00935917
0.0138433
0.0160738
-2.17153e-05
-0.000893212
-0.00189369
-0.00104864
0.000376325
-0.00110113
-0.00116578
0.000357588
-2.86252e-05
0.000150401
0.00116177
0.00256029
0.00235591
0.0027987
0.00427204
0.00574274
0.00800345
0.00928917
0.0136448
0.0156706
-2.67165e-05
-0.000896585
-0.00186546
-0.00105092
0.000359721
-0.00108772
-0.00114113
0.000324066
1.7356e-05
0.000139465
0.00115929
0.00256698
0.00233845
0.00280887
0.00428545
0.0057254
0.00797535
0.00921641
0.0134102
0.0152745
-3.17741e-05
-0.000900026
-0.00183657
-0.00105321
0.000343267
-0.00107393
-0.00111609
0.000291167
6.46751e-05
0.000129712
0.00115505
0.00257432
0.00232329
0.0028175
0.00429838
0.00570861
0.00793542
0.00913977
0.0131434
0.0148799
-3.68617e-05
-0.000903607
-0.00180709
-0.00105538
0.00032658
-0.00105995
-0.00109052
0.000258705
0.000112515
0.000121392
0.00114886
0.00258212
0.00230957
0.0028246
0.00430922
0.00569211
0.00788299
0.00905714
0.0128487
0.0144824
-4.19587e-05
-0.000907368
-0.00177703
-0.00105738
0.000309474
-0.00104587
-0.00106435
0.00022652
0.000160127
0.000114813
0.0011404
0.00259022
0.00229658
0.00283016
0.00431668
0.00567561
0.00781814
0.00896509
0.012531
0.0140795
-4.70415e-05
-0.000911324
-0.00174643
-0.00105913
0.000291877
-0.00103166
-0.00103762
0.00019457
0.000206858
0.000110344
0.00112929
0.00259864
0.00228367
0.00283411
0.00431994
0.00565818
0.00774174
0.00885995
0.0121942
0.0136703
-5.20872e-05
-0.00091548
-0.00171531
-0.00106059
0.000273752
-0.00101725
-0.00101042
0.000162935
0.000252139
0.000108388
0.00111513
0.00260745
0.00227031
0.00283641
0.0043186
0.00563787
0.00765533
0.00873918
0.0118411
0.0132551
-5.70766e-05
-0.000919839
-0.0016837
-0.00106171
0.000255065
-0.00100255
-0.000982917
0.000131792
0.000295469
0.000109342
0.00109752
0.0026167
0.00225625
0.00283678
0.00431284
0.00561211
0.00756053
0.00860171
0.0114736
0.0128346
-6.19942e-05
-0.000924395
-0.00165166
-0.00106245
0.000235778
-0.000987448
-0.000955341
0.000101402
0.000336316
0.000113614
0.0010761
0.00262633
0.00224153
0.00283466
0.0043033
0.00557785
0.00745852
0.00844774
0.011092
0.0124103
-6.68282e-05
-0.000929139
-0.00161925
-0.00106274
0.000215835
-0.000971799
-0.000927961
7.20956e-05
0.00037412
0.000121585
0.00105058
0.00263613
0.00222632
0.00282913
0.00429143
0.0055322
0.00734884
0.00827937
0.0106959
0.0119827
-7.15716e-05
-0.000934048
-0.00158656
-0.0010625
0.000195151
-0.000955425
-0.000901094
4.41943e-05
0.000408391
0.000133533
0.00102084
0.00264574
0.00221097
0.00281852
0.00427942
0.00547365
0.00722947
0.00810027
0.0102852
0.0115511
-7.62208e-05
-0.00093909
-0.00155359
-0.00106165
0.000173594
-0.000938109
-0.000875058
1.79905e-05
0.00043867
0.000149598
0.000986968
0.00265468
0.00219641
0.00280067
0.00426847
0.00540218
0.00709747
0.00791405
0.00986115
0.0111143
-8.07765e-05
-0.000944221
-0.00152048
-0.00106003
0.000150997
-0.000919668
-0.000850155
-6.19936e-06
0.000464456
0.00016977
0.000949323
0.00266199
0.00218359
0.00277349
0.00425858
0.00531902
0.00694905
0.00772354
0.0094274
0.0106715
-8.52465e-05
-0.000949367
-0.00148755
-0.00105747
0.000127195
-0.000899919
-0.000826711
-2.81403e-05
0.00048537
0.000193901
0.000908506
0.00266607
0.0021737
0.00273548
0.00424862
0.00522709
0.00678004
0.00753013
0.00898909
0.0102098
-8.96526e-05
-0.000954424
-0.00145492
-0.00105377
0.000102016
-0.000878671
-0.000805014
-4.77584e-05
0.000501248
0.000221598
0.000865437
0.00266532
0.0021681
0.00268579
0.00423687
0.00512985
0.00658719
0.00733299
0.00855236
0.00972984
-9.40403e-05
-0.000959255
-0.00142278
-0.00104873
7.52779e-05
-0.000855811
-0.000785262
-6.50164e-05
0.00051206
0.000252018
0.000821525
0.00265844
0.00216747
0.00262415
0.00422098
0.00503072
0.0063697
0.00712915
0.0081237
0.00922998
-9.84711e-05
-0.000963675
-0.00139139
-0.00104214
4.67995e-05
-0.000831262
-0.00076762
-8.00213e-05
0.000518064
0.000283942
0.000778121
0.00264407
0.00217189
0.00255094
0.00420221
0.00493281
0.00612879
0.00691369
0.00771026
0.00871246
-0.000103028
-0.000967446
-0.00136103
-0.00103383
1.64443e-05
-0.000804992
-0.000752042
-9.321e-05
0.000519783
0.000316207
0.000736064
0.00262091
0.00218122
0.00246701
0.00415986
0.00483852
0.00586722
0.0066808
0.00731852
0.00818306
-0.000107843
-0.000970263
-0.00133205
-0.00102368
-1.58416e-05
-0.000777149
-0.00073823
-0.000105231
0.000518002
0.000347796
0.000695996
0.00258809
0.00219477
0.0023737
0.004099
0.00474923
0.00558993
0.00642479
0.00695165
0.00765115
-0.000113069
-0.000971806
-0.00130461
-0.00101161
-5.00607e-05
-0.000748022
-0.000725796
-0.000116941
0.000513826
0.000377791
0.000658271
0.00254525
0.00221099
0.0022727
0.00401663
0.00466499
0.00530381
0.0061397
0.00660774
0.00712991
-0.00011887
-0.000971735
-0.00127905
-0.000997626
-8.61254e-05
-0.000718018
-0.000714117
-0.000129381
0.0005079
0.000405616
0.00062276
0.00249218
0.00222836
0.00216623
0.00390962
0.00458373
0.00501726
0.00582286
0.00628205
0.00663456
-0.000125451
-0.000969663
-0.00125589
-0.000981839
-0.000123696
-0.000687875
-0.000702158
-0.000143357
0.000500315
0.00043098
0.000588797
0.00242866
0.0022455
0.00205647
0.00377557
0.00450133
0.00473917
0.00547739
0.00598289
0.00617811
-0.000133044
-0.000965244
-0.00123444
-0.00096444
-0.000162251
-0.000658565
-0.000688871
-0.000159317
0.000490947
0.000453834
0.00055564
0.00235417
0.00226053
0.00194587
0.00361395
0.00441318
0.00447633
0.00510731
0.00565109
0.00576712
-0.000141857
-0.00095816
-0.00121494
-0.000945821
-0.000201077
-0.000631134
-0.000673614
-0.000177285
0.000478889
0.000474084
0.000522998
0.00226821
0.00227149
0.00183732
0.00342542
0.00432
0.00423314
0.00471852
0.00529822
0.00539802
-0.000152069
-0.000948128
-0.00119734
-0.000926606
-0.000239171
-0.000606524
-0.000656048
-0.000196656
0.00046274
0.000491275
0.000490551
0.00217037
0.00227601
0.00173349
0.00321172
0.00420209
0.00401081
0.004319
0.0049167
0.00505679
-0.000163885
-0.000934998
-0.00118122
-0.000907702
-0.000275502
-0.000585204
-0.000636296
-0.000216631
0.000441577
0.000504816
0.000457818
0.00205998
0.00227121
0.00163722
0.00297622
0.00406002
0.00380794
0.00389754
0.00450728
0.00472261
-0.000177443
-0.000918755
-0.00116589
-0.000890135
-0.00030941
-0.000567347
-0.000615051
-0.00023656
0.000415005
0.000513935
0.000424457
0.00193682
0.00225414
0.00155081
0.00272385
0.00389051
0.00362367
0.00352253
0.00407672
0.00437751
-0.000192776
-0.000899606
-0.00115047
-0.000874644
-0.000340787
-0.000552619
-0.000593085
-0.000256009
0.000382879
0.000517652
0.000390064
0.00180113
0.00222222
0.00147603
0.0024604
0.00369038
0.00345281
0.00316658
0.00363135
0.00401289
-0.000209874
-0.000878071
-0.00113386
-0.00086166
-0.000370284
-0.000540364
-0.000570793
-0.00027504
0.000345142
0.000514914
0.000354257
0.00165366
0.00217328
0.00141402
0.00219208
0.00345634
0.0032882
0.00283514
0.00317818
0.00362686
-0.000228594
-0.000854925
-0.0011151
-0.00085098
-0.000398972
-0.000530521
-0.000548473
-0.000293816
0.00030059
0.000504483
0.000317614
0.00149689
0.00210476
0.0013632
0.0019266
0.00318796
0.00312085
0.0025332
0.00272457
0.00321817
-0.000248694
-0.000831024
-0.00109362
-0.000841628
-0.00042771
-0.000523994
-0.000527025
-0.000312261
0.000249081
0.000485477
0.000281833
0.00133447
0.00201444
0.00131924
0.00167069
0.00288786
0.00294045
0.00226311
0.0022805
0.00278553
-0.000269816
-0.000807083
-0.00106927
-0.000832611
-0.000456812
-0.000522375
-0.000508215
-0.000330293
0.000191449
0.000457585
0.000247729
0.00116991
0.0019018
0.00127655
0.00142886
0.00256075
0.00273723
0.0020233
0.00185835
0.00233126
-0.000291461
-0.000783614
-0.0010425
-0.000823342
-0.000485768
-0.000526979
-0.000494479
-0.000347942
0.000129726
0.000420505
0.000215272
0.00100648
0.00176738
0.00122916
0.00120424
0.00221408
0.00250404
0.00180679
0.00146984
0.00186453
-0.000313112
-0.000760944
-0.00101411
-0.000813454
-0.000513374
-0.000538523
-0.000488409
-0.000365962
6.45581e-05
0.000374206
0.000184302
0.000847336
0.00161239
0.00117125
0.000998241
0.00185684
0.00223745
0.00160184
0.00112187
0.00140086
-0.000334374
-0.000739067
-0.000984993
-0.000802885
-0.000538553
-0.000557012
-0.00049221
-0.000386806
-3.9398e-06
0.00031947
0.000153942
0.000695243
0.00143995
0.00109808
0.000809831
0.00149777
0.00193799
0.00139603
0.000814235
0.000956249
-0.00035517
-0.00071752
-0.000955842
-0.000791713
-0.00055993
-0.000582434
-0.000509712
-0.00041425
-7.54433e-05
0.000258286
0.000123067
0.000551603
0.00125394
0.00100613
0.000636636
0.00114535
0.00160943
0.00117893
0.000541613
0.000542594
-0.000375319
-0.000696346
-0.000927132
-0.000781406
-0.000577092
-0.000611395
-0.000543925
-0.000450549
-0.00014426
0.000191746
8.87699e-05
0.00041551
0.00105797
0.000893539
0.000475132
0.000806776
0.00125751
0.000942352
0.000295203
0.000166821
-0.000394276
-0.000676064
-0.000899436
-0.000775513
-0.000595454
-0.000642095
-0.00058234
-0.000489759
-0.000211874
0.000118425
4.53372e-05
0.000283439
0.000855056
0.000760446
0.000320542
0.000487027
0.000890264
0.000680799
6.44791e-05
-0.000168002
-0.000411886
-0.000657043
-0.000873356
-0.000775684
-0.000616101
-0.000668609
-0.000621682
-0.00053267
-0.000281549
3.73807e-05
-1.01494e-05
0.000152564
0.000647211
0.000607733
0.000168926
0.000189375
0.000517412
0.000392995
-0.000162244
-0.000464322
-0.000428306
-0.000639567
-0.000849247
-0.000781378
-0.000639258
-0.000691715
-0.000662093
-0.000580679
-0.000354716
-5.13745e-05
-7.70614e-05
2.25652e-05
0.000436606
0.000436884
1.64718e-05
-8.57562e-05
0.000148142
8.23723e-05
-0.000395518
-0.000730256
-0.000443503
-0.000623981
-0.000826893
-0.000791682
-0.000666587
-0.000713238
-0.000702178
-0.000640412
-0.000433322
-0.000146848
-0.000153252
-0.000106389
0.000225197
0.000249175
-0.000142133
-0.000340955
-0.000209729
-0.000244052
-0.000641298
-0.00097711
-0.000457479
-0.000610652
-0.000806062
-0.000806038
-0.000699799
-0.000734903
-0.000740524
-0.000698624
-0.000517871
-0.000248768
-0.000237819
-0.000235255
1.40876e-05
4.6339e-05
-0.000311045
-0.000579364
-0.000549989
-0.000578487
-0.000901022
-0.00121606
-0.000470221
-0.00059991
-0.000787096
-0.000823307
-0.000739577
-0.000759715
-0.000775021
-0.000757885
-0.000607961
-0.000358382
-0.000331431
-0.000364097
-0.000195115
-0.000168918
-0.000492012
-0.000805146
-0.000869502
-0.000913955
-0.00117347
-0.00145438
-0.000481722
-0.00059221
-0.000770607
-0.000842152
-0.00078601
-0.000790833
-0.000809702
-0.000816661
-0.000702361
-0.000476646
-0.000435661
-0.000492934
-0.00039936
-0.000392585
-0.000685938
-0.00102433
-0.00116846
-0.00124382
-0.00145544
-0.00169499
-0.0004922
-0.000588047
-0.000757364
-0.000860908
-0.000837951
-0.000829972
-0.000844722
-0.000873835
-0.000799004
-0.000602754
-0.000551785
-0.00062403
-0.000596529
-0.000619691
-0.000891951
-0.0012419
-0.00144925
-0.00156271
-0.00174254
-0.00193891
-0.000502011
-0.000587841
-0.000748139
-0.00087818
-0.000893008
-0.000878875
-0.000883739
-0.000929384
-0.00089547
-0.000735188
-0.000679827
-0.00075984
-0.000787736
-0.000845811
-0.00110651
-0.00146013
-0.00171515
-0.00186811
-0.00203056
-0.00218659
-0.000511614
-0.000591609
-0.000744492
-0.000893896
-0.000948392
-0.000937835
-0.000930549
-0.000984193
-0.000989561
-0.000872097
-0.000819494
-0.000901836
-0.000974751
-0.00106872
-0.00132569
-0.00167952
-0.00196893
-0.00215917
-0.0023156
-0.00243699
-0.000521577
-0.000599207
-0.000746745
-0.000908709
-0.00100195
-0.00100582
-0.000987898
-0.00104083
-0.00108022
-0.00101019
-0.000969614
-0.00105173
-0.00115859
-0.0012876
-0.00154654
-0.00189946
-0.0022129
-0.00243547
-0.00259418
-0.0026877
-0.000532425
-0.00061022
-0.000755312
-0.000924398
-0.0010524
-0.00108005
-0.00105722
-0.00110296
-0.00116822
-0.00114558
-0.00112697
-0.00121124
-0.00134135
-0.00150134
-0.00176637
-0.00211853
-0.00244919
-0.00269807
-0.00286407
-0.00293655
-0.000544752
-0.000624025
-0.000770317
-0.000943423
-0.00109958
-0.00115676
-0.00113804
-0.00117421
-0.00125516
-0.00127653
-0.00128709
-0.00137868
-0.00152609
-0.00171026
-0.00198315
-0.00233507
-0.00267821
-0.00294831
-0.00312378
-0.0031817
-0.000559153
-0.000640521
-0.00079148
-0.000967507
-0.00114424
-0.00123333
-0.00122887
-0.00125666
-0.00134341
-0.00140287
-0.00144643
-0.0015502
-0.00171354
-0.00191688
-0.0021964
-0.00254786
-0.00289905
-0.00318631
-0.00337244
-0.00342158
-0.000576189
-0.000659712
-0.000817967
-0.000997985
-0.00118834
-0.00130811
-0.00132655
-0.00135073
-0.00143647
-0.00152505
-0.00160283
-0.00172319
-0.00190106
-0.00212181
-0.00240659
-0.00275653
-0.0031118
-0.00341171
-0.00360931
-0.0036546
-0.000596472
-0.000681758
-0.000848739
-0.00103548
-0.00123466
-0.00138073
-0.00142709
-0.00145496
-0.00153768
-0.0016448
-0.00175393
-0.00189542
-0.00208702
-0.00232288
-0.00261347
-0.00296121
-0.00331775
-0.00362493
-0.00383298
-0.00387879
-0.000620457
-0.000707129
-0.000883075
-0.00107967
-0.00128571
-0.0014522
-0.00152764
-0.00156698
-0.00164777
-0.00176557
-0.00189935
-0.00206298
-0.00227041
-0.00251894
-0.00281531
-0.00316115
-0.00351747
-0.00382769
-0.00404263
-0.00409216
-0.000648497
-0.000736379
-0.000920812
-0.00112985
-0.00134274
-0.00152415
-0.00162715
-0.00168373
-0.00176533
-0.00188954
-0.00204113
-0.00222336
-0.00244776
-0.00270914
-0.00301042
-0.00335428
-0.0037096
-0.00402122
-0.0042391
-0.00429323
-0.000680877
-0.0007701
-0.000962101
-0.00118507
-0.00140609
-0.00159878
-0.00172589
-0.00180231
-0.00188871
-0.00201651
-0.00218094
-0.00237786
-0.0026156
-0.00289025
-0.00319737
-0.00353872
-0.00389176
-0.00420442
-0.00442313
-0.00448064
-0.000717774
-0.000808841
-0.00100744
-0.00124434
-0.0014755
-0.00167789
-0.00182466
-0.00192075
-0.00201605
-0.0021463
-0.00231818
-0.00252695
-0.00277406
-0.0030585
-0.00337307
-0.00371274
-0.00406168
-0.00437447
-0.00459378
-0.00465318
-0.000759412
-0.000852944
-0.00105752
-0.00130723
-0.0015503
-0.00176235
-0.00192494
-0.00203888
-0.00214484
-0.00227831
-0.00245273
-0.00266875
-0.00292338
-0.00321293
-0.00353333
-0.00387357
-0.00421783
-0.0045292
-0.00474915
-0.00481019
-0.000806074
-0.000902564
-0.00111279
-0.00137427
-0.00162996
-0.00185196
-0.00202789
-0.00215762
-0.00227378
-0.00241037
-0.00258509
-0.00280201
-0.00306073
-0.00335331
-0.00367525
-0.00401681
-0.00435789
-0.00466694
-0.00488804
-0.00495093
-0.000857954
-0.000957683
-0.00117354
-0.00144589
-0.00171446
-0.00194675
-0.00213385
-0.00227723
-0.00240278
-0.00254076
-0.0027143
-0.00292771
-0.00318351
-0.00347678
-0.00379699
-0.00413687
-0.00447628
-0.00478313
-0.00500626
-0.00507258
-0.000915318
-0.00101841
-0.0012401
-0.00152244
-0.00180341
-0.00204677
-0.002244
-0.00239813
-0.00253191
-0.00266961
-0.00283859
-0.00304557
-0.00329127
-0.00357845
-0.00389481
-0.00422886
-0.00456521
-0.00487034
-0.00509592
-0.00516826
-0.000978486
-0.00108481
-0.00131234
-0.0016043
-0.00189722
-0.00215161
-0.00235901
-0.00252202
-0.0026614
-0.00279787
-0.00295866
-0.0031539
-0.00338415
-0.00365481
-0.00395955
-0.0042846
-0.00461501
-0.00491943
-0.00514893
-0.00523023
-0.00104772
-0.00115724
-0.00139029
-0.0016909
-0.00199629
-0.00226237
-0.00247929
-0.00265027
-0.00279284
-0.00292563
-0.00307611
-0.00325356
-0.00346184
-0.00370514
-0.00398216
-0.00428694
-0.00460507
-0.0049092
-0.00514962
-0.00524935
-0.00112322
-0.00123634
-0.00147351
-0.00178245
-0.00210046
-0.00237939
-0.00260698
-0.00278539
-0.00292956
-0.00305484
-0.00319025
-0.00334392
-0.00352292
-0.00373025
-0.00396361
-0.00422722
-0.0045099
-0.00479243
-0.00503631
-0.00516927
-0.001204
-0.00131976
-0.00156237
-0.00188058
-0.00221083
-0.0025024
-0.00274251
-0.00293212
-0.00307989
-0.00319472
-0.00330535
-0.00342284
-0.00355799
-0.00372068
-0.00390757
-0.00412344
-0.0043586
-0.004589
-0.00477935
-0.00487509
-0.0012887
-0.00140718
-0.00165836
-0.00198526
-0.00232601
-0.00263054
-0.00288468
-0.00309104
-0.00325518
-0.00337376
-0.00346053
-0.00351026
-0.00352505
-0.00354391
-0.00360212
-0.0037322
-0.00396582
-0.00428603
-0.00462737
-0.00488458
-0.00137927
-0.00150405
-0.00176046
-0.00209263
-0.00244024
-0.00275624
-0.00302739
-0.0032568
-0.00344754
-0.00359926
-0.0037462
-0.00388343
-0.00392037
-0.00377726
-0.0034901
-0.0031759
-0.00291576
-0.00273683
-0.00265255
-0.0026964
-0.0014767
-0.00161073
-0.00187104
-0.00220439
-0.00255507
-0.00287651
-0.00315786
-0.00340756
-0.00362037
-0.0037583
-0.00375755
-0.00359521
-0.00337627
-0.00320259
-0.00310953
-0.00307398
-0.00306914
-0.00307281
-0.00308788
-0.00316993
-0.00158014
-0.0017076
-0.00198088
-0.00233044
-0.0027107
-0.00307478
-0.00337941
-0.0035701
-0.00360438
-0.00353478
-0.00345161
-0.0033928
-0.0033549
-0.00331086
-0.00322025
-0.00307438
-0.00286926
-0.00265127
-0.00249023
-0.002471
-0.00171588
-0.00184432
-0.00205377
-0.00233085
-0.00265892
-0.00297972
-0.00323427
-0.00339867
-0.00348485
-0.00351359
-0.00354059
-0.00358689
-0.00364834
-0.00374189
-0.00384317
-0.00390043
-0.00385362
-0.00364785
-0.00330397
-0.00296194
-0.00183224
-0.00199391
-0.00221156
-0.00247119
-0.0027619
-0.00304075
-0.00326604
-0.00342017
-0.00351452
-0.0035477
-0.00352761
-0.00348362
-0.00340186
-0.00327971
-0.00313204
-0.00295844
-0.00277801
-0.00262236
-0.0025444
-0.00261258
-0.00184546
-0.00199871
-0.00227741
-0.00260682
-0.0029288
-0.00318907
-0.00335666
-0.00342553
-0.00343681
-0.00342816
-0.00340362
-0.00338865
-0.00338638
-0.00337403
-0.0033542
-0.00331303
-0.00324458
-0.00316132
-0.00310822
-0.00316873
0.0300216
0.0200892
0.00836456
0.000379537
-0.00248009
-0.0025115
-0.00237993
-0.00280243
-0.00346266
-0.00393627
-0.00412738
-0.00420746
-0.00431553
-0.00451751
-0.00487586
-0.00530869
-0.00562633
-0.00582806
-0.00606322
-0.00638013
-0.00674266
-0.00709938
-0.00740132
-0.00768111
-0.00801602
-0.00840859
-0.00879612
-0.00913267
-0.00942864
-0.00972983
-0.0100536
-0.010372
-0.0106639
-0.0109513
-0.0112623
-0.0115879
-0.0119066
-0.012231
-0.0125852
-0.0129519
-0.0133002
-0.0136393
-0.0139952
-0.0143518
-0.0146804
-0.0150092
-0.0153687
-0.015738
-0.0161055
-0.0164942
-0.0169088
-0.0173115
-0.0176968
-0.0180982
-0.018501
-0.0188895
-0.0193006
-0.0197359
-0.0201711
-0.0206143
-0.0210685
-0.02152
-0.0219734
-0.0224324
-0.0229014
-0.0233801
-0.0238686
-0.0243684
-0.0248803
-0.0253977
-0.0259188
-0.0264458
-0.0269821
-0.0275297
-0.0280909
-0.028658
-0.0292356
-0.0298218
-0.0304193
-0.0310261
-0.0316421
-0.0322665
-0.032901
-0.0335471
-0.0342045
-0.0348704
-0.0355462
-0.0362324
-0.0369313
-0.0376407
-0.0383623
-0.0390944
-0.039838
-0.0405955
-0.041363
-0.0421441
-0.0429491
-0.0437351
-0.04451
-0.0453171
0.0283477
0.0198872
0.00844496
0.000514731
-0.00239091
-0.00246501
-0.00235193
-0.00278546
-0.00345203
-0.00392884
-0.00412136
-0.004202
-0.00431019
-0.00451212
-0.00487081
-0.00530447
-0.00562276
-0.0058247
-0.00606001
-0.00637717
-0.00674
-0.00709707
-0.00739925
-0.00767911
-0.00801409
-0.00840682
-0.00879454
-0.00913122
-0.00942726
-0.00972849
-0.0100524
-0.0103708
-0.0106628
-0.0109503
-0.0112613
-0.011587
-0.0119058
-0.0122302
-0.0125844
-0.0129511
-0.0132996
-0.0136387
-0.0139946
-0.0143512
-0.0146799
-0.0150087
-0.0153682
-0.0157375
-0.016105
-0.0164938
-0.0169084
-0.0173111
-0.0176964
-0.0180978
-0.0185007
-0.0188892
-0.0193002
-0.0197356
-0.0201708
-0.020614
-0.0210682
-0.0215198
-0.0219731
-0.0224321
-0.0229012
-0.0233799
-0.0238684
-0.0243682
-0.0248801
-0.0253975
-0.0259186
-0.0264456
-0.0269819
-0.0275296
-0.0280907
-0.0286579
-0.0292354
-0.0298217
-0.0304192
-0.0310259
-0.031642
-0.0322664
-0.0329009
-0.033547
-0.0342044
-0.0348703
-0.0355461
-0.0362323
-0.0369312
-0.0376406
-0.0383622
-0.0390943
-0.0398379
-0.0405955
-0.041363
-0.042144
-0.042949
-0.0437351
-0.0445099
-0.045317
0.0270699
0.0197676
0.00863763
0.000765649
-0.0022495
-0.0024121
-0.00232234
-0.00276127
-0.0034336
-0.00391576
-0.0041123
-0.00419583
-0.00430567
-0.00450793
-0.00486646
-0.00530032
-0.00561905
-0.00582137
-0.00605704
-0.00637446
-0.00673748
-0.00709483
-0.00739725
-0.00767724
-0.00801236
-0.00840528
-0.00879317
-0.00912996
-0.00942604
-0.00972731
-0.0100513
-0.0103698
-0.0106619
-0.0109494
-0.0112605
-0.0115862
-0.011905
-0.0122295
-0.0125837
-0.0129505
-0.013299
-0.0136381
-0.013994
-0.0143507
-0.0146794
-0.0150082
-0.0153678
-0.0157371
-0.0161046
-0.0164934
-0.016908
-0.0173108
-0.0176961
-0.0180975
-0.0185004
-0.0188889
-0.0192999
-0.0197353
-0.0201705
-0.0206138
-0.021068
-0.0215196
-0.0219729
-0.0224319
-0.022901
-0.0233797
-0.0238682
-0.024368
-0.0248799
-0.0253974
-0.0259184
-0.0264455
-0.0269818
-0.0275294
-0.0280906
-0.0286577
-0.0292353
-0.0298216
-0.030419
-0.0310258
-0.0316419
-0.0322662
-0.0329008
-0.0335469
-0.0342043
-0.0348702
-0.035546
-0.0362322
-0.0369311
-0.0376406
-0.0383621
-0.0390942
-0.0398378
-0.0405954
-0.0413629
-0.0421439
-0.042949
-0.043735
-0.0445099
-0.0453171
0.0258782
0.0196003
0.00885369
0.0010655
-0.00206667
-0.00234219
-0.00227978
-0.00272244
-0.00340116
-0.00389101
-0.00409512
-0.00418558
-0.00430039
-0.00450454
-0.00486238
-0.00529511
-0.00561386
-0.00581728
-0.00605402
-0.00637165
-0.00673441
-0.00709177
-0.00739458
-0.00767502
-0.00801045
-0.00840353
-0.00879155
-0.00912852
-0.00942474
-0.00972607
-0.0100501
-0.0103687
-0.0106608
-0.0109484
-0.0112595
-0.0115853
-0.0119042
-0.0122287
-0.012583
-0.0129499
-0.0132984
-0.0136375
-0.0139935
-0.0143502
-0.0146789
-0.0150077
-0.0153673
-0.0157367
-0.0161042
-0.016493
-0.0169076
-0.0173105
-0.0176958
-0.0180972
-0.0185001
-0.0188885
-0.0192996
-0.0197351
-0.0201703
-0.0206135
-0.0210678
-0.0215193
-0.0219727
-0.0224317
-0.0229008
-0.0233795
-0.023868
-0.0243678
-0.0248797
-0.0253972
-0.0259183
-0.0264453
-0.0269816
-0.0275293
-0.0280904
-0.0286576
-0.0292352
-0.0298214
-0.0304189
-0.0310257
-0.0316417
-0.0322661
-0.0329007
-0.0335468
-0.0342042
-0.0348701
-0.0355459
-0.0362321
-0.0369311
-0.0376405
-0.038362
-0.0390941
-0.0398377
-0.0405953
-0.0413628
-0.0421439
-0.0429489
-0.043735
-0.0445099
-0.0453172
0.0246766
0.0193518
0.00906155
0.00137868
-0.0018671
-0.00226418
-0.00223092
-0.00267294
-0.00335533
-0.0038533
-0.00406757
-0.00416875
-0.00429258
-0.00450125
-0.00485833
-0.00528826
-0.00560636
-0.00581188
-0.00605087
-0.00636892
-0.00673076
-0.0070875
-0.00739075
-0.00767209
-0.00800804
-0.00840114
-0.00878923
-0.00912657
-0.0094232
-0.00972467
-0.0100486
-0.0103672
-0.0106595
-0.0109471
-0.0112584
-0.0115842
-0.0119031
-0.0122277
-0.0125822
-0.0129491
-0.0132976
-0.0136368
-0.0139928
-0.0143496
-0.0146784
-0.0150071
-0.0153668
-0.0157362
-0.0161037
-0.0164925
-0.0169072
-0.0173101
-0.0176954
-0.0180968
-0.0184997
-0.0188882
-0.0192993
-0.0197348
-0.02017
-0.0206132
-0.0210675
-0.0215191
-0.0219724
-0.0224315
-0.0229005
-0.0233793
-0.0238678
-0.0243676
-0.0248795
-0.025397
-0.0259181
-0.0264451
-0.0269814
-0.0275291
-0.0280903
-0.0286574
-0.029235
-0.0298213
-0.0304188
-0.0310256
-0.0316416
-0.032266
-0.0329006
-0.0335467
-0.0342041
-0.03487
-0.0355458
-0.036232
-0.036931
-0.0376404
-0.038362
-0.039094
-0.0398376
-0.0405952
-0.0413627
-0.0421438
-0.0429488
-0.0437349
-0.0445099
-0.0453174
0.0234748
0.0190355
0.0092627
0.00169909
-0.00165748
-0.00218274
-0.00218232
-0.0026204
-0.00330284
-0.00380733
-0.0040321
-0.00414597
-0.00428171
-0.00449723
-0.00485378
-0.00527964
-0.00559652
-0.00580504
-0.00604753
-0.0063664
-0.00672673
-0.00708216
-0.00738587
-0.00766854
-0.00800506
-0.0083978
-0.00878571
-0.00912369
-0.0094212
-0.00972301
-0.0100468
-0.0103654
-0.0106579
-0.0109457
-0.0112569
-0.0115827
-0.0119017
-0.0122265
-0.0125811
-0.0129481
-0.0132967
-0.013636
-0.0139921
-0.0143489
-0.0146777
-0.0150064
-0.0153661
-0.0157356
-0.0161031
-0.016492
-0.0169067
-0.0173096
-0.0176949
-0.0180964
-0.0184993
-0.0188878
-0.0192989
-0.0197344
-0.0201696
-0.0206129
-0.0210672
-0.0215188
-0.0219722
-0.0224312
-0.0229003
-0.023379
-0.0238675
-0.0243673
-0.0248793
-0.0253968
-0.0259179
-0.0264449
-0.0269812
-0.0275289
-0.0280901
-0.0286573
-0.0292349
-0.0298211
-0.0304186
-0.0310254
-0.0316415
-0.0322659
-0.0329004
-0.0335465
-0.0342039
-0.0348699
-0.0355457
-0.0362319
-0.0369309
-0.0376403
-0.0383619
-0.0390939
-0.0398375
-0.0405952
-0.0413627
-0.0421437
-0.0429488
-0.0437349
-0.0445099
-0.0453177
0.0222921
0.018665
0.00945447
0.00202275
-0.00143941
-0.00209805
-0.00213531
-0.00256772
-0.00324745
-0.00375712
-0.00399202
-0.00411917
-0.00426823
-0.00449201
-0.00484832
-0.0052695
-0.00558494
-0.00579713
-0.00604396
-0.00636394
-0.00672241
-0.00707611
-0.00738038
-0.00766478
-0.00800179
-0.00839352
-0.00878076
-0.00911954
-0.00941846
-0.00972089
-0.0100445
-0.010363
-0.0106559
-0.0109442
-0.0112553
-0.0115808
-0.0118999
-0.0122249
-0.0125796
-0.0129467
-0.0132956
-0.013635
-0.0139911
-0.014348
-0.0146768
-0.0150056
-0.0153653
-0.0157348
-0.0161024
-0.0164913
-0.0169061
-0.0173091
-0.0176944
-0.0180959
-0.0184989
-0.0188873
-0.0192984
-0.019734
-0.0201692
-0.0206126
-0.0210669
-0.0215185
-0.0219718
-0.0224309
-0.0228999
-0.0233787
-0.0238673
-0.0243671
-0.024879
-0.0253966
-0.0259177
-0.0264447
-0.026981
-0.0275287
-0.0280899
-0.0286571
-0.0292347
-0.029821
-0.0304185
-0.0310253
-0.0316413
-0.0322657
-0.0329003
-0.0335464
-0.0342038
-0.0348698
-0.0355456
-0.0362318
-0.0369307
-0.0376402
-0.0383618
-0.0390938
-0.0398374
-0.0405951
-0.0413626
-0.0421436
-0.0429487
-0.0437349
-0.0445099
-0.045318
0.0211439
0.0182432
0.00962682
0.00234471
-0.00121269
-0.00200807
-0.00208913
-0.00251541
-0.00319025
-0.00370418
-0.00394902
-0.00408962
-0.00425261
-0.00448545
-0.00484195
-0.00525832
-0.00557228
-0.00578853
-0.00604013
-0.00636134
-0.00671777
-0.00706961
-0.00737472
-0.00766125
-0.00799864
-0.00838866
-0.00877458
-0.0091141
-0.0094148
-0.00971811
-0.0100414
-0.0103599
-0.0106536
-0.0109426
-0.0112535
-0.0115787
-0.0118978
-0.0122231
-0.0125777
-0.0129448
-0.013294
-0.0136337
-0.01399
-0.0143469
-0.0146759
-0.0150048
-0.0153643
-0.0157338
-0.0161015
-0.0164906
-0.0169054
-0.0173084
-0.0176938
-0.0180953
-0.0184983
-0.0188867
-0.0192979
-0.0197335
-0.0201688
-0.0206121
-0.0210665
-0.0215181
-0.0219715
-0.0224305
-0.0228996
-0.0233784
-0.0238669
-0.0243668
-0.0248788
-0.0253963
-0.0259174
-0.0264445
-0.0269808
-0.0275285
-0.0280897
-0.0286569
-0.0292345
-0.0298208
-0.0304183
-0.0310251
-0.0316412
-0.0322656
-0.0329001
-0.0335463
-0.0342037
-0.0348696
-0.0355455
-0.0362317
-0.0369306
-0.0376401
-0.0383616
-0.0390937
-0.0398373
-0.040595
-0.0413625
-0.0421435
-0.0429486
-0.0437348
-0.04451
-0.0453185
0.02004
0.0177697
0.0097707
0.00266284
-0.000975176
-0.0019098
-0.00204268
-0.00246393
-0.00313188
-0.00364915
-0.00390374
-0.0040578
-0.00423509
-0.00447771
-0.00483486
-0.00524645
-0.00555891
-0.00577941
-0.00603601
-0.00635848
-0.00671276
-0.00706276
-0.007369
-0.00765803
-0.0079958
-0.00838364
-0.00876765
-0.00910764
-0.00941024
-0.00971459
-0.0100377
-0.0103561
-0.0106508
-0.0109407
-0.0112516
-0.0115764
-0.0118956
-0.0122211
-0.0125756
-0.0129425
-0.0132919
-0.0136321
-0.0139884
-0.0143455
-0.0146748
-0.0150038
-0.0153632
-0.0157326
-0.0161004
-0.0164895
-0.0169044
-0.0173075
-0.0176931
-0.0180946
-0.0184976
-0.0188861
-0.0192973
-0.0197328
-0.0201682
-0.0206116
-0.021066
-0.0215176
-0.021971
-0.0224301
-0.0228992
-0.023378
-0.0238666
-0.0243664
-0.0248784
-0.025396
-0.0259171
-0.0264442
-0.0269805
-0.0275282
-0.0280894
-0.0286566
-0.0292342
-0.0298205
-0.030418
-0.0310249
-0.031641
-0.0322654
-0.0329
-0.0335461
-0.0342035
-0.0348695
-0.0355453
-0.0362315
-0.0369305
-0.0376399
-0.0383615
-0.0390936
-0.0398372
-0.0405948
-0.0413623
-0.0421434
-0.0429485
-0.0437347
-0.04451
-0.0453191
0.018985
0.0172471
0.00988142
0.00297681
-0.00072512
-0.00180124
-0.00199576
-0.00241452
-0.00307342
-0.00359244
-0.00385627
-0.00402372
-0.00421574