/*--------------------------------*- C++ -*----------------------------------*\
| =========                 |                                                 |
| \\      /  F ield         | OpenFOAM: The Open Source CFD Toolbox           |
|  \\    /   O peration     | Version:  v1812                                 |
|   \\  /    A nd           | Web:      www.OpenFOAM.com                      |
|    \\/     M anipulation  |                                                 |
\*---------------------------------------------------------------------------*/
FoamFile
{
    version     2.0;
    format      ascii;
    class       volVectorField;
    location    "2.5";
    object      U;
}
// * * * * * * * * * * * * * * * * * * * * * * * * * * * * * * * * * * * * * //

dimensions      [0 1 -1 0 0 0 0];


internalField   nonuniform List<vector> 
9600
(
(0.872981 0.00242036 0)
(1.11912 -0.00452775 0)
(0.869615 0.000400336 0)
(1.15385 0.00511913 0)
(0.874112 0.00519803 0)
(1.03042 -0.00806292 0)
(0.906744 -0.000665633 0)
(1.12655 -0.0157554 0)
(0.864508 0.00472604 0)
(1.15798 0.00485603 0)
(0.838627 0.00612286 0)
(1.10486 0.0145931 0)
(0.861794 0.00629824 0)
(1.04627 0.00541905 0)
(0.883524 -0.00377196 0)
(1.03976 -0.00583566 0)
(0.884456 -0.00578265 0)
(1.05394 -0.0167291 0)
(0.859519 -0.00239461 0)
(1.07497 -0.0206487 0)
(0.881313 0.00240528 0)
(1.10791 -0.00433647 0)
(0.878082 -6.9698e-05 0)
(1.14071 0.00517313 0)
(0.889956 0.00624207 0)
(1.01913 -0.00816193 0)
(0.915901 -0.0021436 0)
(1.1092 -0.0150045 0)
(0.876338 0.00408294 0)
(1.13602 0.00550788 0)
(0.865043 0.00670079 0)
(1.07208 0.0144297 0)
(0.904767 0.00730447 0)
(1.00676 0.00510903 0)
(0.93571 -0.00362097 0)
(0.990739 -0.00598153 0)
(0.953295 -0.00589073 0)
(0.983374 -0.0167882 0)
(0.956382 -0.00207801 0)
(0.969993 -0.022343 0)
(0.897425 0.0024217 0)
(1.08898 -0.00419023 0)
(0.895748 -0.000472755 0)
(1.11508 0.00528245 0)
(0.91617 0.00718335 0)
(1.00511 -0.00832318 0)
(0.932018 -0.00318641 0)
(1.08423 -0.0144163 0)
(0.902824 0.0034967 0)
(1.09758 0.00590492 0)
(0.909004 0.00747859 0)
(1.02436 0.0140167 0)
(0.945439 0.00825677 0)
(0.978855 0.00461027 0)
(0.962817 -0.00343741 0)
(0.974738 -0.00633984 0)
(0.971965 -0.00600305 0)
(0.975909 -0.0163146 0)
(0.97098 -0.00307633 0)
(0.976283 -0.0181781 0)
(0.918663 0.00246803 0)
(1.06642 -0.00409298 0)
(0.919232 -0.00073553 0)
(1.08281 0.0052322 0)
(0.944701 0.00795537 0)
(0.994318 -0.00833596 0)
(0.950321 -0.00402093 0)
(1.0583 -0.0140904 0)
(0.934824 0.00329454 0)
(1.05856 0.00590474 0)
(0.948678 0.00841245 0)
(0.99052 0.0135994 0)
(0.966684 0.00875489 0)
(0.974082 0.00437902 0)
(0.972874 -0.00342258 0)
(0.977026 -0.00660687 0)
(0.977922 -0.00592016 0)
(0.979222 -0.016431 0)
(0.975144 -0.00295181 0)
(0.978497 -0.0168254 0)
(0.941248 0.00253168 0)
(1.04473 -0.00402809 0)
(0.943202 -0.000897199 0)
(1.05132 0.0050787 0)
(0.969008 0.00858762 0)
(0.990018 -0.00825326 0)
(0.965978 -0.00470918 0)
(1.03682 -0.013948 0)
(0.961557 0.00331109 0)
(1.03039 0.00578652 0)
(0.973655 0.00930893 0)
(0.977942 0.013453 0)
(0.97696 0.00889266 0)
(0.979862 0.00424676 0)
(0.981061 -0.00342401 0)
(0.982137 -0.00678583 0)
(0.984338 -0.00592949 0)
(0.982457 -0.0162353 0)
(0.979305 -0.00304929 0)
(0.979891 -0.0156954 0)
(0.961583 0.002597 0)
(1.02741 -0.00399116 0)
(0.96325 -0.000963153 0)
(1.0264 0.00490457 0)
(0.986113 0.00900816 0)
(0.991607 -0.00810881 0)
(0.977153 -0.00520726 0)
(1.02153 -0.0139214 0)
(0.978189 0.00339597 0)
(1.01451 0.00571377 0)
(0.986144 0.00998878 0)
(0.978498 0.0134841 0)
(0.984634 0.00882243 0)
(0.987593 0.00408452 0)
(0.989208 -0.00336614 0)
(0.987704 -0.00693108 0)
(0.989764 -0.00589635 0)
(0.986075 -0.0158682 0)
(0.98228 -0.00326592 0)
(0.981834 -0.0143896 0)
(0.977388 0.00264712 0)
(1.01573 -0.00396561 0)
(0.977478 -0.000951314 0)
(1.01018 0.00473354 0)
(0.996445 0.00920405 0)
(0.99615 -0.00791685 0)
(0.984723 -0.00551036 0)
(1.01136 -0.0139428 0)
(0.985763 0.00348355 0)
(1.00668 0.00567974 0)
(0.991894 0.0104305 0)
(0.983615 0.0135211 0)
(0.991837 0.00866447 0)
(0.994783 0.00390946 0)
(0.996021 -0.00327031 0)
(0.993091 -0.00698914 0)
(0.99393 -0.00581368 0)
(0.989502 -0.0153851 0)
(0.984512 -0.00349431 0)
(0.98355 -0.0129581 0)
(0.988116 0.00267256 0)
(1.00894 -0.00393618 0)
(0.986323 -0.000894785 0)
(1.00149 0.00457181 0)
(1.00204 0.00922521 0)
(1.00085 -0.00770255 0)
(0.990224 -0.00564975 0)
(1.00459 -0.0139479 0)
(0.987782 0.00353896 0)
(1.00256 0.00563463 0)
(0.994796 0.0106806 0)
(0.989148 0.0134936 0)
(0.998133 0.00848165 0)
(1.00078 0.00374363 0)
(1.00123 -0.00313943 0)
(0.997567 -0.00695434 0)
(0.997237 -0.00570664 0)
(0.992397 -0.0147947 0)
(0.986503 -0.00368468 0)
(0.985004 -0.0114736 0)
(0.994564 0.0026739 0)
(1.00536 -0.00389836 0)
(0.99136 -0.000819231 0)
(0.997731 0.0044208 0)
(1.00488 0.00913476 0)
(1.00429 -0.00749297 0)
(0.994555 -0.00566033 0)
(0.999999 -0.0138915 0)
(0.987456 0.00355469 0)
(0.999818 0.00555447 0)
(0.996434 0.0107722 0)
(0.993751 0.0133978 0)
(1.00305 0.00828697 0)
(1.00532 0.00359803 0)
(1.00498 -0.00297058 0)
(1.00088 -0.0068511 0)
(0.999765 -0.00559446 0)
(0.994741 -0.014089 0)
(0.988332 -0.00383595 0)
(0.986362 -0.0100095 0)
(0.998068 0.00265794 0)
(1.00346 -0.00385385 0)
(0.994157 -0.000739734 0)
(0.996511 0.00427772 0)
(1.00622 0.00898265 0)
(1.00627 -0.00730086 0)
(0.997949 -0.00557717 0)
(0.996967 -0.0137611 0)
(0.986685 0.00353894 0)
(0.997722 0.00543924 0)
(0.997309 0.0107286 0)
(0.997093 0.013242 0)
(1.00649 0.00808073 0)
(1.00838 0.00348388 0)
(1.00745 -0.00278121 0)
(1.00311 -0.00669222 0)
(1.00151 -0.00547829 0)
(0.996531 -0.013295 0)
(0.98994 -0.00396219 0)
(0.987644 -0.00860743 0)
(0.999845 0.00263245 0)
(1.00236 -0.00380571 0)
(0.995757 -0.000664409 0)
(0.996326 0.00413987 0)
(1.00676 0.00879997 0)
(1.00716 -0.00712656 0)
(1.00042 -0.00543605 0)
(0.995134 -0.0135657 0)
(0.986206 0.00350187 0)
(0.9962 0.005302 0)
(0.99768 0.0105749 0)
(0.999223 0.0130363 0)
(1.00858 0.00786534 0)
(1.01015 0.00340532 0)
(1.00885 -0.00259824 0)
(1.00444 -0.00647587 0)
(1.00258 -0.00536252 0)
(0.997782 -0.0124577 0)
(0.991272 -0.00406232 0)
(0.988793 -0.00729112 0)
(1.00071 0.00260264 0)
(1.00169 -0.00375576 0)
(0.996699 -0.000594649 0)
(0.996442 0.00400654 0)
(1.0069 0.0086044 0)
(1.0074 -0.0069676 0)
(1.00203 -0.0052634 0)
(0.994206 -0.0133177 0)
(0.986116 0.00345069 0)
(0.995252 0.00516134 0)
(0.997776 0.0103366 0)
(1.00037 0.0127996 0)
(1.00963 0.00764116 0)
(1.01092 0.00335533 0)
(1.00945 -0.00242811 0)
(1.00509 -0.00620926 0)
(1.00311 -0.00526157 0)
(0.998574 -0.0116093 0)
(0.992315 -0.00411292 0)
(0.989763 -0.00608765 0)
(1.00112 0.00257068 0)
(1.00131 -0.00370426 0)
(0.997244 -0.000529626 0)
(0.996582 0.00387703 0)
(1.00685 0.00840249 0)
(1.00733 -0.00681752 0)
(1.00295 -0.00507691 0)
(0.993902 -0.0130297 0)
(0.986293 0.00338845 0)
(0.994764 0.00503089 0)
(0.997765 0.0100387 0)
(1.0008 0.0125498 0)
(1.00995 0.00740512 0)
(1.01104 0.0033288 0)
(1.00952 -0.00226792 0)
(1.00529 -0.00591234 0)
(1.00328 -0.00516624 0)
(0.999025 -0.0107782 0)
(0.993104 -0.00409445 0)
(0.990545 -0.00501415 0)
(1.00129 0.00253691 0)
(1.00113 -0.00365081 0)
(0.997542 -0.00046729 0)
(0.996675 0.00374897 0)
(1.00675 0.00819474 0)
(1.00715 -0.0066689 0)
(1.00339 -0.00488905 0)
(0.993968 -0.0127107 0)
(0.986611 0.00331571 0)
(0.994562 0.00491874 0)
(0.997733 0.00969952 0)
(1.00078 0.0123013 0)
(1.00982 0.00715029 0)
(1.01077 0.00332744 0)
(1.00929 -0.00212716 0)
(1.00524 -0.00559538 0)
(1.00324 -0.00505538 0)
(0.999259 -0.00998576 0)
(0.993703 -0.00400733 0)
(0.991161 -0.00407073 0)
(1.00136 0.00250099 0)
(1.00106 -0.00359452 0)
(0.997703 -0.000405956 0)
(0.996726 0.00362052 0)
(1.00664 0.00798081 0)
(1.00694 -0.00651572 0)
(1.00353 -0.00470721 0)
(0.994209 -0.012365 0)
(0.986994 0.00323038 0)
(0.994501 0.00482938 0)
(0.99772 0.00933041 0)
(1.0005 0.0120611 0)
(1.00945 0.00688013 0)
(1.01032 0.00333737 0)
(1.00892 -0.00199883 0)
(1.00507 -0.0052769 0)
(1.0031 -0.00490816 0)
(0.999374 -0.00924165 0)
(0.994185 -0.00386654 0)
(0.991653 -0.00324696 0)
(1.00139 0.00246264 0)
(1.00103 -0.00353478 0)
(0.997807 -0.000344966 0)
(0.996759 0.00349095 0)
(1.00655 0.00775975 0)
(1.00672 -0.00635391 0)
(1.00352 -0.00453509 0)
(0.9945 -0.011996 0)
(0.987406 0.00313157 0)
(0.994502 0.00476311 0)
(0.99775 0.00893922 0)
(1.00015 0.0118309 0)
(1.00901 0.00659749 0)
(1.00982 0.00334983 0)
(1.00852 -0.00186823 0)
(1.00486 -0.00497403 0)
(1.00294 -0.00470806 0)
(0.999434 -0.00855255 0)
(0.994602 -0.00368418 0)
(0.992064 -0.00252134 0)
(1.00139 0.0024218 0)
(1.00102 -0.00347134 0)
(0.997901 -0.000284445 0)
(0.996798 0.00336056 0)
(1.00644 0.00753055 0)
(1.00649 -0.00618105 0)
(1.00344 -0.00437427 0)
(0.994779 -0.011605 0)
(0.987833 0.00301601 0)
(0.994541 0.00472411 0)
(0.997833 0.00852483 0)
(0.999819 0.0116165 0)
(1.00856 0.00630211 0)
(1.00936 0.00335705 0)
(1.00812 -0.0017358 0)
(1.00467 -0.00469585 0)
(1.00278 -0.00445293 0)
(0.99948 -0.00790916 0)
(0.99499 -0.00347641 0)
(0.992429 -0.00186492 0)
(1.00139 0.00237842 0)
(1.00099 -0.00340387 0)
(0.998 -0.000225514 0)
(0.99686 0.00323134 0)
(1.00631 0.00729195 0)
(1.00627 -0.00599522 0)
(1.00333 -0.00422665 0)
(0.995032 -0.0111911 0)
(0.988264 0.00288085 0)
(0.994616 0.00470997 0)
(0.997967 0.00809144 0)
(0.999561 0.0114097 0)
(1.00816 0.00600657 0)
(1.00895 0.00335922 0)
(1.00775 -0.00157358 0)
(1.0045 -0.0044609 0)
(1.00263 -0.00414581 0)
(0.99953 -0.00728619 0)
(0.995367 -0.00327575 0)
(0.992772 -0.00126012 0)
(1.00137 0.00233254 0)
(1.00097 -0.00333207 0)
(0.998101 -0.000169644 0)
(0.996956 0.00310464 0)
(1.00615 0.00704389 0)
(1.00605 -0.00579496 0)
(1.00322 -0.00409432 0)
(0.995267 -0.0107535 0)
(0.988691 0.00272556 0)
(0.994727 0.00471501 0)
(0.998134 0.00764338 0)
(0.999384 0.0112008 0)
(1.00779 0.00571623 0)
(1.00859 0.00333219 0)
(1.0074 -0.00136692 0)
(1.00436 -0.00427002 0)
(1.0025 -0.00380876 0)
(0.999586 -0.0066656 0)
(0.995744 -0.00309861 0)
(0.993113 -0.000704395 0)
(1.00132 0.0022841 0)
(1.00097 -0.00325581 0)
(0.998191 -0.000117379 0)
(0.997089 0.00298093 0)
(1.00596 0.00678559 0)
(1.00585 -0.00557939 0)
(1.00309 -0.00397705 0)
(0.995501 -0.0102934 0)
(0.989106 0.00254962 0)
(0.994872 0.00473817 0)
(0.998316 0.00718477 0)
(0.999276 0.0109866 0)
(1.00743 0.00543685 0)
(1.00828 0.00326631 0)
(1.00704 -0.00111855 0)
(1.00425 -0.00410366 0)
(1.00237 -0.00346693 0)
(0.999649 -0.00602806 0)
(0.996119 -0.00294048 0)
(0.993463 -0.00021244 0)
(1.00125 0.00223299 0)
(1.00098 -0.00317464 0)
(0.998259 -7.07758e-05 0)
(0.997259 0.00286435 0)
(1.00574 0.00651349 0)
(1.00566 -0.00534665 0)
(1.00295 -0.00387497 0)
(0.995743 -0.00981135 0)
(0.989503 0.00235173 0)
(0.995045 0.00477873 0)
(0.998496 0.00672005 0)
(0.999216 0.0107594 0)
(1.00709 0.00519298 0)
(1.00801 0.0031705 0)
(1.00668 -0.000820924 0)
(1.00416 -0.00394006 0)
(1.00226 -0.00314418 0)
(0.999715 -0.00535761 0)
(0.996491 -0.00280023 0)
(0.99383 0.000203936 0)
(1.00115 0.00217927 0)
(1.00103 -0.00308808 0)
(0.998301 -3.14717e-05 0)
(0.997459 0.0027562 0)
(1.00549 0.00622905 0)
(1.00549 -0.0050985 0)
(1.00278 -0.00378986 0)
(0.995999 -0.0093076 0)
(0.989884 0.00213707 0)
(0.995238 0.00482628 0)
(0.998667 0.00625604 0)
(0.999191 0.0105094 0)
(1.00673 0.00499643 0)
(1.00777 0.00302535 0)
(1.00631 -0.000492839 0)
(1.00408 -0.00376393 0)
(1.00216 -0.00286132 0)
(0.999779 -0.00465285 0)
(0.996853 -0.00265787 0)
(0.994223 0.000539286 0)
(1.00103 0.00212247 0)
(1.00109 -0.00299496 0)
(0.998321 -5.57313e-07 0)
(0.997679 0.00265693 0)
(1.00523 0.00593208 0)
(1.00533 -0.00483513 0)
(1.00259 -0.00371856 0)
(0.996262 -0.00878965 0)
(0.990253 0.00191235 0)
(0.995439 0.00487316 0)
(0.998826 0.00580696 0)
(0.999188 0.0102229 0)
(1.00637 0.00484063 0)
(1.00755 0.00283285 0)
(1.00592 -0.000153047 0)
(1.00399 -0.00355661 0)
(1.00209 -0.0026279 0)
(0.999841 -0.00393139 0)
(0.997202 -0.00249244 0)
(0.994644 0.00079221 0)
(1.0009 0.00206236 0)
(1.00116 -0.00289397 0)
(0.998328 1.93313e-05 0)
(0.997905 0.00256943 0)
(1.00495 0.00562027 0)
(1.00519 -0.00455476 0)
(1.00239 -0.00365959 0)
(0.996526 -0.00825783 0)
(0.99062 0.00167808 0)
(0.995641 0.00491587 0)
(0.998977 0.00538459 0)
(0.999198 0.009893 0)
(1.00599 0.00472783 0)
(1.00735 0.00261162 0)
(1.00555 0.000179904 0)
(1.0039 -0.00329926 0)
(1.00205 -0.00244366 0)
(0.9999 -0.00322657 0)
(0.997532 -0.00227408 0)
(0.995096 0.000946749 0)
(1.00077 0.00199916 0)
(1.00123 -0.0027854 0)
(0.998335 2.7863e-05 0)
(0.998126 0.00249422 0)
(1.00468 0.00529596 0)
(1.00504 -0.00426013 0)
(1.0022 -0.00361231 0)
(0.996781 -0.00771715 0)
(0.990993 0.00144326 0)
(0.995834 0.00493942 0)
(0.999122 0.0049972 0)
(0.999215 0.00952637 0)
(1.0056 0.00466238 0)
(1.00716 0.00237569 0)
(1.00518 0.000502763 0)
(1.00378 -0.00298654 0)
(1.00204 -0.00229975 0)
(0.999962 -0.00256111 0)
(0.997839 -0.00197505 0)
(0.99557 0.00100311 0)
(1.00065 0.00193248 0)
(1.00129 -0.00266753 0)
(0.998353 2.25535e-05 0)
(0.998329 0.00243247 0)
(1.00442 0.00496044 0)
(1.00489 -0.00395351 0)
(1.00202 -0.00357176 0)
(0.997021 -0.00718126 0)
(0.991381 0.00122011 0)
(0.996015 0.00494044 0)
(0.999267 0.00464238 0)
(0.999235 0.00912944 0)
(1.00522 0.00463443 0)
(1.00697 0.0021356 0)
(1.00484 0.000797935 0)
(1.00364 -0.0026122 0)
(1.00206 -0.00218123 0)
(1.00003 -0.00195077 0)
(0.998118 -0.00160327 0)
(0.996059 0.000986763 0)
(1.00055 0.00186182 0)
(1.00133 -0.0025384 0)
(0.998389 1.38796e-06 0)
(0.998509 0.00238277 0)
(1.00418 0.00461507 0)
(1.00472 -0.00364086 0)
(1.00186 -0.00353005 0)
(0.997242 -0.00665693 0)
(0.991786 0.00101684 0)
(0.996182 0.00490735 0)
(0.999413 0.00432675 0)
(0.999257 0.0086967 0)
(1.00483 0.00463235 0)
(1.00678 0.00190531 0)
(1.00453 0.0010544 0)
(1.00346 -0.00218109 0)
(1.0021 -0.00207344 0)
(1.00012 -0.00142635 0)
(0.998364 -0.00116062 0)
(0.996549 0.000941627 0)
(1.00048 0.00178737 0)
(1.00135 -0.00239995 0)
(0.998446 -3.18331e-05 0)
(0.998667 0.00234213 0)
(1.00396 0.0042633 0)
(1.00453 -0.00332535 0)
(1.00173 -0.00348488 0)
(0.997447 -0.00614708 0)
(0.992207 0.000842805 0)
(0.996337 0.00483985 0)
(0.99956 0.00404998 0)
(0.999281 0.00823871 0)
(1.00445 0.00464784 0)
(1.00659 0.0017038 0)
(1.00426 0.00126133 0)
(1.00326 -0.0017033 0)
(1.00217 -0.0019577 0)
(1.00024 -0.00100224 0)
(0.998578 -0.000662506 0)
(0.99702 0.000926038 0)
(1.00042 0.00170975 0)
(1.00135 -0.00225155 0)
(0.998522 -7.91307e-05 0)
(0.998803 0.00231164 0)
(1.00375 0.00391054 0)
(1.00433 -0.00301218 0)
(1.00162 -0.00342789 0)
(0.99764 -0.00566493 0)
(0.992638 0.000700567 0)
(0.996484 0.00474462 0)
(0.999704 0.00380492 0)
(0.999311 0.00777005 0)
(1.00408 0.00467223 0)
(1.00639 0.0015291 0)
(1.00403 0.00140731 0)
(1.00303 -0.00118623 0)
(1.00223 -0.00180415 0)
(1.00039 -0.000681322 0)
(0.998768 -0.000167207 0)
(0.997451 0.000980291 0)
(1.00038 0.00162823 0)
(1.00133 -0.0020923 0)
(0.998613 -0.000139039 0)
(0.998923 0.00228902 0)
(1.00356 0.00355882 0)
(1.00412 -0.00271256 0)
(1.00153 -0.00334874 0)
(0.997825 -0.00522656 0)
(0.993075 0.000587848 0)
(0.996627 0.00461835 0)
(0.999845 0.00358666 0)
(0.99935 0.00729719 0)
(1.00371 0.00470238 0)
(1.0062 0.00139533 0)
(1.00384 0.0015066 0)
(1.00279 -0.000655801 0)
(1.00227 -0.00159609 0)
(1.00056 -0.000447087 0)
(0.998948 0.000291993 0)
(0.997827 0.00113131 0)
(1.00035 0.00154277 0)
(1.0013 -0.0019238 0)
(0.998714 -0.000208056 0)
(0.99903 0.00226921 0)
(1.00338 0.00321598 0)
(1.0039 -0.00243015 0)
(1.00144 -0.00324525 0)
(0.998006 -0.00482349 0)
(0.993513 0.000503334 0)
(0.996768 0.00447798 0)
(0.999982 0.00339059 0)
(0.999402 0.00682723 0)
(1.00335 0.00473869 0)
(1.00599 0.0013105 0)
(1.0037 0.00155512 0)
(1.00255 -0.000134856 0)
(1.00229 -0.00133135 0)
(1.00077 -0.00027245 0)
(0.999131 0.000709247 0)
(0.998138 0.00138665 0)
(1.00032 0.00145524 0)
(1.00126 -0.00174983 0)
(0.99882 -0.000284337 0)
(0.999128 0.00224978 0)
(1.00321 0.00289066 0)
(1.00368 -0.00217445 0)
(1.00135 -0.00311035 0)
(0.998183 -0.00445409 0)
(0.993948 0.000437906 0)
(0.996909 0.00432875 0)
(1.00011 0.00321889 0)
(0.99947 0.00635907 0)
(1.00299 0.00477132 0)
(1.00578 0.00126741 0)
(1.0036 0.00155559 0)
(1.00231 0.000356051 0)
(1.00227 -0.00100878 0)
(1.00099 -0.000138135 0)
(0.999335 0.00104619 0)
(0.998388 0.00172229 0)
(1.0003 0.00136534 0)
(1.00121 -0.00157136 0)
(0.99893 -0.00036371 0)
(0.999219 0.00222247 0)
(1.00305 0.00259023 0)
(1.00346 -0.00195443 0)
(1.00126 -0.00295045 0)
(0.998356 -0.00412081 0)
(0.994379 0.000378122 0)
(0.99705 0.00416879 0)
(1.00023 0.00306308 0)
(0.999557 0.00590135 0)
(1.00265 0.00479708 0)
(1.00555 0.00128183 0)
(1.00354 0.00152011 0)
(1.0021 0.000805037 0)
(1.00222 -0.000638186 0)
(1.00121 -5.54598e-06 0)
(0.999575 0.00128896 0)
(0.998603 0.00206504 0)
(1.00028 0.00127277 0)
(1.00116 -0.00138856 0)
(0.99904 -0.000440815 0)
(0.999305 0.0021794 0)
(1.00289 0.00232526 0)
(1.00325 -0.00176963 0)
(1.00117 -0.00277047 0)
(0.998523 -0.00381125 0)
(0.994805 0.00032538 0)
(0.997191 0.00400797 0)
(1.00034 0.00292545 0)
(0.999662 0.00546067 0)
(1.00232 0.00481656 0)
(1.00531 0.00135224 0)
(1.00352 0.00145802 0)
(1.00191 0.00120292 0)
(1.00213 -0.000233292 0)
(1.00143 0.000134762 0)
(0.999846 0.00145917 0)
(0.998806 0.00234917 0)
(1.00026 0.00118066 0)
(1.0011 -0.00120949 0)
(0.999148 -0.000510476 0)
(0.999387 0.00211265 0)
(1.00272 0.00209375 0)
(1.00304 -0.00161418 0)
(1.00108 -0.00257584 0)
(0.998685 -0.00351293 0)
(0.995226 0.000279795 0)
(0.997333 0.00384593 0)
(1.00043 0.00281032 0)
(0.999784 0.00503848 0)
(1.00202 0.00482025 0)
(1.00504 0.00147312 0)
(1.00352 0.00138364 0)
(1.00176 0.00152623 0)
(1.00201 0.00018573 0)
(1.00163 0.000276779 0)
(1.00014 0.00157857 0)
(0.999022 0.00256384 0)
(1.00023 0.0010884 0)
(1.00104 -0.00103523 0)
(0.999253 -0.000565443 0)
(0.999467 0.00201835 0)
(1.00256 0.00189178 0)
(1.00284 -0.00147665 0)
(1.00099 -0.00237903 0)
(0.998839 -0.00322464 0)
(0.99564 0.000236886 0)
(0.997479 0.00368313 0)
(1.00052 0.00271352 0)
(0.999923 0.00463982 0)
(1.00174 0.00480554 0)
(1.00475 0.00162933 0)
(1.00354 0.00130194 0)
(1.00166 0.00177448 0)
(1.00187 0.000617455 0)
(1.00179 0.000444137 0)
(1.00046 0.00166786 0)
(0.99926 0.00272391 0)
(1.00021 0.000997054 0)
(1.00097 -0.000869526 0)
(0.999352 -0.000597309 0)
(0.999544 0.00189541 0)
(1.0024 0.00171636 0)
(1.00265 -0.00134599 0)
(1.00091 -0.00218586 0)
(0.998987 -0.00294567 0)
(0.996047 0.000205276 0)
(0.997629 0.00352619 0)
(1.00059 0.00264111 0)
(1.00008 0.00426831 0)
(1.00149 0.00476189 0)
(1.00444 0.00181723 0)
(1.00356 0.00122784 0)
(1.0016 0.00193773 0)
(1.00171 0.00105115 0)
(1.00191 0.00064351 0)
(1.00078 0.00172848 0)
(0.999522 0.00284534 0)
(1.00019 0.000908914 0)
(1.00091 -0.000717783 0)
(0.999444 -0.000605002 0)
(0.999618 0.00175116 0)
(1.00225 0.00155333 0)
(1.00246 -0.00122012 0)
(1.00082 -0.0019882 0)
(0.999127 -0.00266903 0)
(0.996444 0.000183274 0)
(0.997784 0.00338141 0)
(1.00064 0.00259401 0)
(1.00024 0.0039147 0)
(1.00129 0.00466856 0)
(1.00411 0.00202657 0)
(1.00358 0.00118448 0)
(1.0016 0.00201819 0)
(1.00156 0.00145279 0)
(1.00199 0.000876357 0)
(1.0011 0.00175774 0)
(0.999811 0.00292291 0)
(1.00018 0.000822457 0)
(1.00084 -0.000580392 0)
(0.999529 -0.000591392 0)
(0.999688 0.00159925 0)
(1.0021 0.00138748 0)
(1.00228 -0.00110224 0)
(1.00075 -0.0017824 0)
(0.999258 -0.0023814 0)
(0.996833 0.00017804 0)
(0.997945 0.00324481 0)
(1.00068 0.002565 0)
(1.00041 0.00357856 0)
(1.00112 0.00451937 0)
(1.00377 0.00223202 0)
(1.00358 0.0011776 0)
(1.00165 0.00203511 0)
(1.00142 0.00180745 0)
(1.00201 0.0011525 0)
(1.00141 0.00177876 0)
(1.00013 0.00295051 0)
(1.00016 0.000740555 0)
(1.00077 -0.000462838 0)
(0.999604 -0.000565457 0)
(0.999752 0.00144483 0)
(1.00196 0.00122846 0)
(1.00211 -0.000997155 0)
(1.00068 -0.00156709 0)
(0.999381 -0.00208253 0)
(0.99721 0.000189609 0)
(0.99811 0.00310767 0)
(1.00071 0.00255137 0)
(1.00057 0.00327429 0)
(1.001 0.00432947 0)
(1.00343 0.00241839 0)
(1.00356 0.00121299 0)
(1.00174 0.00200614 0)
(1.00132 0.0020989 0)
(1.00199 0.00145956 0)
(1.00169 0.00181694 0)
(1.00048 0.00292322 0)
(1.00014 0.000662337 0)
(1.0007 -0.000364364 0)
(0.999671 -0.000530129 0)
(0.999813 0.00130091 0)
(1.00182 0.00107891 0)
(1.00195 -0.000917042 0)
(1.00061 -0.0013498 0)
(0.999496 -0.00177977 0)
(0.997574 0.000218371 0)
(0.998282 0.00297591 0)
(1.00072 0.00255087 0)
(1.00072 0.00300581 0)
(1.00092 0.00410856 0)
(1.0031 0.00258442 0)
(1.00351 0.00129512 0)
(1.00187 0.00195397 0)
(1.00127 0.00231597 0)
(1.00194 0.00177234 0)
(1.00192 0.00189563 0)
(1.00085 0.0028595 0)
(1.00012 0.000589252 0)
(1.00064 -0.000284037 0)
(0.999731 -0.00049203 0)
(0.999867 0.0011688 0)
(1.00169 0.000940717 0)
(1.00181 -0.000855697 0)
(1.00056 -0.00114161 0)
(0.999603 -0.00147774 0)
(0.997925 0.000269254 0)
(0.998461 0.00285129 0)
(1.00072 0.00255961 0)
(1.00086 0.00277906 0)
(1.00088 0.00386682 0)
(1.00279 0.00271886 0)
(1.00343 0.00141344 0)
(1.00202 0.00189854 0)
(1.00127 0.0024608 0)
(1.00188 0.00207047 0)
(1.00209 0.00202597 0)
(1.00121 0.00279455 0)
(1.00011 0.000520449 0)
(1.00058 -0.000214923 0)
(0.999786 -0.000463605 0)
(0.999918 0.00105342 0)
(1.00157 0.000809758 0)
(1.00169 -0.0008058 0)
(1.00053 -0.000959811 0)
(0.999705 -0.00117354 0)
(0.998259 0.000350771 0)
(0.998647 0.00273656 0)
(1.00072 0.00257337 0)
(1.00099 0.00260277 0)
(1.00088 0.00362036 0)
(1.00251 0.00281293 0)
(1.00333 0.00155719 0)
(1.00218 0.00185418 0)
(1.00132 0.00254005 0)
(1.00181 0.00233015 0)
(1.00221 0.00218589 0)
(1.00155 0.00274812 0)
(1.00009 0.000451363 0)
(1.00052 -0.000148236 0)
(0.999835 -0.000443811 0)
(0.999964 0.000952378 0)
(1.00145 0.000685895 0)
(1.00158 -0.000778305 0)
(1.00051 -0.000814604 0)
(0.999807 -0.000842411 0)
(0.998575 0.000462747 0)
(0.998836 0.0026293 0)
(1.00071 0.00258228 0)
(1.0011 0.00246915 0)
(1.00092 0.00338154 0)
(1.00228 0.00287139 0)
(1.00321 0.00172103 0)
(1.00234 0.0018301 0)
(1.00143 0.00256412 0)
(1.00177 0.00254365 0)
(1.00228 0.00236003 0)
(1.00184 0.00273743 0)
(1.00008 0.000390206 0)
(1.00046 -9.85805e-05 0)
(0.999878 -0.000415446 0)
(1.00001 0.000853424 0)
(1.00134 0.000629756 0)
(1.00148 -0.00070464 0)
(1.00052 -0.000662609 0)
(0.999908 -0.000576163 0)
(0.998866 0.00054515 0)
(0.999028 0.00248943 0)
(1.0007 0.00256108 0)
(1.00119 0.00236475 0)
(1.00098 0.0031608 0)
(1.00208 0.00288852 0)
(1.00307 0.0018837 0)
(1.00247 0.00183167 0)
(1.00157 0.00254553 0)
(1.00175 0.00270461 0)
(1.00231 0.00253464 0)
(1.00208 0.0027595 0)
(1.00006 0.000336543 0)
(1.00041 -6.4589e-05 0)
(0.999917 -0.000375818 0)
(1.00005 0.000757481 0)
(1.00123 0.000636111 0)
(1.00139 -0.000566361 0)
(1.00053 -0.000523789 0)
(1.00001 -0.000387248 0)
(0.999141 0.000585944 0)
(0.999221 0.00231246 0)
(1.0007 0.00250325 0)
(1.00126 0.00227995 0)
(1.00106 0.00296208 0)
(1.00193 0.00287529 0)
(1.00292 0.00203595 0)
(1.00258 0.00186296 0)
(1.00175 0.00250114 0)
(1.00178 0.00280624 0)
(1.00233 0.00269378 0)
(1.00227 0.0028047 0)
(1.00005 0.000284055 0)
(1.00036 -3.10036e-05 0)
(0.999954 -0.000335459 0)
(1.0001 0.000678199 0)
(1.00114 0.000645599 0)
(1.0013 -0.00043126 0)
(1.00055 -0.000416021 0)
(1.00011 -0.000211331 0)
(0.999393 0.000628626 0)
(0.999414 0.00215453 0)
(1.00071 0.00244338 0)
(1.00132 0.00222154 0)
(1.00115 0.00279332 0)
(1.00182 0.00284837 0)
(1.00278 0.00217628 0)
(1.00266 0.0019206 0)
(1.00195 0.00245052 0)
(1.00185 0.00285223 0)
(1.00235 0.00282402 0)
(1.00241 0.00286833 0)
(1.00004 0.000238864 0)
(1.00031 -3.1962e-06 0)
(0.999986 -0.000289123 0)
(1.00014 0.000603692 0)
(1.00106 0.000644942 0)
(1.00122 -0.000297072 0)
(1.00058 -0.000305696 0)
(1.0002 -6.53945e-05 0)
(0.999629 0.000685417 0)
(0.999607 0.0020318 0)
(1.00073 0.00239039 0)
(1.00137 0.00217725 0)
(1.00125 0.00264398 0)
(1.00176 0.00279828 0)
(1.00265 0.00229187 0)
(1.00272 0.00199618 0)
(1.00215 0.00240831 0)
(1.00196 0.002857 0)
(1.00238 0.00291616 0)
(1.00252 0.00293674 0)
(1.00003 0.000200022 0)
(1.00027 1.74487e-05 0)
(1.00001 -0.00023859 0)
(1.00019 0.000524462 0)
(1.00099 0.00063963 0)
(1.00115 -0.000155586 0)
(1.00061 -0.000189632 0)
(1.0003 6.37802e-05 0)
(0.99985 0.000743797 0)
(0.999797 0.00192951 0)
(1.00076 0.00232684 0)
(1.00141 0.00213377 0)
(1.00135 0.00250814 0)
(1.00173 0.00272765 0)
(1.00254 0.00237944 0)
(1.00275 0.00208708 0)
(1.00234 0.00238251 0)
(1.00211 0.00283375 0)
(1.00243 0.00296869 0)
(1.0026 0.00298978 0)
(1.00002 0.000167058 0)
(1.00023 3.25799e-05 0)
(1.00004 -0.000185923 0)
(1.00024 0.000452433 0)
(1.00094 0.000626093 0)
(1.00108 -1.61395e-05 0)
(1.00063 -6.32252e-05 0)
(1.0004 0.000178356 0)
(1.00006 0.000787367 0)
(0.999983 0.00183773 0)
(1.00079 0.00225884 0)
(1.00144 0.00209772 0)
(1.00145 0.0023925 0)
(1.00173 0.00265053 0)
(1.00246 0.00244047 0)
(1.00276 0.00217954 0)
(1.00251 0.00237186 0)
(1.00227 0.00278886 0)
(1.0025 0.00298818 0)
(1.00267 0.00301872 0)
(1.00001 0.00014147 0)
(1.0002 4.0191e-05 0)
(1.00006 -0.00012958 0)
(1.00028 0.00039255 0)
(1.0009 0.00060139 0)
(1.00102 0.000115552 0)
(1.00066 6.91378e-05 0)
(1.00049 0.000286714 0)
(1.00025 0.000825332 0)
(1.00017 0.00175217 0)
(1.00084 0.00219943 0)
(1.00147 0.00207261 0)
(1.00155 0.00229414 0)
(1.00176 0.00256591 0)
(1.0024 0.00247257 0)
(1.00276 0.00225901 0)
(1.00266 0.00237807 0)
(1.00244 0.00273482 0)
(1.00259 0.00298207 0)
(1.00275 0.00302741 0)
(1.00001 0.000122183 0)
(1.00017 4.3365e-05 0)
(1.00008 -7.04234e-05 0)
(1.00032 0.000348411 0)
(1.00088 0.000568394 0)
(1.00097 0.00023445 0)
(1.00068 0.000205831 0)
(1.00057 0.000391633 0)
(1.00043 0.000860348 0)
(1.00035 0.00167055 0)
(1.0009 0.00213977 0)
(1.00149 0.0020591 0)
(1.00164 0.00221769 0)
(1.00182 0.00247466 0)
(1.00237 0.00247546 0)
(1.00276 0.00231911 0)
(1.00278 0.00239635 0)
(1.00262 0.00268393 0)
(1.0027 0.00295209 0)
(1.00282 0.00301984 0)
(0.999998 0.000109045 0)
(1.00015 4.61342e-05 0)
(1.00009 -9.5272e-06 0)
(1.00036 0.000325818 0)
(1.00087 0.000525619 0)
(1.00094 0.000329024 0)
(1.0007 0.000340582 0)
(1.00064 0.000498563 0)
(1.00059 0.000894862 0)
(1.00052 0.00159605 0)
(1.00097 0.00207338 0)
(1.00151 0.00204557 0)
(1.00172 0.0021641 0)
(1.00188 0.0023903 0)
(1.00236 0.00245568 0)
(1.00276 0.00235758 0)
(1.00288 0.00241301 0)
(1.00278 0.00263808 0)
(1.00282 0.0029014 0)
(1.0029 0.00299485 0)
(0.999992 0.000101372 0)
(1.00013 4.92341e-05 0)
(1.00011 4.84934e-05 0)
(1.00039 0.000323802 0)
(1.00087 0.000483936 0)
(1.00092 0.000394402 0)
(1.00073 0.000463992 0)
(1.00071 0.000607987 0)
(1.00074 0.000932249 0)
(1.00069 0.00152801 0)
(1.00105 0.00200414 0)
(1.00154 0.00202641 0)
(1.0018 0.0021237 0)
(1.00195 0.00232004 0)
(1.00238 0.00242119 0)
(1.00277 0.00237375 0)
(1.00296 0.00242164 0)
(1.00293 0.00259493 0)
(1.00295 0.00284009 0)
(1.00299 0.00295335 0)
(0.999987 9.74708e-05 0)
(1.00012 5.54775e-05 0)
(1.00013 9.81796e-05 0)
(1.00041 0.000337104 0)
(1.00087 0.000453342 0)
(1.00092 0.00043532 0)
(1.00076 0.000569758 0)
(1.00076 0.000714167 0)
(1.00086 0.000976086 0)
(1.00084 0.00146714 0)
(1.00114 0.00193253 0)
(1.00157 0.00200538 0)
(1.00186 0.00208999 0)
(1.00202 0.00225955 0)
(1.00241 0.00238244 0)
(1.00279 0.00237166 0)
(1.00303 0.00242383 0)
(1.00306 0.00255368 0)
(1.00308 0.00277288 0)
(1.00308 0.00289588 0)
(0.999983 9.63824e-05 0)
(1.00012 6.5368e-05 0)
(1.00015 0.000138556 0)
(1.00042 0.000361798 0)
(1.00088 0.000437636 0)
(1.00094 0.000460525 0)
(1.0008 0.000653893 0)
(1.00082 0.000814676 0)
(1.00097 0.00102903 0)
(1.00099 0.00142123 0)
(1.00124 0.00185428 0)
(1.00161 0.0019765 0)
(1.00192 0.00206336 0)
(1.00209 0.00220455 0)
(1.00245 0.00234099 0)
(1.00282 0.0023541 0)
(1.00309 0.00241441 0)
(1.00317 0.00251428 0)
(1.00321 0.00270153 0)
(1.00317 0.0028282 0)
(0.99998 9.69684e-05 0)
(1.00011 7.83662e-05 0)
(1.00017 0.00016742 0)
(1.00043 0.000391089 0)
(1.00088 0.000443816 0)
(1.00096 0.000479335 0)
(1.00085 0.000711763 0)
(1.00087 0.000902864 0)
(1.00105 0.00108798 0)
(1.00112 0.00139399 0)
(1.00135 0.00177986 0)
(1.00166 0.00193351 0)
(1.00197 0.00203908 0)
(1.00216 0.00215704 0)
(1.0025 0.0022943 0)
(1.00285 0.00232542 0)
(1.00315 0.00238942 0)
(1.00327 0.00247341 0)
(1.00333 0.00262856 0)
(1.00327 0.0027523 0)
(0.999977 9.77833e-05 0)
(1.00011 9.63992e-05 0)
(1.00019 0.000187321 0)
(1.00045 0.000420684 0)
(1.00088 0.000468445 0)
(1.00098 0.000501224 0)
(1.00091 0.000749702 0)
(1.00092 0.00097314 0)
(1.00113 0.00114793 0)
(1.00123 0.00138079 0)
(1.00145 0.00171862 0)
(1.00172 0.00188112 0)
(1.00202 0.00200399 0)
(1.00223 0.00211455 0)
(1.00255 0.00224662 0)
(1.00289 0.00229034 0)
(1.0032 0.0023552 0)
(1.00336 0.00242538 0)
(1.00344 0.00255535 0)
(1.00336 0.00266647 0)
(0.999975 9.89843e-05 0)
(1.00011 0.000116545 0)
(1.00022 0.0002045 0)
(1.00046 0.000447095 0)
(1.00088 0.00050498 0)
(1.00101 0.000529946 0)
(1.00098 0.000776113 0)
(1.00098 0.00102456 0)
(1.00119 0.00120428 0)
(1.00132 0.00138038 0)
(1.00154 0.0016675 0)
(1.00178 0.00183085 0)
(1.00208 0.00195885 0)
(1.00229 0.00206678 0)
(1.0026 0.00219895 0)
(1.00293 0.00224735 0)
(1.00325 0.00231532 0)
(1.00343 0.00236983 0)
(1.00353 0.00248028 0)
(1.00345 0.00257516 0)
(0.999974 9.96824e-05 0)
(1.00011 0.000139834 0)
(1.00024 0.000219463 0)
(1.00048 0.000465303 0)
(1.00087 0.000549088 0)
(1.00103 0.000570163 0)
(1.00105 0.000797334 0)
(1.00105 0.00105561 0)
(1.00125 0.00124963 0)
(1.0014 0.00139367 0)
(1.00163 0.00162647 0)
(1.00184 0.00178465 0)
(1.00214 0.00191697 0)
(1.00236 0.00201302 0)
(1.00266 0.00214619 0)
(1.00297 0.00219679 0)
(1.00329 0.00226652 0)
(1.00349 0.00231142 0)
(1.00361 0.00240054 0)
(1.00354 0.00248146 0)
(0.999973 0.000100298 0)
(1.00011 0.00016428 0)
(1.00026 0.000236168 0)
(1.00049 0.000477051 0)
(1.00087 0.000592364 0)
(1.00105 0.000621579 0)
(1.00112 0.000821252 0)
(1.00112 0.00107238 0)
(1.00131 0.00128028 0)
(1.00146 0.00141118 0)
(1.0017 0.0016013 0)
(1.00191 0.00173702 0)
(1.00219 0.00187411 0)
(1.00242 0.0019598 0)
(1.00271 0.00208488 0)
(1.00301 0.00214034 0)
(1.00334 0.002207 0)
(1.00354 0.00224985 0)
(1.00368 0.00231915 0)
(1.00361 0.00238377 0)
(0.999973 0.000101403 0)
(1.00011 0.000187357 0)
(1.00028 0.000256648 0)
(1.00052 0.000486214 0)
(1.00088 0.000630429 0)
(1.00107 0.000677854 0)
(1.00118 0.000850796 0)
(1.00119 0.00108335 0)
(1.00137 0.00129913 0)
(1.00152 0.00142327 0)
(1.00177 0.00158961 0)