/*--------------------------------*- C++ -*----------------------------------*\
| =========                 |                                                 |
| \\      /  F ield         | OpenFOAM: The Open Source CFD Toolbox           |
|  \\    /   O peration     | Version:  v1812                                 |
|   \\  /    A nd           | Web:      www.OpenFOAM.com                      |
|    \\/     M anipulation  |                                                 |
\*---------------------------------------------------------------------------*/
FoamFile
{
    version     2.0;
    format      ascii;
    class       volScalarField;
    location    "2.6";
    object      p;
}
// * * * * * * * * * * * * * * * * * * * * * * * * * * * * * * * * * * * * * //

dimensions      [0 2 -2 0 0 0 0];


internalField   nonuniform List<scalar> 
9600
(
-1.27416e-10
-0.000634134
-0.00286897
-0.00121246
0.00116694
-0.000544544
-0.00140722
0.000743074
-5.11704e-05
0.000212532
0.000551152
0.00231689
0.00241501
0.00241085
0.00328078
0.00441262
0.0059003
0.00714167
0.00976922
0.0157129
3.71036e-07
-0.000641187
-0.00285765
-0.001203
0.00114503
-0.000556134
-0.00137595
0.00073618
-3.75087e-05
0.000196311
0.000547863
0.00232517
0.00240521
0.00240229
0.00328029
0.00439417
0.00592926
0.00710698
0.0100574
0.0152676
-5.50204e-07
-0.000649495
-0.00284265
-0.00119582
0.00111272
-0.000565985
-0.00135194
0.000725446
-1.91813e-05
0.0001823
0.00055147
0.0023328
0.00238528
0.00239648
0.00327318
0.00437701
0.00593982
0.0070654
0.0101544
0.0146678
-2.79334e-06
-0.000657907
-0.00282511
-0.00119041
0.00107948
-0.000573344
-0.00133339
0.000710387
4.19642e-06
0.000166753
0.000561976
0.00233466
0.00236278
0.00239365
0.00326215
0.00435667
0.00595381
0.00701886
0.0102133
0.0141614
-6.26049e-06
-0.000666032
-0.00280258
-0.00118595
0.00104548
-0.000577458
-0.00131733
0.000691442
3.30734e-05
0.0001484
0.000576609
0.00233189
0.00233951
0.00239009
0.00325204
0.00433422
0.00597086
0.00696786
0.0102426
0.0137052
-1.08304e-05
-0.000673063
-0.00277413
-0.0011838
0.00101158
-0.000577172
-0.00130219
0.000669605
6.62716e-05
0.000127377
0.000592963
0.00232616
0.00231591
0.00238591
0.00324517
0.00431044
0.00598829
0.00691375
0.0102396
0.0132793
-1.61732e-05
-0.000678614
-0.00274035
-0.00118402
0.000980001
-0.000572563
-0.00128692
0.000646184
0.000102488
0.000104759
0.0006093
0.0023193
0.00229291
0.00238135
0.00324246
0.00428568
0.00600375
0.00685874
0.0101992
0.0128775
-2.19229e-05
-0.000682823
-0.00270243
-0.00118566
0.000951434
-0.000564504
-0.00127069
0.000622082
0.000140834
8.17085e-05
0.000624707
0.0023127
0.00227059
0.00237608
0.00324367
0.00426042
0.00601508
0.00680406
0.0101086
0.0124963
-2.78118e-05
-0.000686087
-0.00266151
-0.00118793
0.000925003
-0.000556453
-0.0012531
0.000597714
0.000180788
5.90084e-05
0.000638746
0.00230666
0.00224875
0.00236989
0.00324772
0.00423552
0.00601999
0.00675035
0.00998508
0.0121321
-3.36886e-05
-0.000688857
-0.00261856
-0.00119038
0.000899384
-0.000548101
-0.00123412
0.000573173
0.00022199
3.70434e-05
0.000651007
0.0023012
0.00222752
0.00236249
0.00325329
0.0042118
0.00601623
0.00669718
0.00982442
0.0117805
-3.9497e-05
-0.000691493
-0.00257417
-0.00119281
0.000873546
-0.000539923
-0.0012139
0.000548358
0.000264085
1.59885e-05
0.000661147
0.0022965
0.00220677
0.00235351
0.00325911
0.00418958
0.0060016
0.00664361
0.00963005
0.0114362
-4.52218e-05
-0.00069423
-0.00252866
-0.00119516
0.000846902
-0.000532162
-0.00119262
0.000523101
0.000306699
-3.98462e-06
0.000668886
0.00229276
0.0021861
0.00234287
0.00326375
0.00416877
0.00597486
0.00658808
0.00940605
0.0110937
-5.08438e-05
-0.000697228
-0.00248217
-0.00119735
0.000819203
-0.000524918
-0.00117039
0.000497283
0.000349448
-2.25848e-05
0.000673878
0.00229001
0.0021651
0.00233071
0.00326586
0.00414918
0.00593563
0.00652793
0.00915725
0.0107487
-5.63306e-05
-0.00070059
-0.00243473
-0.00119932
0.000790394
-0.000518173
-0.00114737
0.000470917
0.000391956
-3.94626e-05
0.000675683
0.00228836
0.00214343
0.00231695
0.00326449
0.0041304
0.00588434
0.00645982
0.0088884
0.0103992
-6.16421e-05
-0.000704379
-0.00238635
-0.00120103
0.000760508
-0.000511827
-0.00112367
0.000444109
0.00043385
-5.42406e-05
0.000673808
0.002288
0.00212075
0.00230148
0.00325937
0.00411128
0.00582213
0.00638076
0.00860293
0.0100444
-6.6737e-05
-0.000708636
-0.00233705
-0.00120243
0.000729598
-0.000505744
-0.00109945
0.000417028
0.000474709
-6.6496e-05
0.000667789
0.00228905
0.00209687
0.00228429
0.00325067
0.00408982
0.0057502
0.0062888
0.00830315
0.00968454
-7.15793e-05
-0.000713386
-0.00228688
-0.00120346
0.000697702
-0.000499787
-0.00107487
0.000389924
0.00051406
-7.57972e-05
0.000657224
0.00229143
0.00207184
0.00226486
0.00323889
0.00406368
0.0056697
0.00618322
0.00799069
0.00931992
-7.61399e-05
-0.000718633
-0.0022359
-0.00120403
0.000664807
-0.00049378
-0.00105017
0.000363063
0.000551424
-8.17268e-05
0.000641747
0.002295
0.00204591
0.00224216
0.00322514
0.00402997
0.00558038
0.00606511
0.00766669
0.00895076
-8.03978e-05
-0.000724359
-0.00218421
-0.00120406
0.000630859
-0.000487519
-0.0010256
0.000336685
0.000586365
-8.39207e-05
0.000621068
0.00229947
0.00201954
0.00221507
0.00321077
0.00398634
0.00548075
0.00593674
0.00733158
0.00857625
-8.43489e-05
-0.000730515
-0.00213193
-0.00120344
0.000595758
-0.000480779
-0.00100145
0.000310993
0.000618431
-8.20323e-05
0.000595149
0.00230416
0.00199369
0.00218209
0.00319616
0.00393009
0.00536878
0.00580061
0.00698672
0.00819474
-8.80079e-05
-0.00073703
-0.00207923
-0.00120201
0.000559362
-0.000473337
-0.000977987
0.000286172
0.00064722
-7.57281e-05
0.000564322
0.00230801
0.00196955
0.00214146
0.0031808
0.00386828
0.00524214
0.00565869
0.00663524
0.00780362
-9.13947e-05
-0.000743813
-0.00202628
-0.00119956
0.00052149
-0.000464976
-0.000955471
0.000262364
0.000672437
-6.26731e-05
0.0005292
0.00230983
0.00194816
0.00209182
0.0031639
0.00380091
0.00509799
0.00551203
0.00628186
0.0073996
-9.455e-05
-0.000750715
-0.00197331
-0.00119591
0.000481963
-0.000455523
-0.000934052
0.000239632
0.000693801
-4.74417e-05
0.000490672
0.00230828
0.00193059
0.00203237
0.00314392
0.00372966
0.00493388
0.00536013
0.00593266
0.00698031
-9.75505e-05
-0.000757537
-0.00192058
-0.00119082
0.000440625
-0.000444847
-0.000913841
0.000217845
0.000711312
-3.0015e-05
0.000449851
0.00230189
0.00191757
0.00196285
0.00311841
0.0036573
0.00474905
0.00520017
0.00559368
0.00654541
-0.000100497
-0.000764044
-0.00186839
-0.00118408
0.00039734
-0.000432866
-0.000894879
0.000196629
0.00072537
-1.0798e-05
0.000407584
0.00228939
0.00190934
0.00188375
0.00308444
0.00358614
0.00454471
0.00502784
0.00527043
0.00609679
-0.000103514
-0.000769943
-0.001817
-0.00117552
0.000351982
-0.00041961
-0.000877068
0.000175576
0.000736446
9.53117e-06
0.000364461
0.00226974
0.00190584
0.00179619
0.00303845
0.0035177
0.00432413
0.00483841
0.00496735
0.0056394
-0.000106765
-0.000774879
-0.00176672
-0.00116499
0.000304521
-0.000405186
-0.000860189
0.000154139
0.000745053
3.0314e-05
0.000320979
0.00224217
0.00190666
0.00170121
0.00297695
0.00345288
0.0040919
0.00462702
0.00468694
0.00518254
-0.000110445
-0.000778451
-0.00171783
-0.00115239
0.000255032
-0.000389848
-0.000843691
0.000131451
0.000751676
5.13296e-05
0.000277046
0.00220607
0.00191105
0.00160004
0.00289706
0.00339151
0.0038535
0.00438943
0.00442851
0.00474018
-0.00011477
-0.000780252
-0.00167054
-0.00113776
0.000203592
-0.000374028
-0.000826669
0.000106516
0.000756403
7.25744e-05
0.00023235
0.00216076
0.00191822
0.0014945
0.00279626
0.00333203
0.0036157
0.00412293
0.00418583
0.00432801
-0.000119978
-0.000779884
-0.00162498
-0.00112123
0.000150513
-0.000358427
-0.000808066
7.87195e-05
0.000758734
9.42744e-05
0.000186809
0.00210543
0.00192697
0.00138683
0.0026726
0.00327125
0.00338597
0.00382824
0.00394655
0.00395988
-0.000126328
-0.000776943
-0.00158124
-0.00110306
9.63688e-05
-0.000344006
-0.000786779
4.80498e-05
0.000757558
0.00011682
0.00014033
0.00203913
0.00193583
0.00127902
0.00252523
0.00320509
0.00317067
0.00351052
0.003696
0.00364039
-0.000134071
-0.000771018
-0.00153939
-0.00108369
4.20261e-05
-0.000331929
-0.00076221
1.48958e-05
0.00075158
0.000140486
9.29588e-05
0.00196089
0.00194362
0.0011734
0.00235398
0.00312873
0.00297427
0.00317891
0.00342161
0.00336046
-0.000143454
-0.000761786
-0.00149928
-0.00106369
-1.12955e-05
-0.000323377
-0.000734354
-1.97966e-05
0.000739467
0.000164966
4.52074e-05
0.00186989
0.00194844
0.00107276
0.00215964
0.00303702
0.00279873
0.00284391
0.00311801
0.00310368
-0.000154707
-0.000749052
-0.00146042
-0.00104405
-6.25068e-05
-0.000318894
-0.000703691
-5.4493e-05
0.000720028
0.000189191
-2.37195e-06
0.00176539
0.00194753
0.000979836
0.0019446
0.00292522
0.00264371
0.00251484
0.00278728
0.00285127
-0.000167981
-0.000732781
-0.00142205
-0.00102605
-0.000110782
-0.000318414
-0.000671482
-8.7573e-05
0.000692659
0.000211508
-4.95357e-05
0.00164671
0.00193827
0.000897547
0.00171245
0.00278889
0.00250748
0.00219911
0.00243435
0.00258821
-0.000183385
-0.000713196
-0.00138319
-0.0010105
-0.000155513
-0.000321232
-0.00063961
-0.00011834
0.000657188
0.000230428
-9.58393e-05
0.00151364
0.00191781
0.000828298
0.0014677
0.00262375
0.00238725
0.00190407
0.00206447
0.00230536
-0.000200938
-0.000690889
-0.00134251
-0.000997761
-0.000197009
-0.000326475
-0.000609484
-0.000146754
0.000613949
0.000244407
-0.000141006
0.00136702
0.00188273
0.000773495
0.00121647
0.00242582
0.00227774
0.00163761
0.00168393
0.00199749
-0.000220463
-0.000666962
-0.00129867
-0.000987543
-0.00023676
-0.000333771
-0.000581772
-0.00017303
0.000563414
0.00025212
-0.000184655
0.0012088
0.00183035
0.00073343
0.000966169
0.0021926
0.00216958
0.00140616
0.00130164
0.00166129
-0.00024168
-0.000642575
-0.0012508
-0.000978812
-0.000276291
-0.000343244
-0.000557139
-0.00019797
0.000506324
0.000252713
-0.000225565
0.00104206
0.00175843
0.00070597
0.000724211
0.00192448
0.00205056
0.00121299
0.000930409
0.00129616
-0.000264274
-0.000618498
-0.00119856
-0.000970412
-0.000316283
-0.000355566
-0.00053716
-0.000222345
0.000444046
0.000245741
-0.000262872
0.000870063
0.00166522
0.000686924
0.000497364
0.00162533
0.00190792
0.00105543
0.000584825
0.000906738
-0.00028765
-0.000595573
-0.00114226
-0.000961271
-0.000357072
-0.000371494
-0.000523613
-0.00024693
0.000378037
0.000231295
-0.000296249
0.000695569
0.0015497
0.000671124
0.000291148
0.00130227
0.00173124
0.000924662
0.000278479
0.000504446
-0.000310894
-0.000574415
-0.00108299
-0.00095041
-0.000398617
-0.000391237
-0.000517963
-0.000274056
0.00030901
0.000210695
-0.00032502
0.00052138
0.0014118
0.000652677
0.000109181
0.000964415
0.00151451
0.000807493
1.99153e-05
0.000106276
-0.000333409
-0.000555296
-0.00102207
-0.000936834
-0.000440364
-0.000414961
-0.000521083
-0.000307502
0.000236343
0.000185961
-0.000348166
0.000350394
0.00125271
0.000626137
-4.63602e-05
0.00062225
0.0012564
0.000688854
-0.000190045
-0.000269332
-0.000354868
-0.00053798
-0.000960868
-0.000919775
-0.000481078
-0.00044271
-0.000534431
-0.000351424
0.000158312
0.000158706
-0.000365212
0.00018537
0.00107428
0.000585994
-0.000175717
0.000286924
0.000959795
0.00055475
-0.000357734
-0.000606194
-0.000374605
-0.000522706
-0.000900824
-0.000898245
-0.000520507
-0.000473785
-0.000564209
-0.000406266
8.27208e-05
0.000128781
-0.000376997
2.84311e-05
0.000878787
0.000526195
-0.000282894
-3.08086e-05
0.000631411
0.00039341
-0.000494366
-0.000893623
-0.000391758
-0.00051014
-0.00084345
-0.00087783
-0.000562931
-0.000508072
-0.000588899
-0.000460566
3.82133e-07
8.92643e-05
-0.000388812
-0.000119706
0.000669523
0.00044194
-0.000374454
-0.000322132
0.000282315
0.000196409
-0.000614907
-0.00112877
-0.000405964
-0.000500529
-0.000790845
-0.000858628
-0.000606483
-0.00054345
-0.000610639
-0.000513381
-9.11851e-05
3.61763e-05
-0.000404034
-0.000258619
0.000450256
0.000331326
-0.000458171
-0.000582592
-7.45819e-05
-3.863e-05
-0.000735816
-0.00131715
-0.000417278
-0.000493691
-0.000744508
-0.000838876
-0.000649149
-0.00058145
-0.000631155
-0.000564758
-0.000189076
-3.13776e-05
-0.000425837
-0.000386955
0.000226548
0.000195591
-0.000540815
-0.000812023
-0.000426735
-0.000306932
-0.000870637
-0.00147026
-0.000425768
-0.000489244
-0.000704981
-0.000819173
-0.000690877
-0.000623276
-0.000655179
-0.000614299
-0.000290603
-0.000112972
-0.000456379
-0.000505063
3.98167e-06
3.75803e-05
-0.00062897
-0.0010132
-0.000764449
-0.000600611
-0.00102829
-0.0016028
-0.000431521
-0.000486792
-0.000672872
-0.000800458
-0.000730806
-0.000669054
-0.000682331
-0.000662174
-0.000391576
-0.000205824
-0.000497562
-0.000615894
-0.000215014
-0.00013965
-0.000727656
-0.00118985
-0.00107972
-0.000910342
-0.00121257
-0.0017289
-0.000434799
-0.000485797
-0.000648553
-0.000784005
-0.000768256
-0.000719135
-0.000714328
-0.000706829
-0.000490212
-0.000309084
-0.000552083
-0.000721776
-0.000427767
-0.000331881
-0.000839251
-0.00134708
-0.00136728
-0.00122611
-0.00142344
-0.00185968
-0.000436034
-0.000485755
-0.0006321
-0.000771255
-0.000802672
-0.000772547
-0.000752811
-0.000751355
-0.000585302
-0.000420237
-0.000620021
-0.00082352
-0.000631174
-0.000535537
-0.000966684
-0.00149269
-0.00162675
-0.00153805
-0.0016571
-0.00200171
-0.000435895
-0.000486503
-0.000623194
-0.000763029
-0.000833542
-0.000827806
-0.000799245
-0.000798463
-0.000676639
-0.000534676
-0.00069979
-0.000924903
-0.000825656
-0.000747287
-0.00111096
-0.00163248
-0.00185859
-0.00183587
-0.00190621
-0.00215906
-0.000435311
-0.000488066
-0.000620774
-0.000760079
-0.000861102
-0.000883067
-0.000853585
-0.000851204
-0.000765218
-0.0006501
-0.00079
-0.00102834
-0.00101209
-0.000962326
-0.00126986
-0.00177079
-0.00206545
-0.00211321
-0.00216277
-0.00233373
-0.000435236
-0.000490433
-0.0006236
-0.000762995
-0.000886482
-0.000936845
-0.000915063
-0.000911359
-0.000853034
-0.00076618
-0.000888407
-0.00113279
-0.00118958
-0.00117752
-0.00144148
-0.00191257
-0.00225326
-0.00236797
-0.0024186
-0.00252285
-0.000436495
-0.000493753
-0.00063032
-0.000772257
-0.000911568
-0.000988367
-0.00098165
-0.000979373
-0.000942588
-0.000882591
-0.000993518
-0.00123827
-0.00135707
-0.00139073
-0.00162396
-0.00206022
-0.0024274
-0.0025994
-0.00266632
-0.00272137
-0.000439649
-0.000498397
-0.000639907
-0.000787763
-0.000938622
-0.00103791
-0.00105045
-0.00105457
-0.00103601
-0.000999083
-0.00110381
-0.00134627
-0.00151471
-0.00159791
-0.00181463
-0.00221429
-0.0025923
-0.00280914
-0.00290101
-0.00292529
-0.000445041
-0.000504876
-0.000651911
-0.000809033
-0.000969497
-0.00108631
-0.00111949
-0.00113541
-0.00113419
-0.00111733
-0.00121814
-0.00145645
-0.00166361
-0.00179507
-0.00200941
-0.00237576
-0.00275212
-0.00300095
-0.00311924
-0.00312977
-0.000452908
-0.00051375
-0.0006663
-0.000835205
-0.00100511
-0.0011351
-0.00118823
-0.00121925
-0.00123588
-0.00123895
-0.00133698
-0.00156799
-0.00180444
-0.00198063
-0.00220288
-0.00254417
-0.00291062
-0.00317905
-0.00331948
-0.00332819
-0.000463445
-0.000525542
-0.00068349
-0.000865269
-0.00104566
-0.00118634
-0.00125704
-0.00130415
-0.00133966
-0.00136279
-0.00146131
-0.00168234
-0.00193751
-0.00215403
-0.00239049
-0.00271543
-0.00306979
-0.00334762
-0.00350346
-0.00351522
-0.000476858
-0.000540766
-0.000703641
-0.000898276
-0.00109082
-0.00124159
-0.00132652
-0.00138922
-0.00144418
-0.00148698
-0.00158951
-0.00180141
-0.00206514
-0.00231429
-0.00256956
-0.00288455
-0.00322819
-0.00350973
-0.00367475
-0.00368934
-0.000493391
-0.000559844
-0.000727447
-0.000933981
-0.00114004
-0.0013013
-0.00139798
-0.00147431
-0.00154789
-0.0016109
-0.00171926
-0.00192425
-0.0021904
-0.00246157
-0.00273743
-0.00304885
-0.00338257
-0.00366595
-0.00383626
-0.00385186
-0.000513324
-0.000582899
-0.000755574
-0.000972705
-0.00119239
-0.00136516
-0.00147295
-0.00156016
-0.00164915
-0.00173283
-0.00184974
-0.00204863
-0.00231422
-0.00259829
-0.0028911
-0.00320572
-0.00353078
-0.00381428
-0.00398903
-0.00400448
-0.000537023
-0.000609987
-0.000788492
-0.00101505
-0.00124713
-0.00143253
-0.00155196
-0.00164816
-0.00174862
-0.00184976
-0.00197841
-0.00217354
-0.00243544
-0.00272675
-0.00303016
-0.00335093
-0.00367123
-0.00395225
-0.00413153
-0.00414745
-0.000564971
-0.000641264
-0.000826185
-0.00106171
-0.00130437
-0.0015027
-0.00163432
-0.00173887
-0.00184812
-0.00196182
-0.00210158
-0.00229676
-0.00255281
-0.00284657
-0.00315612
-0.00348107
-0.00380094
-0.00407847
-0.00426095
-0.00427892
-0.000597635
-0.00067698
-0.000868508
-0.00111307
-0.00136501
-0.00157534
-0.00171959
-0.00183178
-0.00194752
-0.00207066
-0.00221827
-0.00241457
-0.00266486
-0.00295599
-0.00326887
-0.00359525
-0.003916
-0.00419195
-0.0043755
-0.0043974
-0.000635337
-0.00071761
-0.00091547
-0.00116921
-0.00142958
-0.00165041
-0.00180743
-0.00192745
-0.00204666
-0.00217569
-0.00232859
-0.00252423
-0.00276872
-0.0030538
-0.00336627
-0.00369258
-0.00401291
-0.00428969
-0.00447446
-0.0045011
-0.000678307
-0.000763308
-0.000967288
-0.00123027
-0.00149876
-0.00172829
-0.00189689
-0.00202559
-0.00214686
-0.00227701
-0.00243211
-0.00262468
-0.00286122
-0.00313793
-0.00344536
-0.00376962
-0.00408806
-0.00436616
-0.004554
-0.0045863
-0.000726915
-0.00081443
-0.00102404
-0.00129607
-0.00157269
-0.00181016
-0.0019887
-0.00212526
-0.00224818
-0.00237596
-0.00252867
-0.00271524
-0.00294017
-0.00320471
-0.00350219
-0.00382067
-0.00413617
-0.00441477
-0.00460726
-0.00464675
-0.000781428
-0.000871227
-0.00108607
-0.00136675
-0.00165129
-0.00189627
-0.00208395
-0.00222743
-0.00235086
-0.00247394
-0.00261941
-0.00279523
-0.00300399
-0.00324998
-0.00352984
-0.00383623
-0.0041468
-0.00442642
-0.00462587
-0.00467602
-0.000842225
-0.000933956
-0.0011535
-0.00144185
-0.00173519
-0.00198772
-0.00218338
-0.00233295
-0.00245581
-0.00257214
-0.00270631
-0.00286558
-0.00305199
-0.00327089
-0.00352216
-0.00380345
-0.00409912
-0.00437832
-0.00458997
-0.0046608
-0.00090985
-0.00100415
-0.00122584
-0.00152098
-0.0018239
-0.00208509
-0.00228941
-0.00244488
-0.00256615
-0.00267222
-0.00278954
-0.00292583
-0.00308247
-0.00326586
-0.00347775
-0.00371647
-0.00397599
-0.00423379
-0.00444449
-0.00454245
-0.000983349
-0.00107921
-0.00130414
-0.00160636
-0.00191794
-0.00218788
-0.00240208
-0.00256694
-0.00269139
-0.00278512
-0.00287444
-0.0029735
-0.00308518
-0.00322366
-0.00339188
-0.00358558
-0.00380033
-0.00401385
-0.0041877
-0.00426013
-0.0010616
-0.00115881
-0.00138996
-0.00169814
-0.00201634
-0.00229521
-0.0025213
-0.00269992
-0.00283812
-0.00293731
-0.00300364
-0.00303271
-0.00302656
-0.00301752
-0.00305161
-0.00316485
-0.00337723
-0.00367345
-0.00399318
-0.00424219
-0.00114685
-0.00124919
-0.00148293
-0.00179228
-0.00211331
-0.00239974
-0.00264018
-0.00283968
-0.00300066
-0.00313286
-0.00326392
-0.0033831
-0.00340096
-0.00322524
-0.00291103
-0.00259955
-0.00234715
-0.00216217
-0.00204795
-0.00203954
-0.00124173
-0.00135103
-0.00158487
-0.0018912
-0.00221015
-0.00249762
-0.00274619
-0.00296532
-0.00315131
-0.00326395
-0.003229
-0.00303648
-0.00280124
-0.00261942
-0.00251306
-0.00247515
-0.0024739
-0.0024833
-0.0025078
-0.00258773
-0.00134593
-0.00144375
-0.00168496
-0.0020032
-0.0023466
-0.00267202
-0.00293855
-0.00308751
-0.00308494
-0.00299751
-0.00291378
-0.00285749
-0.00281556
-0.00277374
-0.00267897
-0.00252135
-0.00231225
-0.00208173
-0.00189213
-0.00182663
-0.00148663
-0.00158307
-0.00175105
-0.00198823
-0.00226957
-0.00254479
-0.0027605
-0.00288947
-0.00294974
-0.00295617
-0.00294772
-0.00295153
-0.00296098
-0.0030148
-0.00311353
-0.00321905
-0.00330612
-0.00332553
-0.00323863
-0.00304424
-0.0016162
-0.00174086
-0.00189347
-0.00209232
-0.00233242
-0.00257321
-0.00277291
-0.00290297
-0.00297869
-0.00300407
-0.00297288
-0.00292346
-0.00284288
-0.00272006
-0.00257008
-0.00238437
-0.00218191
-0.00199518
-0.001884
-0.00192609
-0.00163966
-0.00176178
-0.00197138
-0.00222777
-0.00247455
-0.0026712
-0.00280118
-0.00285508
-0.00286334
-0.00285952
-0.00282783
-0.00279387
-0.00277408
-0.00274495
-0.00271495
-0.00267626
-0.00262341
-0.00257095
-0.00255197
-0.00263638
0.024656
0.0162376
0.00570288
-0.00159142
-0.00409997
-0.00380202
-0.00324665
-0.00329917
-0.00374243
-0.00413567
-0.00429677
-0.00432756
-0.00437579
-0.00448559
-0.00466915
-0.00492905
-0.00514229
-0.00520219
-0.00522573
-0.00536288
-0.0055939
-0.00582813
-0.0060143
-0.00616414
-0.0063462
-0.00659722
-0.00686503
-0.00708312
-0.00725065
-0.00741194
-0.00758317
-0.00774107
-0.00787854
-0.00802735
-0.00820773
-0.0083949
-0.00856873
-0.00875279
-0.00897478
-0.0092149
-0.00943591
-0.00963827
-0.00984814
-0.0100643
-0.0102623
-0.0104461
-0.0106452
-0.0108575
-0.0110605
-0.0112648
-0.0114987
-0.0117401
-0.0119647
-0.0122
-0.0124439
-0.0126689
-0.0128974
-0.0131405
-0.0133822
-0.0136322
-0.0138969
-0.0141571
-0.014413
-0.0146706
-0.0149303
-0.015195
-0.015472
-0.0157563
-0.0160388
-0.0163213
-0.0166066
-0.0168948
-0.0171892
-0.0174902
-0.0177975
-0.0181084
-0.0184213
-0.0187359
-0.0190567
-0.019384
-0.0197181
-0.0200572
-0.0204018
-0.0207503
-0.0211044
-0.021463
-0.0218285
-0.0221998
-0.0225789
-0.0229609
-0.0233508
-0.0237444
-0.0241466
-0.024552
-0.0249674
-0.0253823
-0.0258169
-0.0262454
-0.0266534
-0.027104
0.0232198
0.0160632
0.00578992
-0.00146164
-0.0040157
-0.00375689
-0.00321802
-0.00328101
-0.00373081
-0.00412754
-0.00429032
-0.00432184
-0.00437041
-0.00448039
-0.00466422
-0.00492476
-0.0051388
-0.00519907
-0.00522266
-0.00535999
-0.00559134
-0.00582592
-0.00601235
-0.00616229
-0.00634439
-0.00659552
-0.00686351
-0.00708174
-0.00724933
-0.00741066
-0.00758197
-0.00773995
-0.00787748
-0.00802632
-0.00820676
-0.008394
-0.00856789
-0.00875196
-0.00897397
-0.00921416
-0.00943523
-0.00963761
-0.0098475
-0.0100637
-0.0102617
-0.0104456
-0.0106447
-0.010857
-0.01106
-0.0112644
-0.0114983
-0.0117397
-0.0119643
-0.0121996
-0.0124435
-0.0126686
-0.012897
-0.0131402
-0.0133819
-0.0136319
-0.0138967
-0.0141569
-0.0144128
-0.0146703
-0.0149301
-0.0151948
-0.0154718
-0.0157561
-0.0160386
-0.0163211
-0.0166064
-0.0168946
-0.017189
-0.01749
-0.0177974
-0.0181082
-0.0184211
-0.0187357
-0.0190566
-0.0193839
-0.019718
-0.0200571
-0.0204016
-0.0207502
-0.0211043
-0.0214629
-0.0218284
-0.0221997
-0.0225788
-0.0229608
-0.0233507
-0.0237443
-0.0241465
-0.0245519
-0.0249673
-0.0253822
-0.0258168
-0.0262454
-0.0266534
-0.0271039
0.022086
0.0159693
0.00599647
-0.00121614
-0.00388066
-0.00370617
-0.00319014
-0.00325772
-0.00371232
-0.00411392
-0.00428057
-0.00431497
-0.00436541
-0.00447613
-0.00465992
-0.00492057
-0.00513511
-0.00519582
-0.00521967
-0.00535728
-0.00558891
-0.00582375
-0.00601043
-0.00616054
-0.00634275
-0.00659404
-0.00686221
-0.00708055
-0.00724819
-0.00740955
-0.00758092
-0.00773896
-0.00787652
-0.0080254
-0.00820591
-0.00839322
-0.00856712
-0.0087512
-0.00897327
-0.00921353
-0.00943464
-0.00963703
-0.00984695
-0.0100632
-0.0102613
-0.0104451
-0.0106442
-0.0108566
-0.0110596
-0.011264
-0.0114979
-0.0117394
-0.0119639
-0.0121992
-0.0124432
-0.0126683
-0.0128968
-0.0131399
-0.0133817
-0.0136316
-0.0138964
-0.0141566
-0.0144125
-0.0146701
-0.0149299
-0.0151946
-0.0154716
-0.0157559
-0.0160384
-0.016321
-0.0166062
-0.0168945
-0.0171888
-0.0174899
-0.0177972
-0.0181081
-0.018421
-0.0187356
-0.0190564
-0.0193838
-0.0197179
-0.020057
-0.0204015
-0.0207501
-0.0211042
-0.0214628
-0.0218283
-0.0221996
-0.0225787
-0.0229608
-0.0233506
-0.0237442
-0.0241464
-0.0245519
-0.0249673
-0.0253822
-0.0258167
-0.0262453
-0.0266533
-0.0271039
0.0210454
0.0158433
0.0062338
-0.000920692
-0.0037066
-0.00364094
-0.00315207
-0.00322245
-0.00368197
-0.00408988
-0.0042628
-0.00430329
-0.00435863
-0.00447187
-0.0046557
-0.0049154
-0.00512977
-0.00519139
-0.00521636
-0.00535447
-0.00558597
-0.00582071
-0.00600771
-0.00615831
-0.00634089
-0.00659239
-0.00686071
-0.00707922
-0.007247
-0.00740843
-0.00757981
-0.00773786
-0.00787546
-0.0080244
-0.00820498
-0.00839235
-0.00856628
-0.00875039
-0.00897252
-0.00921286
-0.00943402
-0.00963643
-0.00984637
-0.0100627
-0.0102607
-0.0104446
-0.0106438
-0.0108561
-0.0110592
-0.0112636
-0.0114975
-0.011739
-0.0119636
-0.0121989
-0.0124429
-0.012668
-0.0128964
-0.0131397
-0.0133814
-0.0136314
-0.0138962
-0.0141564
-0.0144123
-0.0146699
-0.0149297
-0.0151944
-0.0154714
-0.0157557
-0.0160382
-0.0163208
-0.016606
-0.0168943
-0.0171887
-0.0174897
-0.0177971
-0.0181079
-0.0184209
-0.0187355
-0.0190563
-0.0193836
-0.0197178
-0.0200569
-0.0204014
-0.02075
-0.0211041
-0.0214627
-0.0218282
-0.0221995
-0.0225786
-0.0229607
-0.0233506
-0.0237441
-0.0241464
-0.0245518
-0.0249672
-0.0253821
-0.0258166
-0.0262453
-0.0266533
-0.027104
0.0199897
0.0156415
0.00646383
-0.000611726
-0.00351718
-0.00356893
-0.00310934
-0.00317891
-0.0036408
-0.00405465
-0.0042352
-0.00428447
-0.00434796
-0.00446639
-0.004651
-0.00490863
-0.00512182
-0.00518504
-0.0052126
-0.00535175
-0.00558252
-0.00581642
-0.00600362
-0.00615514
-0.00633844
-0.00659012
-0.00685852
-0.00707738
-0.00724561
-0.00740722
-0.00757852
-0.00773654
-0.00787422
-0.00802326
-0.00820388
-0.00839126
-0.00856524
-0.00874944
-0.00897165
-0.00921207
-0.00943329
-0.00963574
-0.00984572
-0.010062
-0.0102601
-0.010444
-0.0106432
-0.0108556
-0.0110587
-0.0112631
-0.011497
-0.0117386
-0.0119632
-0.0121985
-0.0124426
-0.0126677
-0.0128961
-0.0131393
-0.0133811
-0.0136311
-0.0138959
-0.0141562
-0.0144121
-0.0146697
-0.0149294
-0.0151941
-0.0154711
-0.0157555
-0.016038
-0.0163206
-0.0166059
-0.0168942
-0.0171885
-0.0174896
-0.0177969
-0.0181078
-0.0184207
-0.0187353
-0.0190562
-0.0193835
-0.0197176
-0.0200568
-0.0204013
-0.0207499
-0.021104
-0.0214626
-0.0218281
-0.0221994
-0.0225785
-0.0229606
-0.0233505
-0.023744
-0.0241463
-0.0245517
-0.0249671
-0.025382
-0.0258166
-0.0262452
-0.0266533
-0.0271041
0.0189259
0.0153719
0.00668735
-0.000293176
-0.00331702
-0.00349332
-0.00306689
-0.00313312
-0.00359451
-0.00401284
-0.00420068
-0.00425963
-0.00433317
-0.00445885
-0.00464513
-0.00489992
-0.00511111
-0.00517666
-0.00520836
-0.00534928
-0.00557883
-0.00581104
-0.0059982
-0.00615103
-0.00633528
-0.00658688
-0.0068551
-0.00707457
-0.00724378
-0.00740583
-0.00757698
-0.00773492
-0.00787284
-0.00802207
-0.0082026
-0.00838986
-0.00856392
-0.00874827
-0.00897057
-0.00921104
-0.00943237
-0.00963493
-0.00984495
-0.0100613
-0.0102594
-0.0104433
-0.0106425
-0.010855
-0.0110581
-0.0112625
-0.0114965
-0.0117381
-0.0119627
-0.0121981
-0.0124422
-0.0126673
-0.0128957
-0.013139
-0.0133807
-0.0136307
-0.0138956
-0.0141559
-0.0144118
-0.0146694
-0.0149292
-0.0151939
-0.0154709
-0.0157553
-0.0160378
-0.0163204
-0.0166057
-0.016894
-0.0171883
-0.0174894
-0.0177968
-0.0181076
-0.0184206
-0.0187352
-0.019056
-0.0193834
-0.0197175
-0.0200566
-0.0204012
-0.0207497
-0.0211038
-0.0214625
-0.0218279
-0.0221993
-0.0225784
-0.0229605
-0.0233504
-0.0237439
-0.0241462
-0.0245516
-0.024967
-0.0253819
-0.0258165
-0.0262451
-0.0266532
-0.0271042
0.0178731
0.015048
0.00690444
3.32706e-05
-0.00310677
-0.00341416
-0.00302572
-0.00308719
-0.00354589
-0.00396786
-0.00416257
-0.00423114
-0.0043153
-0.00444918
-0.00463769
-0.00488934
-0.0050982
-0.0051667
-0.00520372
-0.00534699
-0.005575
-0.00580495
-0.00599197
-0.00614643
-0.0063317
-0.00658265
-0.00685014
-0.00707034
-0.00724113
-0.00740401
-0.00757502
-0.00773289
-0.0078713
-0.00802089
-0.00820124
-0.00838822
-0.00856232
-0.00874686
-0.00896919
-0.00920964
-0.00943114
-0.00963394
-0.00984404
-0.0100603
-0.0102586
-0.0104426
-0.0106418
-0.0108542
-0.0110573
-0.0112618
-0.0114959
-0.0117375
-0.0119622
-0.0121976
-0.0124417
-0.0126668
-0.0128953
-0.0131385
-0.0133803
-0.0136303
-0.0138952
-0.0141555
-0.0144115
-0.0146691
-0.0149289
-0.0151936
-0.0154706
-0.0157551
-0.0160376
-0.0163202
-0.0166054
-0.0168937
-0.0171881
-0.0174892
-0.0177966
-0.0181074
-0.0184204
-0.018735
-0.0190559
-0.0193832
-0.0197173
-0.0200565
-0.020401
-0.0207496
-0.0211037
-0.0214624
-0.0218278
-0.0221992
-0.0225783
-0.0229604
-0.0233503
-0.0237438
-0.0241461
-0.0245515
-0.0249669
-0.0253818
-0.0258164
-0.0262451
-0.0266532
-0.0271044
0.0168476
0.0146744
0.00710666
0.000362991
-0.00288669
-0.00333006
-0.0029854
-0.00304151
-0.00349558
-0.00392074
-0.00412236
-0.00420047
-0.00429527
-0.0044377
-0.00462881
-0.00487733
-0.00508382
-0.00515573
-0.00519875
-0.00534468
-0.00557098
-0.00579843
-0.00598542
-0.00614191
-0.00632821
-0.00657784
-0.0068438
-0.00706458
-0.00723738
-0.00740149
-0.00757243
-0.00773034
-0.00786951
-0.00801973
-0.00819989
-0.00838646
-0.00856059
-0.00874529
-0.00896749
-0.00920778
-0.00942948
-0.00963265
-0.00984288
-0.0100592
-0.0102575
-0.0104417
-0.0106409
-0.0108532
-0.0110564
-0.011261
-0.0114951
-0.0117368
-0.0119615
-0.012197
-0.0124412
-0.0126662
-0.0128947
-0.013138
-0.0133798
-0.0136299
-0.0138948
-0.0141551
-0.0144111
-0.0146687
-0.0149285
-0.0151933
-0.0154703
-0.0157548
-0.0160373
-0.0163199
-0.0166052
-0.0168935
-0.0171879
-0.0174889
-0.0177964
-0.0181072
-0.0184202
-0.0187348
-0.0190557
-0.019383
-0.0197172
-0.0200563
-0.0204009
-0.0207494
-0.0211036
-0.0214623
-0.0218277
-0.022199
-0.0225781
-0.0229603
-0.0233501
-0.0237437
-0.024146
-0.0245514
-0.0249668
-0.0253817
-0.0258163
-0.026245
-0.0266532
-0.0271046
0.0158609
0.0142516
0.00728417
0.000692695
-0.00265521
-0.00323838
-0.00294488
-0.00299636
-0.0034439
-0.00387175
-0.00408051
-0.00416816
-0.00427354
-0.00442473
-0.0046188
-0.00486433
-0.00506846
-0.005144
-0.00519343
-0.0053422
-0.00556669
-0.00579157
-0.00597875
-0.00613767
-0.00632511
-0.00657292
-0.00683661
-0.00705759
-0.00723252
-0.00739809
-0.00756911
-0.00772718
-0.00786739
-0.00801847
-0.00819851
-0.00838469
-0.00855892
-0.00874377
-0.00896562
-0.00920547
-0.00942733
-0.00963097
-0.00984138
-0.0100576
-0.0102562
-0.0104407
-0.0106399
-0.0108521
-0.0110554
-0.01126
-0.0114941
-0.0117358
-0.0119607
-0.0121962
-0.0124405
-0.0126656
-0.0128941
-0.0131374
-0.0133792
-0.0136293
-0.0138943
-0.0141546
-0.0144106
-0.0146683
-0.0149281
-0.0151928
-0.0154699
-0.0157544
-0.016037
-0.0163196
-0.0166049
-0.0168932
-0.0171876
-0.0174887
-0.0177961
-0.018107
-0.01842
-0.0187346
-0.0190554
-0.0193828
-0.019717
-0.0200561
-0.0204007
-0.0207493
-0.0211034
-0.0214621
-0.0218275
-0.0221989
-0.022578
-0.0229601
-0.02335
-0.0237436
-0.0241459
-0.0245513