/*--------------------------------*- C++ -*----------------------------------*\
| =========                 |                                                 |
| \\      /  F ield         | OpenFOAM: The Open Source CFD Toolbox           |
|  \\    /   O peration     | Version:  v1906                                 |
|   \\  /    A nd           | Web:      www.OpenFOAM.com                      |
|    \\/     M anipulation  |                                                 |
\*---------------------------------------------------------------------------*/
FoamFile
{
    version     2.0;
    format      ascii;
    class       surfaceScalarField;
    location    "2.6";
    object      phi;
}
// * * * * * * * * * * * * * * * * * * * * * * * * * * * * * * * * * * * * * //

dimensions      [0 3 -1 0 0 0 0];
oriented        oriented;


internalField   nonuniform List<scalar> 
19000
(
1.16861e-06
3.45115e-07
1.13685e-06
-4.28925e-07
1.20102e-06
-4.18636e-07
1.20707e-06
4.60968e-07
1.12627e-06
5.7392e-07
1.11684e-06
-6.0072e-08
1.1733e-06
-1.00811e-07
1.13866e-06
-8.09761e-07
1.17493e-06
-1.43906e-07
1.16594e-06
7.37472e-09
1.15622e-06
4.79483e-08
1.16528e-06
5.04746e-07
1.13751e-06
3.80887e-07
1.13169e-06
3.58973e-07
1.13281e-06
9.99473e-08
1.12248e-06
-4.29665e-08
1.13381e-06
3.10389e-08
1.11392e-06
-2.38122e-07
1.12758e-06
-8.68972e-09
-2.85372e-07
1.06486e-06
1.22171e-06
3.47665e-07
1.18984e-06
-3.97056e-07
1.25669e-06
-4.85483e-07
1.26774e-06
4.49915e-07
1.18211e-06
6.59553e-07
1.17332e-06
-5.12783e-08
1.22606e-06
-1.53551e-07
1.19227e-06
-7.75976e-07
1.22776e-06
-1.79392e-07
1.22442e-06
1.07133e-08
1.2076e-06
6.47697e-08
1.22767e-06
4.84673e-07
1.19085e-06
4.17705e-07
1.19509e-06
3.54739e-07
1.18425e-06
1.10786e-07
1.18867e-06
-4.73879e-08
1.18217e-06
3.75333e-08
1.1843e-06
-2.40246e-07
1.17096e-06
4.65179e-09
-2.67553e-07
1.15314e-06
1.27722e-06
3.53228e-07
1.24816e-06
-3.67994e-07
1.31028e-06
-5.47606e-07
1.33125e-06
4.28946e-07
1.24605e-06
7.4475e-07
1.23555e-06
-4.07767e-08
1.28116e-06
-1.99158e-07
1.25525e-06
-7.50072e-07
1.28114e-06
-2.05278e-07
1.28838e-06
3.47439e-09
1.26216e-06
9.09838e-08
1.28467e-06
4.62167e-07
1.25021e-06
4.52167e-07
1.25319e-06
3.51754e-07
1.24374e-06
1.20236e-07
1.24791e-06
-5.15547e-08
1.2462e-06
3.92466e-08
1.24591e-06
-2.39956e-07
1.24308e-06
7.47367e-09
-2.46681e-07
1.22221e-06
1.33632e-06
3.6101e-07
1.31263e-06
-3.44305e-07
1.36336e-06
-5.98336e-07
1.3933e-06
3.99009e-07
1.31717e-06
8.20882e-07
1.30389e-06
-2.75016e-08
1.33931e-06
-2.3457e-07
1.32494e-06
-7.35705e-07
1.3388e-06
-2.1914e-07
1.35292e-06
-1.06445e-08
1.32249e-06
1.21411e-07
1.33555e-06
4.49108e-07
1.31498e-06
4.72738e-07
1.31352e-06
3.53213e-07
1.30879e-06
1.24967e-07
1.31112e-06
-5.38817e-08
1.31264e-06
3.77266e-08
1.31057e-06
-2.3789e-07
1.31056e-06
7.48293e-09
-2.23697e-07
1.28758e-06
1.40001e-06
3.69356e-07
1.38254e-06
-3.26832e-07
1.4173e-06
-6.33102e-07
1.4522e-06
3.64107e-07
1.39389e-06
8.79197e-07
1.37755e-06
-1.11665e-08
1.40161e-06
-2.58628e-07
1.39724e-06
-7.31337e-07
1.40177e-06
-2.23673e-07
1.41609e-06
-2.49616e-08
1.38868e-06
1.4882e-07
1.39023e-06
4.47565e-07
1.38251e-06
4.80449e-07
1.3817e-06
3.54029e-07
1.3788e-06
1.27865e-07
1.38063e-06
-5.57146e-08
1.38275e-06
3.56068e-08
1.37902e-06
-2.34159e-07
1.38025e-06
6.25144e-09
-1.99253e-07
1.35581e-06
1.4688e-06
3.76237e-07
1.45651e-06
-3.14549e-07
1.47419e-06
-6.50779e-07
1.50941e-06
3.28892e-07
1.47384e-06
9.14759e-07
1.45548e-06
7.19142e-09
1.4688e-06
-2.71946e-07
1.46981e-06
-7.32348e-07
1.4691e-06
-2.22958e-07
1.47981e-06
-3.56735e-08
1.4583e-06
1.70326e-07
1.45354e-06
4.52333e-07
1.45319e-06
4.80799e-07
1.45582e-06
3.51396e-07
1.45385e-06
1.29836e-07
1.45489e-06
-5.67573e-08
1.45692e-06
3.35747e-08
1.45079e-06
-2.28027e-07
1.45307e-06
3.96863e-09
-1.73581e-07
1.4274e-06
1.54241e-06
3.80044e-07
1.53343e-06
-3.05569e-07
1.53613e-06
-6.53481e-07
1.56827e-06
2.96755e-07
1.55474e-06
9.28291e-07
1.53659e-06
2.53347e-08
1.54093e-06
-2.76288e-07
1.54252e-06
-7.3393e-07
1.53927e-06
-2.19715e-07
1.54625e-06
-4.26489e-08
1.53007e-06
1.86507e-07
1.52444e-06
4.57962e-07
1.52813e-06
4.7711e-07
1.5338e-06
3.45725e-07
1.53272e-06
1.30913e-07
1.53276e-06
-5.6791e-08
1.53438e-06
3.19542e-08
1.52547e-06
-2.19124e-07
1.52842e-06
1.02302e-09
-1.47123e-07
1.50196e-06
1.61996e-06
3.80212e-07
1.61269e-06
-2.98298e-07
1.60437e-06
-6.45158e-07
1.63192e-06
2.69201e-07
1.63546e-06
9.24752e-07
1.61986e-06
4.09331e-08
1.61754e-06
-2.73962e-07
1.61645e-06
-7.32845e-07
1.61172e-06
-2.14986e-07
1.61638e-06
-4.73061e-08
1.60449e-06
1.98397e-07
1.60092e-06
4.61533e-07
1.60747e-06
4.7056e-07
1.61499e-06
3.38205e-07
1.61446e-06
1.31445e-07
1.61342e-06
-5.57584e-08
1.61469e-06
3.06833e-08
1.60303e-06
-2.07464e-07
1.60627e-06
-2.21125e-09
-1.20449e-07
1.57959e-06
1.70054e-06
3.77241e-07
1.6942e-06
-2.91948e-07
1.67903e-06
-6.2999e-07
1.70193e-06
2.46303e-07
1.71632e-06
9.10354e-07
1.70465e-06
5.261e-08
1.69799e-06
-2.67302e-07
1.69299e-06
-7.27846e-07
1.68695e-06
-2.08946e-07
1.6904e-06
-5.07624e-08
1.6824e-06
2.06399e-07
1.68185e-06
4.62081e-07
1.69071e-06
4.61699e-07
1.69907e-06
3.29848e-07
1.69869e-06
1.31831e-07
1.69642e-06
-5.34958e-08
1.69761e-06
2.94934e-08
1.68355e-06
-1.93404e-07
1.68679e-06
-5.45141e-09
-9.42119e-08
1.66056e-06
1.78377e-06
3.72192e-07
1.7782e-06
-2.86382e-07
1.75954e-06
-6.11327e-07
1.77835e-06
2.27499e-07
1.79841e-06
8.90288e-07
1.79086e-06
6.01594e-08
1.78183e-06
-2.58274e-07
1.77315e-06
-7.19166e-07
1.76586e-06
-2.01654e-07
1.76844e-06
-5.33388e-08
1.76413e-06
2.10704e-07
1.76657e-06
4.59646e-07
1.77724e-06
4.51027e-07
1.78569e-06
3.21402e-07
1.78529e-06
1.3223e-07
1.78166e-06
-4.98704e-08
1.78299e-06
2.81605e-08
1.76712e-06
-1.77526e-07
1.77013e-06
-8.46249e-09
-6.91128e-08
1.74503e-06
1.86985e-06
3.66091e-07
1.86515e-06
-2.81686e-07
1.84517e-06
-5.91349e-07
1.86057e-06
2.12108e-07
1.88293e-06
8.67921e-07
1.87895e-06
6.41407e-08
1.86895e-06
-2.48273e-07
1.85747e-06
-7.0768e-07
1.84919e-06
-1.93374e-07
1.85075e-06
-5.4905e-08
1.84971e-06
2.11748e-07
1.85457e-06
4.54786e-07
1.86659e-06
4.39004e-07
1.87465e-06
3.13338e-07
1.87432e-06
1.32564e-07
1.86937e-06
-4.49213e-08
1.87094e-06
2.65881e-08
1.85391e-06
-1.60496e-07
1.85644e-06
-1.09879e-08
-4.58269e-08
1.83315e-06
1.95932e-06
3.59608e-07
1.9555e-06
-2.77868e-07
1.93534e-06
-5.71189e-07
1.94799e-06
1.99462e-07
1.9709e-06
8.45009e-07
1.96964e-06
6.54029e-08
1.95952e-06
-2.38149e-07
1.94609e-06
-6.94255e-07
1.93726e-06
-1.84548e-07
1.93765e-06
-5.52949e-08
1.93921e-06
2.10195e-07
1.9457e-06
4.48298e-07
1.95871e-06
4.25986e-07
1.96618e-06
3.05875e-07
1.96608e-06
1.32658e-07
1.96002e-06
-3.88566e-08
1.96177e-06
2.48322e-08
1.94424e-06
-1.42963e-07
1.94597e-06
-1.27168e-08
-2.49181e-08
1.92506e-06
2.05276e-06
3.53034e-07
2.04966e-06
-2.74769e-07
2.02974e-06
-5.51264e-07
2.04031e-06
1.88889e-07
2.06308e-06
8.22238e-07
2.06369e-06
6.47997e-08
2.05387e-06
-2.28332e-07
2.03909e-06
-6.79471e-07
2.03017e-06
-1.75632e-07
2.02934e-06
-5.44647e-08
2.03285e-06
2.0669e-07
2.04019e-06
4.40958e-07
2.05396e-06
4.12214e-07
2.06078e-06
2.99053e-07
2.06107e-06
1.32372e-07
2.0542e-06
-3.19896e-08
2.05592e-06
2.31076e-08
2.03847e-06
-1.25506e-07
2.03911e-06
-1.3357e-08
-6.72116e-09
2.02091e-06
2.15062e-06
3.46418e-07
2.14797e-06
-2.72119e-07
2.12832e-06
-5.31615e-07
2.13748e-06
1.79726e-07
2.16001e-06
7.99706e-07
2.16174e-06
6.30768e-08
2.1524e-06
-2.19e-07
2.13655e-06
-6.63613e-07
2.12789e-06
-1.66981e-07
2.12589e-06
-5.2458e-08
2.13088e-06
2.01698e-07
2.13848e-06
4.33357e-07
2.15286e-06
3.97833e-07
2.15912e-06
2.92792e-07
2.1598e-06
1.31692e-07
2.1525e-06
-2.46886e-08
2.15385e-06
2.17623e-08
2.13696e-06
-1.08618e-07
2.13635e-06
-1.2746e-08
8.73803e-09
2.12089e-06
2.2532e-06
3.39703e-07
2.25071e-06
-2.69623e-07
2.23124e-06
-5.12147e-07
2.23957e-06
1.71393e-07
2.26204e-06
7.7724e-07
2.26428e-06
6.08356e-08
2.25548e-06
-2.10198e-07
2.23862e-06
-6.46757e-07
2.23048e-06
-1.58835e-07
2.22735e-06
-4.93344e-08
2.23356e-06
1.95485e-07
2.24107e-06
4.25852e-07
2.25596e-06
3.82946e-07
2.26182e-06
2.8693e-07
2.26276e-06
1.30752e-07
2.25541e-06
-1.73403e-08
2.25599e-06
2.11822e-08
2.24003e-06
-9.26545e-08
2.23823e-06
-1.0953e-08
2.17609e-08
2.22521e-06
2.36077e-06
3.3281e-07
2.35817e-06
-2.6703e-07
2.3388e-06
-4.92771e-07
2.34672e-06
1.63471e-07
2.36937e-06
7.54596e-07
2.37167e-06
5.85286e-08
2.36341e-06
-2.01933e-07
2.34553e-06
-6.28875e-07
2.33804e-06
-1.51354e-07
2.33385e-06
-4.5136e-08
2.34115e-06
1.88181e-07
2.3484e-06
4.18601e-07
2.36367e-06
3.67676e-07
2.36936e-06
2.81239e-07
2.37032e-06
1.29792e-07
2.36328e-06
-1.03003e-08
2.36279e-06
2.16747e-08
2.34793e-06
-7.77967e-08
2.34517e-06
-8.19461e-09
3.27956e-08
2.33414e-06
2.47353e-06
3.25671e-07
2.47066e-06
-2.64154e-07
2.45134e-06
-4.73452e-07
2.45908e-06
1.55732e-07
2.48213e-06
7.3154e-07
2.48419e-06
5.64752e-08
2.47648e-06
-1.94228e-07
2.45751e-06
-6.09899e-07
2.4508e-06
-1.44648e-07
2.44556e-06
-3.9894e-08
2.45388e-06
1.79866e-07
2.46087e-06
4.11609e-07
2.47633e-06
3.5221e-07
2.48214e-06
2.75428e-07
2.4828e-06
1.29136e-07
2.47637e-06
-3.87192e-09
2.47469e-06
2.33605e-08
2.46086e-06
-6.3968e-08
2.45746e-06
-4.80153e-09
4.22792e-08
2.44798e-06
2.59173e-06
3.18236e-07
2.58844e-06
-2.60869e-07
2.56922e-06
-4.54225e-07
2.57682e-06
1.48125e-07
2.60048e-06
7.07886e-07
2.60206e-06
5.48944e-08
2.59497e-06
-1.87139e-07
2.57485e-06
-5.89775e-07
2.56899e-06
-1.38792e-07
2.56275e-06
-3.36494e-08
2.57198e-06
1.70636e-07
2.57881e-06
4.04774e-07
2.5942e-06
3.36817e-07
2.60046e-06
2.69168e-07
2.60047e-06
1.29125e-07
2.59484e-06
1.75957e-09
2.5921e-06
2.61031e-08
2.57896e-06
-5.08317e-08
2.57532e-06
-1.16117e-09
5.05168e-08
2.56709e-06
2.71559e-06
3.10471e-07
2.71181e-06
-2.57082e-07
2.69277e-06
-4.35183e-07
2.70017e-06
1.40722e-07
2.72456e-06
6.83492e-07
2.72552e-06
5.39414e-08
2.71912e-06
-1.80744e-07
2.69782e-06
-5.68479e-07
2.69285e-06
-1.33822e-07
2.68568e-06
-2.64774e-08
2.69567e-06
1.60645e-07
2.70254e-06
3.97906e-07
2.71752e-06
3.21842e-07
2.72455e-06
2.62138e-07
2.72365e-06
1.30024e-07
2.71883e-06
6.57675e-09
2.71539e-06
2.95471e-08
2.7025e-06
-3.79488e-08
2.69894e-06
2.40285e-09
5.76524e-08
2.6918e-06
2.84539e-06
3.02352e-07
2.84102e-06
-2.52715e-07
2.82231e-06
-4.16468e-07
2.82936e-06
1.33664e-07
2.85461e-06
6.58248e-07
2.85481e-06
5.3734e-08
2.84919e-06
-1.75116e-07
2.82674e-06
-5.46035e-07
2.82264e-06
-1.2972e-07
2.81467e-06
-1.85043e-08
2.82519e-06
1.50119e-07
2.83235e-06
3.9075e-07
2.84653e-06
3.07659e-07
2.8546e-06
2.54071e-07
2.85267e-06
1.31952e-07
2.84849e-06
1.07584e-08
2.84482e-06
3.32176e-08
2.83184e-06
-2.49649e-08
2.82847e-06
5.76446e-09
6.36583e-08
2.82247e-06
2.98139e-06
2.93861e-07
2.97636e-06
-2.47688e-07
2.95814e-06
-3.98247e-07
2.96468e-06
1.27119e-07
2.99087e-06
6.32062e-07
2.99024e-06
5.43607e-08
2.98542e-06
-1.70296e-07
2.96191e-06
-5.22522e-07
2.95859e-06
-1.26403e-07
2.95001e-06
-9.92156e-09
2.96079e-06
1.39339e-07
2.96852e-06
3.83023e-07
2.98156e-06
2.94618e-07
2.99081e-06
2.4482e-07
2.98793e-06
1.34826e-07
2.98401e-06
1.46818e-08
2.98061e-06
3.66166e-08
2.9674e-06
-1.17556e-08
2.96408e-06
9.08566e-09
6.8359e-08
2.95938e-06
3.12388e-06
2.84986e-07
3.11811e-06
-2.41917e-07
3.10056e-06
-3.80697e-07
3.10643e-06
1.21248e-07
3.13363e-06
6.04864e-07
3.13211e-06
5.5877e-08
3.12809e-06
-1.66278e-07
3.10365e-06
-4.98072e-07
3.10097e-06
-1.23724e-07
3.09203e-06
-9.84763e-10
3.10273e-06
1.28636e-07
3.11132e-06
3.74436e-07
3.12295e-06
2.82992e-07
3.13337e-06
2.34392e-07
3.12981e-06
1.3839e-07
3.12567e-06
1.88242e-08
3.12294e-06
3.93458e-08
3.10964e-06
1.54461e-09
3.10598e-06
1.27396e-08
7.15489e-08
3.10279e-06
3.27318e-06
2.75718e-07
3.26658e-06
-2.3532e-07
3.24988e-06
-3.63991e-07
3.25493e-06
1.16192e-07
3.28318e-06
5.7662e-07
3.28076e-06
5.82932e-08
3.27748e-06
-1.63002e-07
3.25229e-06
-4.72881e-07
3.25003e-06
-1.21457e-07
3.24105e-06
7.99229e-09
3.25133e-06
1.18354e-07
3.26102e-06
3.64748e-07
3.27108e-06
2.7293e-07
3.2825e-06
2.22972e-07
3.27865e-06
1.42246e-07
3.27382e-06
2.36493e-08
3.27195e-06
4.12152e-08
3.25891e-06
1.45889e-08
3.25449e-06
1.71512e-08
7.31236e-08
3.25292e-06
3.4296e-06
2.66049e-07
3.4221e-06
-2.2782e-07
3.40639e-06
-3.48284e-07
3.41053e-06
1.12059e-07
3.43981e-06
5.4734e-07
3.43654e-06
6.15614e-08
3.43388e-06
-1.60345e-07
3.40821e-06
-4.47211e-07
3.40607e-06
-1.19316e-07
3.3974e-06
1.66674e-08
3.40694e-06
1.08812e-07
3.41788e-06
3.5381e-07
3.42637e-06
2.64439e-07
3.43845e-06
2.1089e-07
3.43476e-06
1.45933e-07
3.42889e-06
2.95193e-08
3.42783e-06
4.22738e-08
3.41553e-06
2.68907e-08
3.41003e-06
2.26501e-08
7.31992e-08
3.40996e-06
3.59348e-06
2.55977e-07
3.58502e-06
-2.19353e-07
3.57044e-06
-3.33704e-07
3.57358e-06
1.08912e-07
3.60382e-06
5.17098e-07
3.59982e-06
6.55638e-08
3.59761e-06
-1.58131e-07
3.57178e-06
-4.21381e-07
3.56944e-06
-1.16976e-07
3.56139e-06
2.47155e-08
3.56994e-06
1.00259e-07
3.58215e-06
3.416e-07
3.5892e-06
2.57394e-07
3.60154e-06
1.98548e-07
3.59842e-06
1.49052e-07
3.59136e-06
3.65827e-08
3.59089e-06
4.27422e-08
3.57978e-06
3.79969e-08
3.57306e-06
2.93703e-08
7.21443e-08
3.57412e-06
3.76518e-06
2.45503e-07
3.7557e-06
-2.09878e-07
3.74234e-06
-3.20344e-07
3.74449e-06
1.06767e-07
3.77554e-06
4.86047e-07
3.771e-06
7.01049e-08
3.76898e-06
-1.56113e-07
3.74338e-06
-3.95783e-07
3.74049e-06
-1.14084e-07
3.73335e-06
3.18554e-08
3.74077e-06
9.28367e-08
3.75413e-06
3.2824e-07
3.75997e-06
2.51555e-07
3.77214e-06
1.86384e-07
3.76992e-06
1.51264e-07
3.76169e-06
4.48178e-08
3.76147e-06
4.29566e-08
3.75193e-06
4.75403e-08
3.74409e-06
3.72101e-08
7.05827e-08
3.74565e-06
3.94506e-06
2.34633e-07
3.93456e-06
-1.99375e-07
3.92247e-06
-3.08254e-07
3.92365e-06
1.05579e-07
3.95529e-06
4.54415e-07
3.95048e-06
7.49113e-08
3.94835e-06
-1.53987e-07
3.92341e-06
-3.70838e-07
3.91968e-06
-1.10353e-07
3.91358e-06
3.79489e-08
3.91988e-06
8.65374e-08
3.93415e-06
3.13977e-07
3.93906e-06
2.4664e-07
3.95065e-06
1.74798e-07
3.94958e-06
1.52333e-07
3.94035e-06
5.40503e-08
3.93997e-06
4.33327e-08
3.93228e-06
5.52317e-08
3.9236e-06
4.58875e-08
6.92855e-08
3.9249e-06
4.13351e-06
2.23377e-07
4.12199e-06
-1.87861e-07
4.11117e-06
-2.97429e-07
4.11151e-06
1.05239e-07
4.14342e-06
4.22504e-07
4.13869e-06
7.96448e-08
4.13609e-06
-1.51396e-07
4.11225e-06
-3.46991e-07
4.10746e-06
-1.05567e-07
4.10241e-06
4.3e-08
4.10772e-06
8.12317e-08
4.12259e-06
2.99107e-07
4.12684e-06
2.4239e-07
4.13753e-06
1.64101e-07
4.13772e-06
1.52144e-07
4.12777e-06
6.40031e-08
4.1268e-06
4.42961e-08
4.12111e-06
6.09222e-08
4.11207e-06
5.4931e-08
6.90165e-08
4.11234e-06
4.33092e-06
2.11757e-07
4.31844e-06
-1.75381e-07
4.30882e-06
-2.87808e-07
4.3085e-06
1.05559e-07
4.34031e-06
3.90691e-07
4.33605e-06
8.39137e-08
4.3326e-06
-1.47951e-07
4.31026e-06
-3.24653e-07
4.30436e-06
-9.96587e-08
4.30018e-06
4.7178e-08
4.30469e-06
7.67187e-08
4.3199e-06
2.83902e-07
4.32366e-06
2.38622e-07
4.33327e-06
1.54497e-07
4.33469e-06
1.50724e-07
4.32439e-06
7.4301e-08
4.32247e-06
4.62093e-08
4.31871e-06
6.46877e-08
4.30994e-06
6.37012e-08
7.03215e-08
4.30863e-06
4.53773e-06
1.99805e-07
4.52437e-06
-1.62021e-07
4.51582e-06
-2.79267e-07
4.51511e-06
1.06278e-07
4.54637e-06
3.59423e-07
4.54301e-06
8.7277e-08
4.5383e-06
-1.43242e-07
4.51778e-06
-3.04133e-07
4.5109e-06
-9.2773e-08
4.50729e-06
5.0779e-08
4.51121e-06
7.27986e-08
4.52654e-06
2.68573e-07
4.52994e-06
2.35227e-07
4.53832e-06
1.46116e-07
4.54088e-06
1.48162e-07
4.53063e-06
8.45521e-08
4.52753e-06
4.93098e-08
4.52534e-06
6.68769e-08
4.5176e-06
7.14404e-08
7.33542e-08
4.51457e-06
4.75435e-06
1.87569e-07
4.74024e-06
-1.47907e-07
4.73257e-06
-2.71602e-07
4.73181e-06
1.07041e-07
4.76202e-06
3.29213e-07
4.76002e-06
8.92724e-08
4.7537e-06
-1.36914e-07
4.73507e-06
-2.85511e-07
4.7276e-06
-8.53017e-08
4.72424e-06
5.4137e-08
4.72769e-06
6.93512e-08
4.743e-06
2.53261e-07
4.74611e-06
2.32123e-07
4.75314e-06
1.39087e-07
4.75676e-06
1.44538e-07
4.74691e-06
9.43985e-08
4.74254e-06
5.36793e-08
4.74145e-06
6.79727e-08
4.7353e-06
7.7591e-08
7.77366e-08
4.73091e-06
4.98125e-06
1.75114e-07
4.96656e-06
-1.33216e-07
4.95949e-06
-2.64527e-07
4.95911e-06
1.0742e-07
4.98771e-06
3.00615e-07
4.98755e-06
8.94269e-08
4.9794e-06
-1.28758e-07
4.9624e-06
-2.68511e-07
4.95494e-06
-7.78499e-08
4.95155e-06
5.75286e-08
4.95455e-06
6.63514e-08
4.96974e-06
2.38075e-07
4.97262e-06
2.29236e-07
4.97816e-06
1.33554e-07
4.98277e-06
1.39928e-07
4.97363e-06
1.03534e-07
4.96811e-06
5.92023e-08
4.96755e-06
6.85288e-08
4.96323e-06
8.19104e-08
8.27042e-08
4.95827e-06
5.21891e-06
1.62524e-07
5.20387e-06
-1.18179e-07
5.19699e-06
-2.57652e-07
5.1975e-06
1.06912e-07
5.22394e-06
2.74179e-07
5.22604e-06
8.73221e-08
5.21613e-06
-1.18843e-07
5.20021e-06
-2.52591e-07
5.19333e-06
-7.09707e-08
5.18977e-06
6.10866e-08
5.19225e-06
6.38677e-08
5.20721e-06
2.23115e-07
5.20996e-06
2.26492e-07
5.21388e-06
1.2963e-07
5.21931e-06
1.345e-07
5.21128e-06
1.11567e-07
5.20476e-06
6.57149e-08
5.20433e-06
6.89673e-08
5.20168e-06
8.45611e-08
8.73984e-08
5.19698e-06
5.46781e-06
1.49903e-07
5.45271e-06
-1.03076e-07
5.44556e-06
-2.50502e-07
5.44749e-06
1.04977e-07
5.47133e-06
2.50341e-07
5.4758e-06
8.28528e-08
5.46469e-06
-1.0773e-07
5.44915e-06
-2.3705e-07
5.44313e-06
-6.49591e-08
5.43946e-06
6.47585e-08
5.44125e-06
6.2076e-08
5.45588e-06
2.08492e-07
5.45857e-06
2.23797e-07
5.46083e-06
1.27375e-07
5.46688e-06
1.28443e-07
5.46032e-06
1.18131e-07
5.45304e-06
7.29968e-08
5.45241e-06
6.95959e-08
5.45108e-06
8.58953e-08
9.12093e-08
5.44726e-06
5.72849e-06
1.37373e-07
5.71365e-06
-8.82419e-08
5.70563e-06
-2.42481e-07
5.70961e-06
1.00996e-07
5.73067e-06
2.29284e-07
5.73706e-06
7.64658e-08
5.72563e-06
-9.63021e-08
5.70994e-06
-2.21364e-07
5.70479e-06
-5.98017e-08
5.70112e-06
6.84256e-08
5.702e-06
6.11932e-08
5.71612e-06
1.94376e-07
5.71893e-06
2.20987e-07
5.71959e-06
1.26712e-07
5.72603e-06
1.22006e-07
5.72129e-06
1.22871e-07
5.71346e-06
8.08249e-08
5.71242e-06
7.06371e-08
5.71207e-06
8.62434e-08
9.39148e-08
5.70937e-06
6.0015e-06
1.25065e-07
5.9873e-06
-7.40393e-08
5.9777e-06
-2.32881e-07
5.98438e-06
9.43166e-08
6.00288e-06
2.10778e-07
6.0102e-06
6.91532e-08
5.9993e-06
-8.54086e-08
5.98324e-06
-2.05299e-07
5.97861e-06
-5.51697e-08
5.97502e-06
7.20095e-08
5.97477e-06
6.14424e-08
5.98827e-06
1.80878e-07
5.99156e-06
2.17701e-07
5.99085e-06
1.27423e-07
5.99736e-06
1.15489e-07
5.99469e-06
1.25542e-07
5.98662e-06
8.88986e-08
5.98493e-06
7.23205e-08
5.98535e-06
8.58257e-08
9.55541e-08
5.98371e-06
6.28744e-06
1.13117e-07
6.27424e-06
-6.0847e-08
6.2625e-06
-2.21141e-07
6.27205e-06
8.47706e-08
6.28875e-06
1.94072e-07
6.29593e-06
6.19763e-08
6.28594e-06
-7.54157e-08
6.26935e-06
-1.88712e-07
6.26452e-06
-5.03415e-08
6.26098e-06
7.5556e-08
6.25973e-06
6.26846e-08
6.27282e-06
1.67788e-07
6.2771e-06
2.13424e-07
6.27537e-06
1.29159e-07
6.28151e-06
1.09343e-07
6.28102e-06
1.2603e-07
6.27312e-06
9.68042e-08
6.27055e-06
7.48921e-08
6.27155e-06
8.48258e-08
9.6209e-08
6.27089e-06
6.58693e-06
1.01652e-07
6.57511e-06
-4.90214e-08
6.56138e-06
-2.07416e-07
6.57291e-06
7.32396e-08
6.58883e-06
1.78155e-07
6.59519e-06
5.56148e-08
6.58578e-06
-6.60063e-08
6.56832e-06
-1.71251e-07
6.56292e-06
-4.49413e-08
6.55976e-06
7.87175e-08
6.55784e-06
6.46034e-08
6.57065e-06
1.54982e-07
6.57625e-06
2.07824e-07
6.57387e-06
1.31541e-07
6.57916e-06
1.04049e-07
6.58079e-06
1.24404e-07
6.57357e-06
1.04017e-07
6.56996e-06
7.85025e-08
6.57124e-06
8.3548e-08
9.58835e-08
6.57157e-06
6.90067e-06
9.07754e-08
6.89058e-06
-3.89384e-08
6.87532e-06
-1.92153e-07
6.88769e-06
6.08751e-08
6.90344e-06
1.62404e-07
6.90898e-06
5.00685e-08
6.89967e-06
-5.66895e-08
6.88144e-06
-1.53025e-07
6.87577e-06
-3.92723e-08
6.87316e-06
8.13298e-08
6.87058e-06
6.71805e-08
6.88271e-06
1.42854e-07
6.88967e-06
2.0087e-07
6.88699e-06
1.34214e-07
6.89112e-06
9.99222e-08
6.89448e-06
1.21044e-07
6.88855e-06
1.09947e-07
6.88397e-06
8.30807e-08
6.88507e-06
8.24504e-08
9.45689e-08
6.88638e-06
7.22934e-06
8.05736e-08
7.22136e-06
-3.09567e-08
7.20496e-06
-1.75754e-07
7.21722e-06
4.86085e-08
7.23298e-06
1.4665e-07
7.23803e-06
4.50167e-08
7.22885e-06
-4.75135e-08
7.21037e-06
-1.3454e-07
7.20418e-06
-3.30853e-08
7.20195e-06
8.35652e-08
7.19874e-06
7.03823e-08
7.20988e-06
1.31718e-07
7.21804e-06
1.92714e-07
7.21541e-06
1.36838e-07
7.21815e-06
9.71811e-08
7.22277e-06
1.16429e-07
7.21856e-06
1.14154e-07
7.21334e-06
8.8297e-08
7.2138e-06
8.19983e-08
9.2414e-08
7.21595e-06
7.57369e-06
7.11105e-08
7.56799e-06
-2.52626e-08
7.55097e-06
-1.58728e-07
7.56243e-06
3.71437e-08
7.57801e-06
1.3107e-07
7.583e-06
4.00265e-08
7.57445e-06
-3.89629e-08
7.55589e-06
-1.15973e-07
7.54875e-06
-2.59467e-08
7.54659e-06
8.572e-08
7.54301e-06
7.3961e-08
7.55298e-06
1.21756e-07
7.56205e-06
1.8364e-07
7.5598e-06
1.39088e-07
7.5611e-06
9.58863e-08
7.56639e-06
1.11131e-07
7.56415e-06
1.16393e-07
7.55882e-06
9.36333e-08
7.55832e-06
8.24932e-08
8.9797e-08
7.56094e-06
7.9345e-06
6.24207e-08
7.9309e-06
-2.1662e-08
7.91413e-06
-1.41959e-07
7.92416e-06
2.71181e-08
7.93954e-06
1.15686e-07
7.94444e-06
3.5128e-08
7.93749e-06
-3.20158e-08
7.91905e-06
-9.75342e-08
7.90996e-06
-1.68567e-08
7.90772e-06
8.79606e-08
7.90408e-06
7.76033e-08
7.91278e-06
1.1306e-07
7.92246e-06
1.73952e-07
7.92086e-06
1.40692e-07
7.9208e-06
9.5948e-08
7.92621e-06
1.05722e-07
7.92594e-06
1.16659e-07
7.92104e-06
9.85332e-08
7.91959e-06
8.3941e-08
8.72418e-08
7.92215e-06
8.31257e-06
5.45279e-08
8.31056e-06
-1.96506e-08
8.29492e-06
-1.26319e-07
8.30316e-06
1.88778e-08
8.31849e-06
1.00355e-07
8.32278e-06
3.08449e-08
8.31744e-06
-2.66789e-08
8.29898e-06
-7.90729e-08
8.28809e-06
-5.96763e-09
8.28617e-06
8.98806e-08
8.2827e-06
8.10726e-08
8.29004e-06
1.05719e-07
8.30008e-06
1.63916e-07
8.29931e-06
1.41461e-07
8.29813e-06
9.71279e-08
8.30313e-06
1.00718e-07
8.30466e-06
1.15127e-07
8.30067e-06
1.0253e-07
8.29851e-06
8.60988e-08
8.52107e-08
8.30054e-06
8.70873e-06
4.74625e-08
8.70816e-06
-1.90844e-08
8.69329e-06
-1.11448e-07
8.69988e-06
1.22854e-08
8.71476e-06
8.5478e-08
8.71813e-06
2.747e-08
8.71046e-06
-1.9006e-08
8.69209e-06
-6.07012e-08
8.68376e-06
2.3671e-09
8.68298e-06
9.06554e-08
8.67969e-06
8.43636e-08
8.68558e-06
9.98242e-08
8.69573e-06
1.53775e-07
8.69594e-06
1.41247e-07
8.69395e-06
9.91141e-08
8.69812e-06
9.65561e-08
8.70112e-06
1.12122e-07
8.69837e-06
1.05278e-07
8.69588e-06
8.85947e-08
8.39456e-08
8.69714e-06
9.12385e-06
4.12341e-08
9.12474e-06
-1.99736e-08
9.10996e-06
-9.66663e-08
9.11411e-06
8.13521e-09
9.12235e-06
7.72313e-08
9.12151e-06
2.8312e-08
9.11545e-06
-1.29416e-08
9.10407e-06
-4.93257e-08
9.09875e-06
7.68725e-09
9.09897e-06
9.04391e-08
9.09582e-06
8.7507e-08
9.10033e-06
9.53155e-08
9.11025e-06
1.43854e-07
9.1116e-06
1.39896e-07
9.10918e-06
1.01536e-07
9.11221e-06
9.35268e-08
9.11622e-06
1.0811e-07
9.11493e-06
1.06569e-07
9.11247e-06
9.10558e-08
8.34476e-08
9.11297e-06
9.55889e-06
3.58026e-08
9.56051e-06
-2.159e-08
9.5463e-06
-8.24606e-08
9.548e-06
6.44228e-09
9.55614e-06
6.90832e-08
9.55548e-06
2.89778e-08
9.54914e-06
-6.60273e-09
9.53832e-06
-3.85048e-08
9.53393e-06
1.20789e-08
9.53479e-06
8.95769e-08
9.53196e-06
9.03396e-08
9.5352e-06
9.20753e-08
9.54461e-06
1.34437e-07
9.54706e-06
1.37449e-07
9.54463e-06
1.03965e-07
9.54646e-06
9.16942e-08
9.55092e-06
1.03651e-07
9.55115e-06
1.06343e-07
9.54909e-06
9.31168e-08
8.35161e-08
9.54902e-06
1.00148e-05
3.1115e-08
1.00165e-05
-2.32632e-08
1.00037e-05
-6.96647e-08
1.00041e-05
6.05556e-09
1.0012e-05
6.11896e-08
1.00112e-05
2.97223e-08
1.00045e-05
1.61579e-10
9.99399e-06
-2.80235e-08
9.99001e-06
1.60602e-08
9.99134e-06
8.82439e-08
9.98899e-06
9.26943e-08
9.99111e-06
8.99525e-08
9.99984e-06
1.25704e-07
1.00032e-05
1.34044e-07
1.00012e-05
1.06023e-07
1.0002e-05
9.09031e-08
1.00064e-05
9.92645e-08
1.0008e-05
1.04748e-07
1.00066e-05
9.44787e-08
8.38843e-08
1.00062e-05
1.04926e-05
2.71048e-08
1.04942e-05
-2.48626e-08
1.04831e-05
-5.84674e-08
1.04825e-05
6.57004e-09
1.04896e-05
5.41667e-08
1.0489e-05
3.03303e-08
1.0482e-05
7.0971e-09
1.04717e-05
-1.77102e-08
1.04679e-05
1.9837e-08
1.04697e-05
8.64681e-08
1.04679e-05
9.44629e-08
1.04691e-05
8.87543e-08
1.0477e-05
1.17842e-07
1.04812e-05
1.29857e-07
1.04797e-05
1.0746e-07
1.04798e-05
9.08951e-08
1.04837e-05
9.53394e-08
1.04863e-05
1.02098e-07
1.04859e-05
9.494e-08
8.42789e-08
1.04855e-05
1.09934e-05
2.36933e-08
1.09948e-05
-2.62115e-08
1.09853e-05
-4.89934e-08
1.09839e-05
7.96003e-09
1.09899e-05
4.8225e-08
1.09895e-05
3.07076e-08
1.09827e-05
1.38641e-08
1.09725e-05
-7.54646e-09
1.09688e-05
2.35929e-08
1.09709e-05
8.43392e-08
1.09698e-05
9.55994e-08
1.09702e-05
8.82907e-08
1.09771e-05
1.10969e-07
1.09819e-05
1.25081e-07
1.09813e-05
1.08092e-07
1.09808e-05
9.13576e-08
1.09841e-05
9.20736e-08
1.09874e-05
9.87586e-08
1.09879e-05
9.44531e-08
8.44583e-08
1.09877e-05
1.15183e-05
2.07903e-08
1.15192e-05
-2.7173e-08
1.15113e-05
-4.10481e-08
1.15092e-05
1.00698e-08
1.15139e-05
4.34872e-08
1.15138e-05
3.07692e-08
1.15076e-05
2.01586e-08
1.14976e-05
2.36859e-09
1.14937e-05
2.75355e-08
1.14961e-05
8.19827e-08
1.14956e-05
9.60471e-08
1.14956e-05
8.83146e-08
1.15015e-05
1.05098e-07
1.15066e-05
1.19974e-07
1.15068e-05
1.07867e-07
1.15062e-05
9.19649e-08
1.15087e-05
8.95489e-08
1.15124e-05
9.50946e-08
1.15137e-05
9.30933e-08
8.42583e-08
1.15139e-05
1.20683e-05
1.83122e-08
1.20686e-05
-2.74929e-08
1.2062e-05
-3.44358e-08
1.20594e-05
1.26443e-08
1.20629e-05
4.00292e-08
1.20631e-05
3.05501e-08
1.20576e-05
2.56713e-08
1.20481e-05
1.18523e-08
1.20439e-05
3.17549e-08
1.20463e-05
7.95913e-08
1.20465e-05
9.57866e-08
1.20462e-05
8.86116e-08
1.20511e-05
1.00226e-07
1.20563e-05
1.14763e-07
1.20573e-05
1.06858e-07
1.20569e-05
9.24107e-08
1.20588e-05
8.76748e-08
1.20624e-05
9.14229e-08
1.20646e-05
9.09644e-08
8.35988e-08
1.20652e-05
1.26447e-05
1.61921e-08
1.26441e-05
-2.68636e-08
1.26385e-05
-2.88156e-08
1.26359e-05
1.52494e-08
1.26381e-05
3.77879e-08
1.26385e-05
3.01675e-08
1.2634e-05
3.02026e-08
1.26251e-05
2.06657e-08
1.26207e-05
3.62331e-08
1.26228e-05
7.74203e-08
1.26237e-05
9.48868e-08
1.26234e-05
8.89693e-08
1.26273e-05
9.62669e-08
1.26325e-05
1.09611e-07
1.26342e-05
1.05127e-07
1.26341e-05
9.25068e-08
1.26355e-05
8.62665e-08
1.26389e-05
8.80152e-08
1.26417e-05
8.82471e-08
8.24485e-08
1.26428e-05
1.32488e-05
1.43735e-08
1.32469e-05
-2.50166e-08
1.32421e-05
-2.4037e-08
1.32399e-05
1.75187e-08
1.3241e-05
3.66316e-08
1.32413e-05
2.98687e-08
1.32378e-05
3.37564e-08
1.32299e-05
2.85286e-08
1.32252e-05
4.08859e-08
1.3227e-05
7.5661e-08
1.32284e-05
9.34533e-08
1.32282e-05
8.9202e-08
1.32314e-05
9.30849e-08
1.32363e-05
1.04675e-07
1.32387e-05
1.02791e-07
1.3239e-05
9.21708e-08
1.32401e-05
8.51238e-08
1.32432e-05
8.49919e-08
1.32462e-05
8.51815e-08
8.07839e-08
1.32479e-05
1.38817e-05
1.28074e-08
1.3879e-05
-2.23131e-08
1.38747e-05
-1.97544e-08
1.3873e-05
1.92941e-08
1.38732e-05
3.64397e-08
1.3873e-05
3.00262e-08
1.38703e-05
3.64483e-08
1.38636e-05
3.52453e-08
1.38589e-05
4.55433e-08
1.38602e-05
7.43859e-08
1.3862e-05
9.16611e-08
1.3862e-05
8.9179e-08
1.38646e-05
9.05563e-08
1.38692e-05
1.0006e-07
1.3872e-05
1.00003e-07
1.38728e-05
9.1346e-08
1.38738e-05
8.40584e-08
1.38765e-05
8.23318e-08
1.38797e-05
8.19914e-08
7.86377e-08
1.38818e-05
1.4545e-05
1.14734e-08
1.45416e-05
-1.89194e-08
1.45377e-05
-1.58176e-08
1.45365e-05
2.04652e-08
1.4536e-05
3.6956e-08
1.45351e-05
3.09148e-08
1.4533e-05
3.85408e-08
1.45275e-05
4.07493e-08
1.45231e-05
4.99564e-08
1.45239e-05
7.35968e-08
1.45258e-05
8.9712e-08
1.45262e-05
8.88438e-08
1.45282e-05
8.853e-08
1.45324e-05
9.57972e-08
1.45355e-05
9.69009e-08
1.45369e-05
9.00273e-08
1.4538e-05
8.29062e-08
1.45404e-05
7.99895e-08
1.45435e-05
7.88416e-08
7.61203e-08
1.4546e-05
1.524e-05
1.03688e-08
1.52364e-05
-1.53017e-08
1.52325e-05
-1.19517e-08
1.52318e-05
2.11924e-08
1.52308e-05
3.78891e-08
1.52292e-05
3.25795e-08
1.52273e-05
4.03925e-08
1.5223e-05
4.51183e-08
1.52191e-05
5.3859e-08
1.52194e-05
7.32311e-08
1.52214e-05
8.77596e-08
1.5222e-05
8.81856e-08
1.52237e-05
8.68643e-08
1.52276e-05
9.19248e-08
1.52309e-05
9.35688e-08
1.52326e-05
8.82832e-08
1.5234e-05
8.15426e-08
1.52361e-05
7.78785e-08
1.52391e-05
7.58448e-08
7.33469e-08
1.52419e-05
1.59682e-05
9.50507e-09
1.59647e-05
-1.17789e-08
1.59607e-05
-7.99213e-09
1.59602e-05
2.16811e-08
1.59591e-05
3.89656e-08
1.59568e-05
3.4886e-08
1.59549e-05
4.23317e-08
1.59515e-05
4.8525e-08
1.59482e-05
5.71179e-08
1.59483e-05
7.3118e-08
1.59502e-05
8.58991e-08
1.59512e-05
8.72353e-08
1.59526e-05
8.54114e-08
1.5956e-05
8.85078e-08
1.59595e-05
9.00836e-08
1.59616e-05
8.61621e-08
1.59633e-05
7.99254e-08
1.59653e-05
7.58373e-08
1.59681e-05
7.30733e-08
7.04242e-08
1.5971e-05
1.67312e-05
8.89682e-09
1.67278e-05
-8.40961e-09
1.67238e-05
-3.95566e-09
1.67234e-05
2.21082e-08
1.67224e-05
3.99716e-08
1.67196e-05
3.76171e-08
1.67175e-05
4.45143e-08
1.67147e-05
5.12426e-08
1.67121e-05
5.97257e-08
1.67122e-05
7.30632e-08
1.67139e-05
8.41612e-08
1.67151e-05
8.60598e-08
1.67165e-05
8.40299e-08
1.67195e-05
8.55293e-08
1.67229e-05
8.65997e-08
1.67254e-05
8.36683e-08
1.67273e-05
7.8068e-08
1.67294e-05
7.37293e-08
1.6732e-05
7.04963e-08
6.74917e-08
1.67349e-05
1.75307e-05
8.54189e-09
1.75277e-05
-5.37176e-09
1.75236e-05
1.57277e-10
1.75229e-05
2.27366e-08
1.7522e-05
4.08639e-08
1.75192e-05
4.04749e-08
1.75167e-05
4.69584e-08
1.75144e-05
5.35754e-08
1.75124e-05
6.17307e-08
1.75125e-05
7.29534e-08
1.75142e-05
8.25179e-08
1.75155e-05
8.46989e-08
1.75169e-05
8.26507e-08
1.75195e-05
8.28774e-08
1.75229e-05
8.32581e-08
1.75257e-05
8.08804e-08
1.75278e-05
7.59447e-08
1.753e-05
7.15249e-08
1.75325e-05
6.79888e-08
6.4673e-08
1.75353e-05
1.83685e-05
8.42688e-09
1.83657e-05
-2.61744e-09
1.83617e-05
4.19408e-09
1.83607e-05
2.37356e-08
1.83599e-05
4.16821e-08
1.83571e-05
4.32099e-08
1.83545e-05
4.95769e-08
1.83523e-05
5.57452e-08
1.83508e-05
6.32641e-08
1.8351e-05
7.27426e-08
1.83526e-05
8.09127e-08
1.83541e-05
8.3173e-08
1.83556e-05
8.12317e-08
1.8358e-05
8.04644e-08
1.83612e-05
8.00765e-08
1.83641e-05
7.79578e-08
1.83665e-05
7.35312e-08
1.83688e-05
6.92109e-08
1.83713e-05
6.54588e-08
6.19711e-08
1.8374e-05
1.92463e-05
8.52034e-09
1.92438e-05
-8.85493e-11
1.92399e-05
8.06126e-09
1.92385e-05
2.51522e-08
1.92376e-05
4.25394e-08
1.92352e-05
4.56835e-08
1.92325e-05
5.22117e-08
1.92304e-05
5.78387e-08
1.92292e-05
6.45327e-08