/*--------------------------------*- C++ -*----------------------------------*\
| =========                 |                                                 |
| \\      /  F ield         | OpenFOAM: The Open Source CFD Toolbox           |
|  \\    /   O peration     | Version:  v1906                                 |
|   \\  /    A nd           | Web:      www.OpenFOAM.com                      |
|    \\/     M anipulation  |                                                 |
\*---------------------------------------------------------------------------*/
FoamFile
{
    version     2.0;
    format      ascii;
    class       volVectorField;
    location    "9.7";
    object      U;
}
// * * * * * * * * * * * * * * * * * * * * * * * * * * * * * * * * * * * * * //

dimensions      [0 1 -1 0 0 0 0];


internalField   nonuniform List<vector> 
9600
(
(0.923236 0.0188509 0)
(1.12787 -0.0130754 0)
(0.88544 -0.00180586 0)
(1.04871 0.00463014 0)
(0.961926 0.018585 0)
(1.08059 -0.0268928 0)
(0.724358 0.0196958 0)
(1.23376 0.00399803 0)
(0.701812 -0.00698694 0)
(1.19411 0.0157827 0)
(0.82323 0.00261535 0)
(1.07924 0.0169624 0)
(0.884867 0.0133579 0)
(1.06045 0.0169764 0)
(0.888616 0.0250357 0)
(1.04656 0.00835966 0)
(0.867775 0.0259808 0)
(1.04994 -0.000384584 0)
(0.833434 0.0146844 0)
(1.05537 -0.0112849 0)
(0.925868 0.0185339 0)
(1.11745 -0.0125625 0)
(0.888518 -0.00129607 0)
(1.04262 0.00420487 0)
(0.963825 0.0180863 0)
(1.0747 -0.0239292 0)
(0.729613 0.0184002 0)
(1.21932 0.00500669 0)
(0.714207 -0.00695623 0)
(1.18375 0.0146202 0)
(0.846615 0.00399569 0)
(1.06919 0.0167405 0)
(0.909478 0.0134359 0)
(1.04141 0.0171955 0)
(0.924002 0.0251859 0)
(1.00683 0.00898354 0)
(0.922123 0.0256549 0)
(0.983887 0.000458011 0)
(0.924525 0.0156079 0)
(0.95176 -0.0122788 0)
(0.930986 0.0181518 0)
(1.1039 -0.0121515 0)
(0.897987 -0.000891889 0)
(1.02953 0.00361334 0)
(0.966603 0.0177595 0)
(1.06763 -0.0216436 0)
(0.745446 0.0162243 0)
(1.19112 0.00551646 0)
(0.751394 -0.00706173 0)
(1.15054 0.0130837 0)
(0.890535 0.00561703 0)
(1.04152 0.0158355 0)
(0.94492 0.0137759 0)
(1.01435 0.0171455 0)
(0.960222 0.0256847 0)
(0.981527 0.00948014 0)
(0.952825 0.0254439 0)
(0.970692 0.00112684 0)
(0.953014 0.0144262 0)
(0.958401 -0.00792009 0)
(0.938352 0.0178491 0)
(1.08798 -0.0117754 0)
(0.913678 -0.000466589 0)
(1.01214 0.00313734 0)
(0.969937 0.0173543 0)
(1.05911 -0.0194264 0)
(0.7744 0.0144721 0)
(1.15014 0.00566346 0)
(0.811804 -0.00683736 0)
(1.09679 0.0114646 0)
(0.9378 0.00706119 0)
(1.00944 0.0149592 0)
(0.965894 0.0140941 0)
(0.993044 0.0168692 0)
(0.975191 0.0261826 0)
(0.972748 0.00979536 0)
(0.960547 0.025562 0)
(0.96863 0.0012117 0)
(0.960304 0.0146374 0)
(0.963122 -0.0065343 0)
(0.947408 0.0176255 0)
(1.07131 -0.0114826 0)
(0.932748 1.86954e-05 0)
(0.995118 0.00278066 0)
(0.973454 0.0168377 0)
(1.0499 -0.017501 0)
(0.813692 0.0133924 0)
(1.10322 0.00535326 0)
(0.877275 -0.00624778 0)
(1.04006 0.00990065 0)
(0.971451 0.00809302 0)
(0.988104 0.01466 0)
(0.970206 0.0142727 0)
(0.977847 0.016719 0)
(0.974065 0.0264276 0)
(0.968696 0.0103645 0)
(0.959676 0.0253095 0)
(0.968515 0.00169623 0)
(0.963325 0.0143082 0)
(0.967711 -0.00531432 0)
(0.95735 0.0174487 0)
(1.0557 -0.0112716 0)
(0.951483 0.000552147 0)
(0.982815 0.00253815 0)
(0.97671 0.016246 0)
(1.04091 -0.0159124 0)
(0.855864 0.0128105 0)
(1.06042 0.00464568 0)
(0.930188 -0.00547598 0)
(0.99873 0.00872691 0)
(0.98838 0.00865895 0)
(0.980361 0.0148725 0)
(0.969166 0.0145143 0)
(0.967737 0.0167353 0)
(0.967648 0.0265108 0)
(0.966823 0.0108775 0)
(0.959436 0.0248561 0)
(0.971474 0.00204822 0)
(0.968088 0.0135311 0)
(0.973569 -0.00397862 0)
(0.967292 0.0173004 0)
(1.04252 -0.0111205 0)
(0.967031 0.00108023 0)
(0.977248 0.00241276 0)
(0.979722 0.0156292 0)
(1.0328 -0.0147002 0)
(0.893301 0.0125944 0)
(1.02911 0.00375948 0)
(0.964363 -0.00472041 0)
(0.978658 0.00804498 0)
(0.994526 0.00882892 0)
(0.980743 0.0152992 0)
(0.970357 0.0149076 0)
(0.96389 0.0168579 0)
(0.963677 0.0264287 0)
(0.968174 0.0111729 0)
(0.963164 0.0242248 0)
(0.977408 0.00234351 0)
(0.975243 0.0126425 0)
(0.980226 -0.00260376 0)
(0.976468 0.0171664 0)
(1.03234 -0.0110002 0)
(0.978274 0.00155032 0)
(0.977564 0.00238788 0)
(0.983081 0.0150427 0)
(1.0257 -0.0138171 0)
(0.922048 0.0126457 0)
(1.01095 0.00289721 0)
(0.982873 -0.00409979 0)
(0.973969 0.00771117 0)
(0.996094 0.00877337 0)
(0.983575 0.0157234 0)
(0.974312 0.0153727 0)
(0.965882 0.0170464 0)
(0.965109 0.0262158 0)
(0.973018 0.0112912 0)
(0.97041 0.0234287 0)
(0.98491 0.00262439 0)
(0.983537 0.0117077 0)
(0.98702 -0.00121382 0)
(0.984353 0.0170316 0)
(1.025 -0.0108829 0)
(0.985591 0.0019334 0)
(0.981276 0.00242393 0)
(0.987386 0.0145334 0)
(1.01945 -0.0131637 0)
(0.942277 0.0128199 0)
(1.00323 0.00216281 0)
(0.991705 -0.00362389 0)
(0.975949 0.00757589 0)
(0.996158 0.0086542 0)
(0.986007 0.0160555 0)
(0.978966 0.0158215 0)
(0.971239 0.0172441 0)
(0.97095 0.0259256 0)
(0.980266 0.0113177 0)
(0.979442 0.0225245 0)
(0.992628 0.00295139 0)
(0.991612 0.0107753 0)
(0.993406 0.000177205 0)
(0.990691 0.0168832 0)
(1.01997 -0.010748 0)
(0.990053 0.00222187 0)
(0.985964 0.00247491 0)
(0.99264 0.0141264 0)
(1.01392 -0.012645 0)
(0.956325 0.0129888 0)
(1.0018 0.00156015 0)
(0.99572 -0.00324858 0)
(0.979139 0.0075571 0)
(0.995669 0.00854436 0)
(0.987412 0.0162853 0)
(0.982996 0.0161964 0)
(0.977557 0.0173739 0)
(0.978813 0.0255682 0)
(0.988306 0.011311 0)
(0.988646 0.0215596 0)
(0.999726 0.00337677 0)
(0.998654 0.00988032 0)
(0.99894 0.00156167 0)
(0.995453 0.0167146 0)
(1.01664 -0.0105842 0)
(0.992716 0.00242162 0)
(0.990171 0.00250848 0)
(0.99821 0.0138244 0)
(1.00928 -0.012195 0)
(0.966535 0.0130801 0)
(1.00321 0.00108437 0)
(0.997672 -0.0029224 0)
(0.981799 0.00761457 0)
(0.995074 0.00845783 0)
(0.98819 0.0164264 0)
(0.986288 0.0164552 0)
(0.983626 0.0173862 0)
(0.986871 0.0251383 0)
(0.995938 0.0112912 0)
(0.996968 0.0205784 0)
(1.00576 0.00392683 0)
(1.00433 0.00906855 0)
(1.00335 0.00292515 0)
(0.998777 0.016524 0)
(1.01451 -0.0103887 0)
(0.994333 0.00254729 0)
(0.993367 0.00250997 0)
(1.00325 0.0136115 0)
(1.00582 -0.0117745 0)
(0.974268 0.013073 0)
(1.00532 0.000725559 0)
(0.99878 -0.0026168 0)
(0.983922 0.00773237 0)
(0.994786 0.00839124 0)
(0.988949 0.0164828 0)
(0.989231 0.016588 0)
(0.989148 0.0172744 0)
(0.99424 0.0246261 0)
(1.00258 0.0112829 0)
(1.00387 0.0196241 0)
(1.01053 0.00459361 0)
(1.00859 0.00836845 0)
(1.00655 0.00419953 0)
(1.00089 0.0163125 0)
(1.01317 -0.0101638 0)
(0.995397 0.00261712 0)
(0.995527 0.00247769 0)
(1.00719 0.0134598 0)
(1.00366 -0.0113626 0)
(0.980065 0.0129751 0)
(1.00716 0.000468692 0)
(0.999501 -0.00232802 0)
(0.985692 0.00789998 0)
(0.995019 0.00833377 0)
(0.990073 0.0164584 0)
(0.9921 0.0166051 0)
(0.994087 0.0170548 0)
(1.00054 0.0240289 0)
(1.00797 0.0113233 0)
(1.00916 0.0187098 0)
(1.01396 0.005361 0)
(1.01156 0.00779686 0)
(1.00867 0.00534772 0)
(1.00205 0.0160826 0)
(1.01233 -0.00991395 0)
(0.996249 0.00264569 0)
(0.996781 0.00242114 0)
(1.00988 0.01334 0)
(1.00259 -0.0109479 0)
(0.984244 0.0128049 0)
(1.00841 0.000300993 0)
(0.999977 -0.00205323 0)
(0.987077 0.00810195 0)
(0.995695 0.00826911 0)
(0.991597 0.0163646 0)
(0.994853 0.0165242 0)
(0.998292 0.0167438 0)
(1.00553 0.0233837 0)
(1.01196 0.0114179 0)
(1.01281 0.017858 0)
(1.01612 0.00617227 0)
(1.01345 0.00738751 0)
(1.00992 0.00636327 0)
(1.0025 0.0158377 0)
(1.01178 -0.00964542 0)
(0.997125 0.00264455 0)
(0.997285 0.00235413 0)
(1.01156 0.0132258 0)
(1.00217 -0.0105255 0)
(0.98725 0.0125805 0)
(1.0091 0.000210989 0)
(1.00022 -0.00179787 0)
(0.988022 0.00832132 0)
(0.996611 0.00818146 0)
(0.993324 0.0162152 0)
(0.997258 0.0163673 0)
(1.00151 0.0163736 0)
(1.00902 0.0227245 0)
(1.01447 0.0115619 0)
(1.01495 0.0170926 0)
(1.01717 0.00700359 0)
(1.01451 0.00714632 0)
(1.01058 0.00723124 0)
(1.00244 0.0155813 0)
(1.01138 -0.00936521 0)
(0.998126 0.00262325 0)
(0.997213 0.00229004 0)
(1.0125 0.0130992 0)
(1.002 -0.0100946 0)
(0.989575 0.0123149 0)
(1.00937 0.000194607 0)
(1.00022 -0.00157167 0)
(0.988617 0.00854821 0)
(0.997617 0.00805913 0)
(0.995003 0.0160207 0)
(0.999121 0.0161728 0)
(1.00362 0.015981 0)
(1.01099 0.0220611 0)
(1.01561 0.0117536 0)
(1.01581 0.0164203 0)
(1.01732 0.0078214 0)
(1.01497 0.00703308 0)
(1.01084 0.0079359 0)
(1.00203 0.0153162 0)
(1.01111 -0.00907922 0)
(0.999204 0.00258909 0)
(0.996768 0.00224119 0)
(1.0129 0.0129485 0)
(1.0019 -0.00965447 0)
(0.991505 0.0120119 0)
(1.00935 0.000254037 0)
(0.999993 -0.00137231 0)
(0.989011 0.00877518 0)
(0.998628 0.00790301 0)
(0.996444 0.0157874 0)
(1.00038 0.0159843 0)
(1.0047 0.0155857 0)
(1.01166 0.0214192 0)
(1.01563 0.0119596 0)
(1.01574 0.0158294 0)
(1.01682 0.00858049 0)
(1.01498 0.00701251 0)
(1.01085 0.00848794 0)
(1.00143 0.0150441 0)
(1.01095 -0.00879162 0)
(1.00022 0.00254837 0)
(0.996152 0.00221545 0)
(1.01284 0.012767 0)
(1.00189 -0.0092052 0)
(0.993042 0.0116747 0)
(1.0091 0.000391466 0)
(0.999668 -0.00120212 0)
(0.989279 0.00899081 0)
(0.999537 0.00771596 0)
(0.997536 0.0155367 0)
(1.00108 0.0158134 0)
(1.00501 0.015205 0)
(1.0114 0.0208116 0)
(1.01489 0.0121515 0)
(1.01506 0.015287 0)
(1.0159 0.00927656 0)
(1.01467 0.00706109 0)
(1.0107 0.00888849 0)
(1.00077 0.0147653 0)
(1.01086 -0.00850324 0)
(1.00106 0.00250486 0)
(0.995533 0.00221805 0)
(1.0124 0.0125499 0)
(1.00204 -0.0087466 0)
(0.994088 0.0113115 0)
(1.00866 0.000602945 0)
(0.999411 -0.00106413 0)
(0.989425 0.00919241 0)
(1.00021 0.00750788 0)
(0.998248 0.0152747 0)
(1.0013 0.0156783 0)
(1.00484 0.0148426 0)
(1.01061 0.0202413 0)
(1.01376 0.0123296 0)
(1.01407 0.0147678 0)
(1.01479 0.00989401 0)
(1.01416 0.00715583 0)
(1.01047 0.00913968 0)
(1.00017 0.014479 0)
(1.01081 -0.00821162 0)
(1.00168 0.00245734 0)
(0.995026 0.00225554 0)
(1.01174 0.0122905 0)
(1.00231 -0.00827472 0)
(0.994652 0.0109294 0)
(1.00808 0.000872228 0)
(0.999329 -0.000951918 0)
(0.989474 0.00938209 0)
(1.00059 0.0073027 0)
(0.998636 0.0149868 0)
(1.00119 0.0155944 0)
(1.00445 0.0144895 0)
(1.00962 0.0197197 0)
(1.01255 0.0124952 0)
(1.01302 0.0142707 0)
(1.01367 0.0104396 0)
(1.01359 0.00729031 0)
(1.01025 0.00925733 0)
(0.99971 0.0141834 0)
(1.01073 -0.00791326 0)
(1.00213 0.0024033 0)
(0.994687 0.00232821 0)
(1.01103 0.0119899 0)
(1.00262 -0.0077864 0)
(0.994881 0.0105317 0)
(1.00744 0.00118507 0)
(0.999425 -0.000870094 0)
(0.989504 0.00956971 0)
(1.00071 0.00710762 0)
(0.99883 0.0146667 0)
(1.0009 0.0155584 0)
(1.00406 0.014136 0)
(1.00868 0.0192207 0)
(1.01149 0.0126567 0)
(1.01209 0.013784 0)
(1.01269 0.0109355 0)
(1.01303 0.00747324 0)
(1.01011 0.00924588 0)
(0.999389 0.0138774 0)
(1.01062 -0.00760468 0)
(1.00247 0.0023397 0)
(0.994529 0.00243395 0)
(1.01039 0.0116499 0)
(1.00288 -0.0072745 0)
(0.994949 0.0101196 0)
(1.00684 0.00152657 0)
(0.999628 -0.000819515 0)
(0.989601 0.00976182 0)
(1.0007 0.00693198 0)
(0.998972 0.0143072 0)
(1.00057 0.0155616 0)
(1.00379 0.0137764 0)
(1.00792 0.0187263 0)
(1.01066 0.0128376 0)
(1.01138 0.0132757 0)
(1.01193 0.011355 0)
(1.01253 0.00772186 0)
(1.01011 0.00911981 0)
(0.999183 0.0135596 0)
(1.01046 -0.00728147 0)
(1.00273 0.0022619 0)
(0.994531 0.00257259 0)
(1.00984 0.0112725 0)
(1.00307 -0.00673671 0)
(0.994966 0.00969395 0)
(1.00635 0.00188936 0)
(0.999856 -0.000792961 0)
(0.989804 0.00995061 0)
(1.00065 0.00680079 0)
(0.999163 0.0138937 0)
(1.00026 0.0155942 0)
(1.00369 0.0134281 0)
(1.00738 0.0182315 0)
(1.01006 0.0130287 0)
(1.01087 0.0127607 0)
(1.01138 0.0116685 0)
(1.0121 0.00805241 0)
(1.01021 0.00891253 0)
(0.999056 0.0132285 0)
(1.01029 -0.00694146 0)
(1.00292 0.00216692 0)
(0.994662 0.00273949 0)
(1.00936 0.0108662 0)
(1.00324 -0.00617537 0)
(0.994973 0.00925254 0)
(1.00596 0.00227113 0)
(1.00006 -0.000790093 0)
(0.990107 0.0101256 0)
(1.00059 0.00673145 0)
(0.999442 0.0134174 0)
(0.999987 0.015651 0)
(1.00373 0.0131063 0)
(1.00702 0.017697 0)
(1.00963 0.0132451 0)
(1.01053 0.012267 0)
(1.01103 0.0118654 0)
(1.01172 0.00847132 0)
(1.01039 0.00868235 0)
(0.998979 0.0128843 0)
(1.0101 -0.00658382 0)
(1.00306 0.0020526 0)
(0.994886 0.00293341 0)
(1.00891 0.0104328 0)
(1.0034 -0.00558601 0)
(0.994977 0.00879355 0)
(1.00568 0.00266578 0)
(1.00023 -0.000796915 0)
(0.990473 0.0102738 0)
(1.00054 0.00672477 0)
(0.999802 0.0128933 0)
(0.999746 0.0157154 0)
(1.00385 0.0128053 0)
(1.00682 0.0171107 0)
(1.00931 0.0134981 0)
(1.0103 0.0118123 0)
(1.01081 0.0119318 0)
(1.01137 0.00896 0)
(1.0106 0.00849159 0)
(0.998938 0.012525 0)
(1.00991 -0.00620448 0)
(1.00314 0.00191613 0)
(0.99517 0.00315343 0)
(1.00845 0.00997664 0)
(1.00359 -0.0049767 0)
(0.994988 0.00832911 0)
(1.00546 0.00306222 0)
(1.00038 -0.000798002 0)
(0.990866 0.0103799 0)
(1.00049 0.00677571 0)
(1.00021 0.0123289 0)
(0.999525 0.0157686 0)
(1.00398 0.0125482 0)
(1.00672 0.0164751 0)
(1.00904 0.0137471 0)
(1.01012 0.011457 0)
(1.01071 0.0118473 0)
(1.01105 0.00947076 0)
(1.01076 0.00841218 0)
(0.998925 0.0121506 0)
(1.00972 -0.00580382 0)
(1.00317 0.00175738 0)
(0.995485 0.0033979 0)
(1.00799 0.00950077 0)
(1.00379 -0.00435514 0)
(0.995024 0.00786657 0)
(1.00528 0.00345774 0)
(1.00054 -0.000782138 0)
(0.991257 0.0104337 0)
(1.00042 0.00689393 0)
(1.00065 0.0117329 0)
(0.999325 0.0157917 0)
(1.00407 0.0123579 0)
(1.0067 0.0157878 0)
(1.00878 0.0139786 0)
(1.00995 0.0112202 0)
(1.01066 0.0116192 0)
(1.01076 0.00994251 0)
(1.01086 0.00849381 0)
(0.998938 0.0117604 0)
(1.00952 -0.00537994 0)
(1.00316 0.00157742 0)
(0.995804 0.00366145 0)
(1.00755 0.00900904 0)
(1.00398 -0.00372281 0)
(0.995109 0.00740665 0)
(1.00511 0.00384082 0)
(1.00071 -0.000744631 0)
(0.991634 0.010428 0)
(1.00035 0.0070849 0)
(1.0011 0.0111196 0)
(0.999155 0.0157558 0)
(1.0041 0.0122461 0)
(1.00673 0.0150494 0)
(1.00854 0.0141767 0)
(1.00976 0.0110874 0)
(1.01066 0.0112949 0)
(1.01053 0.0103198 0)
(1.01086 0.00874871 0)
(0.998972 0.0113542 0)
(1.00931 -0.00493204 0)
(1.00315 0.00137596 0)
(0.996103 0.00394263 0)
(1.00713 0.0085073 0)
(1.00415 -0.00309342 0)
(0.995255 0.00697154 0)
(1.00493 0.00418695 0)
(1.00092 -0.00067198 0)
(0.991998 0.0103556 0)
(1.00027 0.00732829 0)
(1.00154 0.0105062 0)
(0.999029 0.0156537 0)
(1.00405 0.0122088 0)
(1.00681 0.0142783 0)
(1.0083 0.0142996 0)
(1.00952 0.0110873 0)
(1.01068 0.0109163 0)
(1.01037 0.0105385 0)
(1.01076 0.00912632 0)
(0.999021 0.0109316 0)
(1.00908 -0.00445972 0)
(1.00314 0.00115441 0)
(0.996369 0.0042385 0)
(1.00676 0.00800154 0)
(1.00427 -0.00247728 0)
(0.995463 0.00656813 0)
(1.00474 0.00450362 0)
(1.00115 -0.000557556 0)
(0.992358 0.0102291 0)
(1.00018 0.00760241 0)
(1.00198 0.00992157 0)
(0.998963 0.0154852 0)
(1.00393 0.0122414 0)
(1.00691 0.0135117 0)
(1.00811 0.0143194 0)
(1.00925 0.0112097 0)
(1.01069 0.0105422 0)
(1.01028 0.0105832 0)
(1.0106 0.00954445 0)
(0.999079 0.0104921 0)
(1.00884 -0.00396241 0)
(1.00316 0.000914817 0)
(0.996596 0.00453966 0)
(1.00643 0.00750234 0)
(1.00434 -0.0018824 0)
(0.995718 0.00619873 0)
(1.00452 0.0047758 0)
(1.00141 -0.000392264 0)
(0.992727 0.0100623 0)
(1.00009 0.00789918 0)
(1.00242 0.00938516 0)
(0.99897 0.0152315 0)
(1.00376 0.0123379 0)
(1.00703 0.0127832 0)
(1.00796 0.0142134 0)
(1.00892 0.0114113 0)
(1.01066 0.0102194 0)
(1.01027 0.0104634 0)
(1.01041 0.00993674 0)
(0.99914 0.0100381 0)
(1.00858 -0.00344582 0)
(1.00321 0.000660507 0)
(0.99679 0.0048432 0)
(1.00615 0.00701798 0)
(1.00437 -0.00132333 0)
(0.996 0.00589176 0)
(1.0043 0.00498355 0)
(1.00169 -0.000181937 0)
(0.993114 0.00984875 0)
(1 0.00820513 0)
(1.00286 0.00889455 0)
(0.99906 0.0149027 0)
(1.00353 0.0124802 0)
(1.00715 0.0121057 0)
(1.00789 0.0139748 0)
(1.00858 0.0116677 0)
(1.01059 0.0099928 0)
(1.01032 0.0101898 0)
(1.01025 0.0101967 0)
(0.9992 0.00956912 0)
(1.00829 -0.00291099 0)
(1.00329 0.000398918 0)
(0.99696 0.0051364 0)
(1.00589 0.0065597 0)
(1.00437 -0.000808648 0)
(0.996289 0.00565757 0)
(1.00406 0.00513925 0)
(1.00196 6.11367e-05 0)
(0.993527 0.00960711 0)
(0.999912 0.00849916 0)
(1.00329 0.00846287 0)
(0.999239 0.0145088 0)
(1.00328 0.012653 0)
(1.00725 0.0115053 0)
(1.00789 0.0136161 0)
(1.00822 0.0119368 0)
(1.01044 0.0099038 0)
(1.01042 0.00984909 0)
(1.01017 0.0102732 0)
(0.999259 0.00908735 0)
(1.00798 -0.00236058 0)
(1.0034 0.00013031 0)
(0.997117 0.00541964 0)
(1.00564 0.00612918 0)
(1.00435 -0.000356589 0)
(0.996571 0.00548687 0)
(1.00382 0.00525087 0)
(1.00223 0.000335937 0)
(0.993968 0.00935063 0)
(0.99982 0.00877662 0)
(1.0037 0.00809223 0)
(0.999506 0.0140442 0)
(1.00301 0.0128421 0)
(1.00732 0.0110181 0)
(1.00798 0.0131385 0)
(1.00789 0.0121671 0)
(1.01022 0.00993889 0)
(1.01053 0.00951134 0)
(1.01018 0.0101707 0)
(0.999317 0.00859322 0)
(1.00765 -0.00179638 0)
(1.00354 -0.000136425 0)
(0.997271 0.00567974 0)
(1.0054 0.0057546 0)
(1.00434 1.60984e-05 0)
(0.996841 0.00538783 0)
(1.00358 0.00533071 0)
(1.00249 0.00061608 0)
(0.994438 0.00908405 0)
(0.999725 0.00903101 0)
(1.00409 0.00777559 0)
(0.999857 0.0135203 0)
(1.00274 0.0130166 0)
(1.00734 0.0106406 0)
(1.00814 0.0125755 0)
(1.00762 0.0123291 0)
(1.00992 0.0100723 0)
(1.0106 0.00922888 0)
(1.01029 0.00991851 0)
(0.999374 0.00808938 0)
(1.00729 -0.00122541 0)
(1.00369 -0.000397182 0)
(0.997427 0.00591042 0)
(1.00514 0.00544003 0)
(1.00433 0.000316589 0)
(0.997102 0.00534671 0)
(1.00334 0.005397 0)
(1.00274 0.000888721 0)
(0.994935 0.00881658 0)
(0.999629 0.00926029 0)
(1.00444 0.00752444 0)
(1.00028 0.0129425 0)
(1.00248 0.0131684 0)
(1.0073 0.0103833 0)
(1.00835 0.011946 0)
(1.00741 0.0123963 0)
(1.00957 0.0102814 0)
(1.01061 0.0090439 0)
(1.01047 0.00959314 0)
(0.999431 0.00757883 0)
(1.00692 -0.000655627 0)
(1.00385 -0.000645797 0)
(0.99759 0.00610076 0)
(1.00487 0.00519626 0)
(1.00433 0.00054057 0)
(0.997358 0.00534349 0)
(1.0031 0.00546191 0)
(1.00299 0.00113687 0)
(0.995459 0.00855325 0)
(0.999532 0.00947209 0)
(1.00474 0.00733817 0)
(1.00078 0.012321 0)
(1.00225 0.0132797 0)
(1.00717 0.0102556 0)
(1.00861 0.0112792 0)
(1.0073 0.0123374 0)
(1.00917 0.0105335 0)
(1.01054 0.00894415 0)
(1.01066 0.00926954 0)
(0.99949 0.00706304 0)
(1.00653 -9.18108e-05 0)
(1.004 -0.000874993 0)
(0.997762 0.0062323 0)
(1.00458 0.00503913 0)
(1.00434 0.000692047 0)
(0.997616 0.00536197 0)
(1.00286 0.00553709 0)
(1.00322 0.00136011 0)
(0.996014 0.0082785 0)
(0.999437 0.00966014 0)
(1.00499 0.00722335 0)
(1.00133 0.0116615 0)
(1.00207 0.0133191 0)
(1.00697 0.0102476 0)
(1.00888 0.0106349 0)
(1.0073 0.0121433 0)
(1.00876 0.0108133 0)
(1.01039 0.00893057 0)
(1.01085 0.00898378 0)
(0.999548 0.00654587 0)
(1.00612 0.000461489 0)
(1.00415 -0.00107999 0)
(0.997946 0.00629808 0)
(1.00428 0.00496465 0)
(1.00436 0.000786272 0)
(0.997881 0.00538301 0)
(1.00261 0.00564796 0)
(1.00343 0.0015596 0)
(0.996598 0.00798437 0)
(0.999354 0.00982196 0)
(1.00518 0.00718395 0)
(1.00193 0.0109641 0)
(1.00196 0.0132764 0)
(1.00668 0.0103617 0)
(1.00913 0.0100524 0)
(1.00742 0.0117892 0)
(1.00838 0.0110846 0)
(1.01014 0.00902294 0)
(1.01099 0.00872705 0)
(0.999607 0.00602933 0)
(1.00571 0.00100108 0)
(1.00428 -0.00124754 0)
(0.998145 0.0062851 0)
(1.00396 0.00498313 0)
(1.00439 0.000842019 0)
(0.998162 0.00538484 0)
(1.00236 0.00579771 0)
(1.00363 0.00174807 0)
(0.997216 0.00767053 0)
(0.999291 0.00995391 0)
(1.00529 0.00721366 0)
(1.00255 0.0102663 0)
(1.00194 0.013123 0)
(1.00632 0.0105665 0)
(1.00933 0.00958078 0)
(1.00765 0.0112718 0)
(1.00805 0.0112686 0)
(1.00979 0.00923626 0)
(1.01106 0.00852418 0)
(0.999666 0.00551816 0)
(1.00528 0.00151487 0)
(1.00439 -0.00136756 0)
(0.998361 0.00619048 0)
(1.00363 0.005073 0)
(1.00441 0.000873323 0)
(0.998462 0.00534829 0)
(1.00212 0.0059888 0)
(1.0038 0.00195269 0)
(0.997864 0.00732662 0)
(0.99926 0.0100451 0)
(1.00532 0.00731175 0)
(1.00319 0.00959557 0)
(1.00202 0.0128501 0)
(1.00592 0.0108073 0)
(1.00942 0.0092726 0)
(1.00798 0.0106548 0)
(1.00784 0.0112938 0)
(1.00938 0.00952661 0)
(1.01103 0.00842432 0)
(0.999725 0.00501512 0)
(1.00485 0.00199714 0)
(1.00447 -0.00143537 0)
(0.998596 0.00600987 0)
(1.00329 0.0052215 0)
(1.00442 0.00090682 0)
(0.998788 0.00524959 0)
(1.00187 0.00621924 0)
(1.00393 0.00217655 0)
(0.998539 0.0069571 0)
(0.999274 0.0100858 0)
(1.00528 0.00748011 0)
(1.00381 0.00896584 0)
(1.00222 0.0124624 0)
(1.00551 0.0110393 0)
(1.0094 0.00913158 0)
(1.00835 0.0100177 0)
(1.00777 0.0111301 0)
(1.00894 0.00980621 0)
(1.01086 0.00846505 0)
(0.999784 0.00452476 0)
(1.00441 0.00244157 0)
(1.00452 -0.00144451 0)
(0.998853 0.00575295 0)
(1.00294 0.00540537 0)
(1.0044 0.000968667 0)
(0.999141 0.00507846 0)
(1.00165 0.00646076 0)
(1.00401 0.00244656 0)
(0.999231 0.00655675 0)
(0.999348 0.0100559 0)
(1.00517 0.0077043 0)
(1.00439 0.00840949 0)
(1.00254 0.0119776 0)
(1.00513 0.0112221 0)
(1.00925 0.00912775 0)
(1.00871 0.00942886 0)
(1.00785 0.0107942 0)
(1.00854 0.00999632 0)
(1.01058 0.00863313 0)
(0.999843 0.00405088 0)
(1.00397 0.00284122 0)
(1.00453 -0.00138499 0)
(0.99913 0.00542386 0)
(1.0026 0.00560512 0)
(1.00436 0.00107265 0)
(0.999521 0.00483929 0)
(1.00144 0.00668613 0)
(1.00403 0.00277862 0)
(0.999928 0.00613943 0)
(0.999493 0.00994197 0)
(1.005 0.00798418 0)
(1.00491 0.00795277 0)
(1.00296 0.0113946 0)
(1.00481 0.0113126 0)
(1.00898 0.00923965 0)
(1.00902 0.00895397 0)
(1.00805 0.0103382 0)
(1.00824 0.01005 0)
(1.0102 0.00883798 0)
(0.9999 0.00359864 0)
(1.00354 0.00318649 0)
(1.00451 -0.00125231 0)
(0.999426 0.00502813 0)
(1.00226 0.00579575 0)
(1.00428 0.00124896 0)
(0.999924 0.00452846 0)
(1.00128 0.00687125 0)
(1.00399 0.00318353 0)
(1.00061 0.00576429 0)
(0.999722 0.00972695 0)
(1.00479 0.0082788 0)
(1.00534 0.00763092 0)
(1.00346 0.0107386 0)
(1.00459 0.0112764 0)
(1.00862 0.00941269 0)
(1.00923 0.00861368 0)
(1.00833 0.00981038 0)
(1.00807 0.00995852 0)
(1.0098 0.0090002 0)
(0.999956 0.00317299 0)
(1.00311 0.00347189 0)
(1.00443 -0.00104553 0)
(0.999735 0.00458268 0)
(1.00194 0.00595182 0)
(1.00415 0.00150552 0)
(1.00034 0.00418859 0)
(1.00116 0.00697863 0)
(1.0039 0.00365292 0)
(1.00125 0.00546457 0)
(1.00003 0.00940879 0)
(1.00457 0.00854253 0)
(1.00566 0.00746268 0)
(1.00401 0.010064 0)
(1.00449 0.0110883 0)
(1.00821 0.00957932 0)
(1.00931 0.00841601 0)
(1.00866 0.00927947 0)
(1.00802 0.00974024 0)
(1.00943 0.00909085 0)
(1.00001 0.00277863 0)
(1.00269 0.00368451 0)
(1.00431 -0.000763877 0)
(1.00005 0.00411051 0)
(1.00166 0.00604886 0)
(1.00397 0.00186516 0)
(1.00076 0.00386271 0)
(1.00112 0.00698699 0)
(1.00376 0.00414913 0)
(1.00183 0.00525742 0)
(1.00041 0.00902078 0)
(1.00436 0.00874331 0)
(1.00586 0.00740996 0)
(1.00456 0.00941593 0)
(1.00451 0.0107494 0)
(1.0078 0.00969209 0)
(1.00926 0.00834986 0)
(1.00897 0.00881149 0)
(1.0081 0.0094128 0)
(1.00912 0.00909544 0)
(1.00006 0.00241957 0)
(1.0023 0.0038212 0)
(1.00414 -0.000423251 0)
(1.00037 0.00364203 0)
(1.00142 0.0060625 0)
(1.00375 0.00231166 0)
(1.00115 0.00359132 0)
(1.00115 0.00689369 0)
(1.00359 0.00461723 0)
(1.00233 0.00516109 0)
(1.00085 0.00858536 0)
(1.00418 0.00884053 0)
(1.00596 0.00743707 0)
(1.00507 0.00885273 0)
(1.00464 0.0103016 0)
(1.00743 0.00971354 0)
(1.00911 0.00836344 0)
(1.00921 0.00844677 0)
(1.00826 0.009014 0)
(1.0089 0.00901081 0)
(1.00011 0.00209676 0)
(1.00193 0.00388588 0)
(1.00393 -4.94439e-05 0)
(1.00068 0.00320665 0)
(1.00123 0.00597141 0)
(1.00349 0.00280029 0)
(1.00151 0.00340864 0)
(1.00123 0.00670171 0)
(1.00342 0.00502421 0)
(1.00275 0.0051643 0)
(1.00132 0.00813504 0)
(1.00405 0.00882723 0)
(1.00596 0.00750926 0)
(1.00552 0.00839135 0)
(1.00487 0.00978774 0)
(1.00713 0.00962781 0)
(1.00888 0.00840118 0)
(1.00935 0.00820039 0)
(1.00848 0.00860576 0)
(1.00879 0.00883075 0)
(1.00016 0.00181488 0)
(1.00158 0.00387082 0)
(1.00368 0.000357031 0)
(1.00097 0.00283865 0)
(1.00111 0.00577203 0)
(1.00321 0.00329279 0)
(1.00182 0.00334524 0)
(1.00138 0.00645804 0)
(1.00327 0.00534747 0)
(1.00308 0.0052378 0)
(1.00179 0.00770601 0)
(1.00399 0.0087142 0)
(1.00591 0.00758521 0)
(1.00588 0.00804046 0)
(1.00515 0.00925719 0)
(1.00693 0.00944205 0)
(1.00861 0.00841279 0)
(1.00939 0.00804605 0)
(1.00869 0.00824394 0)
(1.00877 0.00856359 0)
(1.0002 0.00157072 0)
(1.00128 0.00378912 0)
(1.0034 0.000774831 0)
(1.00123 0.00255225 0)
(1.00105 0.00548772 0)
(1.00294 0.00373974 0)
(1.00206 0.00339987 0)
(1.00156 0.00621088 0)
(1.00314 0.00558006 0)
(1.00334 0.00535441 0)
(1.00226 0.00731832 0)
(1.004 0.00852826 0)
(1.00582 0.00763928 0)
(1.00614 0.00779318 0)
(1.00546 0.00875021 0)
(1.00682 0.0091668 0)
(1.00836 0.00837446 0)
(1.00935 0.00794127 0)
(1.00886 0.00796059 0)
(1.00883 0.00825706 0)
(1.00023 0.00136512 0)
(1.00101 0.00365115 0)
(1.00311 0.00116718 0)
(1.00144 0.00235959 0)
(1.00105 0.00514901 0)
(1.00269 0.00410775 0)
(1.00224 0.00352108 0)
(1.00176 0.00597557 0)
(1.00305 0.00574168 0)
(1.00353 0.00549724 0)
(1.0027 0.00698658 0)
(1.00406 0.00828347 0)
(1.00572 0.00765114 0)
(1.00632 0.00762086 0)
(1.00576 0.00830396 0)
(1.00679 0.00883005 0)
(1.00813 0.008277 0)
(1.00925 0.00784845 0)
(1.00897 0.00774299 0)
(1.00892 0.00796497 0)
(1.00027 0.00119469 0)
(1.00078 0.00347059 0)
(1.00281 0.00151286 0)
(1.00161 0.00226819 0)
(1.0011 0.0047979 0)
(1.00247 0.00439248 0)
(1.00238 0.00369275 0)
(1.00197 0.00578099 0)
(1.003 0.00583052 0)
(1.00367 0.00562027 0)
(1.0031 0.00669021 0)
(1.00418 0.00797945 0)
(1.00563 0.0075965 0)
(1.00642 0.00748829 0)
(1.00602 0.00792459 0)
(1.00683 0.00846632 0)
(1.00796 0.00811016 0)
(1.00913 0.00773691 0)
(1.00903 0.00755154 0)
(1.00901 0.00770072 0)
(1.00029 0.0010587 0)
(1.00059 0.00326829 0)
(1.00252 0.00180636 0)
(1.00173 0.00222168 0)
(1.00119 0.00442941 0)
(1.00229 0.00454972 0)
(1.00247 0.00389005 0)
(1.00217 0.00567244 0)
(1.00298 0.00591176 0)
(1.00375 0.00578499 0)
(1.00345 0.00648871 0)
(1.00434 0.00768908 0)
(1.00558 0.00750647 0)
(1.00647 0.00739394 0)
(1.00624 0.00761908 0)
(1.0069 0.00811857 0)
(1.00783 0.00790187 0)
(1.00899 0.00760488 0)
(1.00905 0.00737475 0)
(1.00908 0.0074622 0)
(1.00032 0.000940191 0)
(1.00044 0.00306729 0)
(1.00224 0.00206184 0)
(1.00181 0.00225813 0)
(1.0013 0.00410202 0)
(1.00218 0.00459702 0)
(1.00255 0.00401987 0)
(1.00237 0.00552456 0)
(1.003 0.00588654 0)
(1.00381 0.00586543 0)
(1.00374 0.00628599 0)
(1.00451 0.00735721 0)
(1.00556 0.00734264 0)
(1.00649 0.00728644 0)
(1.00641 0.00736542 0)
(1.00699 0.00779171 0)
(1.00775 0.00767008 0)
(1.00887 0.00745167 0)
(1.00903 0.00720151 0)
(1.00914 0.00723389 0)
(1.00033 0.00084065 0)
(1.00032 0.00285308 0)
(1.00198 0.00225308 0)
(1.00185 0.00232881 0)
(1.00141 0.00383625 0)
(1.00209 0.00463299 0)
(1.0026 0.00418957 0)
(1.00256 0.00547597 0)
(1.00304 0.00590698 0)
(1.00385 0.00597553 0)
(1.00398 0.00616282 0)
(1.00471 0.0070564 0)
(1.00559 0.00713829 0)
(1.0065 0.0071562 0)
(1.00655 0.00714796 0)
(1.00708 0.00748625 0)
(1.00771 0.00741199 0)
(1.00875 0.00726939 0)
(1.00899 0.0070237 0)
(1.00917 0.00701129 0)
(1.00035 0.000777563 0)
(1.00024 0.00261672 0)
(1.00174 0.00229838 0)
(1.00184 0.00239042 0)
(1.00154 0.00364795 0)
(1.00206 0.00463515 0)
(1.00266 0.00428589 0)
(1.00274 0.00538201 0)
(1.00311 0.00584025 0)
(1.00385 0.00602941 0)
(1.00414 0.00605541 0)
(1.00487 0.00677804 0)
(1.00564 0.00690025 0)
(1.0065 0.00699969 0)
(1.00664 0.00695187 0)
(1.00715 0.00722648 0)
(1.00769 0.0071611 0)
(1.00866 0.00707553 0)
(1.00894 0.00685732 0)
(1.00916 0.00681744 0)
(1.00036 0.000714437 0)
(1.00016 0.00243446 0)
(1.00155 0.00230756 0)
(1.00185 0.00247953 0)
(1.00167 0.00352137 0)
(1.00205 0.00462391 0)
(1.00269 0.00436243 0)
(1.0029 0.00528832 0)
(1.00321 0.00574659 0)
(1.00389 0.0060651 0)
(1.00429 0.00599417 0)
(1.00504 0.00654845 0)
(1.00574 0.00665676 0)
(1.00655 0.00681794 0)
(1.00674 0.00675651 0)
(1.00723 0.00699431 0)
(1.0077 0.00693472 0)
(1.0086 0.00686921 0)
(1.00889 0.00667884 0)
(1.00914 0.00663767 0)
(1.00036 0.000664441 0)
(1.00012 0.00227518 0)
(1.00137 0.00238054 0)
(1.00184 0.00260776 0)
(1.00181 0.00342884 0)
(1.00208 0.00459053 0)
(1.00273 0.00442117 0)
(1.00306 0.00517967 0)
(1.00333 0.00560139 0)
(1.00391 0.00603255 0)
(1.00436 0.00592312 0)
(1.00515 0.00632578 0)
(1.00582 0.00638183 0)
(1.00658 0.00657965 0)
(1.00682 0.00652224 0)
(1.0073 0.00673302 0)
(1.00769 0.00670081 0)
(1.00854 0.00664826 0)
(1.00885 0.00646369 0)
(1.0091 0.00644771 0)
(1.00036 0.000631689 0)
(1.00009 0.00214688 0)
(1.00124 0.0024209 0)
(1.00181 0.00268356 0)
(1.00191 0.00328582 0)
(1.0021 0.00445367 0)
(1.00274 0.00437998 0)
(1.00316 0.00501284 0)
(1.00346 0.0053874 0)
(1.00396 0.00593937 0)
(1.00443 0.00585804 0)
(1.00524 0.00616719 0)
(1.00591 0.00615594 0)
(1.00664 0.00635957 0)
(1.0069 0.00631312 0)
(1.00738 0.00648881 0)
(1.00771 0.00647432 0)
(1.00847 0.00646125 0)
(1.00882 0.00625378 0)
(1.00907 0.00625688 0)
(1.00037 0.000606785 0)
(1.00007 0.00204315 0)
(1.00111 0.00241019 0)
(1.00175 0.00273876 0)
(1.00201 0.00318349 0)
(1.00216 0.00435856 0)
(1.00277 0.00440574 0)
(1.00327 0.00495718 0)
(1.00362 0.00522596 0)
(1.00404 0.00583525 0)
(1.00448 0.00578868 0)
(1.00528 0.00603712 0)
(1.00596 0.0059446 0)
(1.00669 0.00611875 0)
(1.00696 0.00608106 0)
(1.00744 0.0062393 0)
(1.00775 0.00621273 0)
(1.00841 0.00626472 0)
(1.00877 0.00605454 0)
(1.00904 0.00604495 0)
(1.00036 0.000577773 0)
(1.00006 0.00195505 0)
(1.00102 0.00241216 0)
(1.0017 0.00281386 0)
(1.00208 0.00312141 0)
(1.00222 0.00424258 0)
(1.00277 0.00437215 0)
(1.00331 0.00486707 0)
(1.00374 0.00502297 0)
(1.00412 0.00563263 0)
(1.00452 0.00565308 0)
(1.00529 0.00589213 0)
(1.00599 0.00575103 0)
(1.00673 0.00587846 0)
(1.00703 0.00582477 0)
(1.0075 0.0059919 0)
(1.0078 0.00593631 0)
(1.00838 0.00601908 0)
(1.00871 0.00585362 0)
(1.00902 0.00579717 0)
(1.00036 0.000567647 0)
(1.00006 0.00185071 0)
(1.00093 0.00234848 0)
(1.00162 0.00283289 0)
(1.00212 0.00305367 0)
(1.00228 0.00411738 0)
(1.00279 0.0043224 0)
(1.00335 0.00480676 0)
(1.00384 0.00487568 0)
(1.00422 0.00542815 0)
(1.00457 0.00549128 0)
(1.00529 0.00574526 0)
(1.00597 0.00558074 0)
(1.00672 0.00566682 0)
(1.00707 0.00556993 0)
(1.00753 0.00574241 0)
(1.00782 0.00568814 0)
(1.00836 0.00575877 0)
(1.00862 0.00566528 0)
(1.00896 0.00557972 0)
(1.00035 0.000557654 0)
(1.00006 0.00175584 0)
(1.00088 0.00227508 0)
(1.00156 0.00285397 0)
(1.00217 0.00301271 0)
(1.00235 0.00400208 0)
(1.00281 0.00424724 0)
(1.00335 0.0047376 0)
(1.0039 0.00474132 0)
(1.0043 0.00522254 0)
(1.00465 0.00529373 0)