/*--------------------------------*- C++ -*----------------------------------*\
| =========                 |                                                 |
| \\      /  F ield         | OpenFOAM: The Open Source CFD Toolbox           |
|  \\    /   O peration     | Version:  v1812                                 |
|   \\  /    A nd           | Web:      www.OpenFOAM.com                      |
|    \\/     M anipulation  |                                                 |
\*---------------------------------------------------------------------------*/
FoamFile
{
    version     2.0;
    format      ascii;
    class       surfaceScalarField;
    location    "6.4";
    object      phi;
}
// * * * * * * * * * * * * * * * * * * * * * * * * * * * * * * * * * * * * * //

dimensions      [0 3 -1 0 0 0 0];
oriented        oriented;


internalField   nonuniform List<scalar> 
19000
(
1.14118e-06
-3.94647e-07
1.20505e-06
-1.27107e-07
1.19488e-06
-2.97852e-07
1.18032e-06
1.65877e-06
1.12541e-06
2.98532e-07
1.12417e-06
-1.04294e-06
1.15782e-06
-2.01589e-06
1.19774e-06
-1.46057e-06
1.23886e-06
-4.51895e-07
1.23201e-06
-2.0814e-07
1.22769e-06
6.90508e-07
1.23613e-06
8.0505e-07
1.22565e-06
4.42148e-07
1.22716e-06
1.4975e-07
1.23082e-06
8.48315e-08
1.19614e-06
-6.49953e-07
1.20334e-06
-1.04646e-07
1.12914e-06
-9.57813e-07
1.14964e-06
-1.51301e-07
-8.21578e-07
1.02762e-06
1.19795e-06
-3.68337e-07
1.26402e-06
-1.93171e-07
1.25421e-06
-2.88044e-07
1.24959e-06
1.6634e-06
1.18436e-06
3.63757e-07
1.16679e-06
-1.02537e-06
1.19485e-06
-2.04394e-06
1.2406e-06
-1.50632e-06
1.28881e-06
-5.00112e-07
1.28996e-06
-2.09281e-07
1.27963e-06
7.00836e-07
1.29827e-06
7.86408e-07
1.28655e-06
4.53872e-07
1.2928e-06
1.43494e-07
1.29134e-06
8.62901e-08
1.27157e-06
-6.30178e-07
1.26087e-06
-9.39466e-08
1.21258e-06
-9.09523e-07
1.20393e-06
-1.42653e-07
-7.46852e-07
1.1292e-06
1.25637e-06
-3.41918e-07
1.32248e-06
-2.59288e-07
1.31814e-06
-2.83706e-07
1.31666e-06
1.66488e-06
1.25018e-06
4.30238e-07
1.22141e-06
-9.96603e-07
1.23778e-06
-2.06032e-06
1.28373e-06
-1.55227e-06
1.33694e-06
-5.53322e-07
1.34732e-06
-2.19662e-07
1.34032e-06
7.07837e-07
1.3572e-06
7.69525e-07
1.3592e-06
4.51872e-07
1.36008e-06
1.42613e-07
1.36336e-06
8.30076e-08
1.33959e-06
-6.064e-07
1.33091e-06
-8.52755e-08
1.28666e-06
-8.65273e-07
1.28067e-06
-1.36663e-07
-6.86661e-07
1.22048e-06
1.31719e-06
-3.15007e-07
1.37903e-06
-3.21125e-07
1.38318e-06
-2.87857e-07
1.37916e-06
1.6689e-06
1.31872e-06
4.90671e-07
1.28327e-06
-9.61148e-07
1.28644e-06
-2.06349e-06
1.32832e-06
-1.59415e-06
1.38364e-06
-6.0864e-07
1.40268e-06
-2.38698e-07
1.40547e-06
7.05042e-07
1.42332e-06
7.5168e-07
1.43266e-06
4.42524e-07
1.43609e-06
1.39187e-07
1.43371e-06
8.53895e-08
1.40807e-06
-5.80761e-07
1.39558e-06
-7.27908e-08
1.34754e-06
-8.17233e-07
1.34213e-06
-1.31254e-07
-6.22972e-07
1.27845e-06
1.38256e-06
-2.89217e-07
1.43467e-06
-3.73232e-07
1.44646e-06
-2.99644e-07
1.43953e-06
1.67583e-06
1.39021e-06
5.39994e-07
1.35307e-06
-9.24011e-07
1.34423e-06
-2.05464e-06
1.37743e-06
-1.62736e-06
1.43088e-06
-6.62088e-07
1.45724e-06
-2.6506e-07
1.47204e-06
6.90242e-07
1.49523e-06
7.28485e-07
1.50937e-06
4.28393e-07
1.51351e-06
1.35044e-07
1.50835e-06
9.05453e-08
1.47806e-06
-5.50468e-07
1.46596e-06
-6.06918e-08
1.41496e-06
-7.66231e-07
1.41085e-06
-1.2715e-07
-5.58642e-07
1.34653e-06
1.45356e-06
-2.67103e-07
1.49207e-06
-4.1174e-07
1.50741e-06
-3.14982e-07
1.50145e-06
1.68179e-06
1.46541e-06
5.76031e-07
1.4294e-06
-8.87999e-07
1.41053e-06
-2.03578e-06
1.43355e-06
-1.65038e-06
1.48197e-06
-7.10503e-07
1.51374e-06
-2.96828e-07
1.54065e-06
6.63322e-07
1.5712e-06
6.97939e-07
1.58918e-06
4.10412e-07
1.59273e-06
1.31499e-07
1.58408e-06
9.91963e-08
1.54931e-06
-5.157e-07
1.53635e-06
-4.7738e-08
1.48279e-06
-7.1267e-07
1.48028e-06
-1.24636e-07
-4.9432e-07
1.41596e-06
1.52941e-06
-2.50295e-07
1.55334e-06
-4.35676e-07
1.56792e-06
-3.29553e-07
1.56805e-06
1.68165e-06
1.54545e-06
5.98628e-07
1.51114e-06
-8.53687e-07
1.48381e-06
-2.00844e-06
1.49792e-06
-1.66449e-06
1.54024e-06
-7.52824e-07
1.57572e-06
-3.3231e-07
1.61409e-06
6.24955e-07
1.65157e-06
6.60463e-07
1.67178e-06
3.90203e-07
1.67326e-06
1.30016e-07
1.66058e-06
1.11875e-07
1.62126e-06
-4.76375e-07
1.60817e-06
-3.46529e-08
1.55287e-06
-6.57373e-07
1.55218e-06
-1.23937e-07
-4.31367e-07
1.48922e-06
1.60847e-06
-2.38634e-07
1.6193e-06
-4.46504e-07
1.63111e-06
-3.41369e-07
1.64136e-06
1.6714e-06
1.6309e-06
6.09092e-07
1.59756e-06
-8.20343e-07
1.56259e-06
-1.97348e-06
1.57027e-06
-1.67216e-06
1.6074e-06
-7.8996e-07
1.64604e-06
-3.70944e-07
1.69481e-06
5.76177e-07
1.73686e-06
6.18414e-07
1.75647e-06
3.70599e-07
1.75416e-06
1.32325e-07
1.73724e-06
1.28787e-07
1.69373e-06
-4.32862e-07
1.68112e-06
-2.2036e-08
1.62505e-06
-6.01309e-07
1.62621e-06
-1.25093e-07
-3.711e-07
1.56594e-06
1.68963e-06
-2.30691e-07
1.68993e-06
-4.46802e-07
1.69974e-06
-3.51178e-07
1.72198e-06
1.64916e-06
1.7212e-06
6.09874e-07
1.68807e-06
-7.87209e-07
1.64604e-06
-1.93145e-06
1.64924e-06
-1.67536e-06
1.68276e-06
-8.23483e-07
1.7249e-06
-4.13083e-07
1.7827e-06
5.18381e-07
1.82589e-06
5.75224e-07
1.84163e-06
3.54858e-07
1.83402e-06
1.39932e-07
1.81342e-06
1.49391e-07
1.76664e-06
-3.86082e-07
1.75527e-06
-1.0669e-08
1.69953e-06
-5.4557e-07
1.70238e-06
-1.27941e-07
-3.14737e-07
1.64602e-06
1.7729e-06
-2.24864e-07
1.76527e-06
-4.39174e-07
1.77505e-06
-3.60961e-07
1.80895e-06
1.61526e-06
1.8148e-06
6.0402e-07
1.78193e-06
-7.54333e-07
1.73379e-06
-1.88331e-06
1.73314e-06
-1.67471e-06
1.7638e-06
-8.54146e-07
1.8095e-06
-4.58777e-07
1.87425e-06
4.53623e-07
1.91532e-06
5.34161e-07
1.92484e-06
3.45336e-07
1.91145e-06
1.53316e-07
1.88868e-06
1.72167e-07
1.84023e-06
-3.37637e-07
1.83096e-06
-1.40193e-09
1.77665e-06
-4.91258e-07
1.78082e-06
-1.32113e-07
-2.63305e-07
1.72939e-06
1.859e-06
-2.20116e-07
1.84575e-06
-4.25924e-07
1.85678e-06
-3.71992e-07
1.90011e-06
1.57193e-06
1.90977e-06
5.94358e-07
1.87819e-06
-7.22757e-07
1.8257e-06
-1.83082e-06
1.82064e-06
-1.66966e-06
1.84762e-06
-8.81125e-07
1.89536e-06
-5.06517e-07
1.96402e-06
3.84962e-07
2.00087e-06
4.97316e-07
2.00381e-06
3.42399e-07
1.98568e-06
1.71441e-07
1.96318e-06
1.94671e-07
1.91521e-06
-2.89665e-07
1.90883e-06
4.97582e-09
1.85697e-06
-4.39395e-07
1.8619e-06
-1.37043e-07
-2.17583e-07
1.81617e-06
1.94876e-06
-2.16035e-07
1.93203e-06
-4.09194e-07
1.94392e-06
-3.83883e-07
1.99318e-06
1.52267e-06
2.00474e-06
5.82807e-07
1.9761e-06
-6.94118e-07
1.92164e-06
-1.77636e-06
1.91124e-06
-1.65926e-06
1.93248e-06
-9.02374e-07
1.97885e-06
-5.52879e-07
2.04737e-06
3.16439e-07
2.07944e-06
4.65243e-07
2.07767e-06
3.4417e-07
2.05725e-06
1.91863e-07
2.03792e-06
2.13996e-07
1.99271e-06
-2.44455e-07
1.98974e-06
7.94799e-09
1.94119e-06
-3.90845e-07
1.94614e-06
-1.41989e-07
-1.78099e-07
1.90665e-06
2.04268e-06
-2.12526e-07
2.02448e-06
-3.90994e-07
2.03559e-06
-3.94991e-07
2.08707e-06
1.47119e-06
2.09967e-06
5.70205e-07
2.07545e-06
-6.69899e-07
2.02137e-06
-1.72227e-06
2.00518e-06
-1.64306e-06
2.01861e-06
-9.15806e-07
2.05913e-06
-5.93403e-07
2.12309e-06
2.52478e-07
2.15102e-06
4.37318e-07
2.14791e-06
3.47275e-07
2.12831e-06
2.11467e-07
2.11473e-06
2.27576e-07
2.0742e-06
-2.03922e-07
2.07468e-06
7.4632e-09
2.03007e-06
-3.46232e-07
2.03423e-06
-1.46151e-07
-1.45033e-07
2.00116e-06
2.14101e-06
-2.09535e-07
2.12294e-06
-3.72927e-07
2.13148e-06
-4.03522e-07
2.18232e-06
1.42034e-06
2.19586e-06
5.56661e-07
2.17676e-06
-6.508e-07
2.12465e-06
-1.67016e-06
2.10311e-06
-1.62152e-06
2.10781e-06
-9.20504e-07
2.13869e-06
-6.24287e-07
2.19442e-06
1.96745e-07
2.21927e-06
4.12472e-07
2.21831e-06
3.4823e-07
2.20223e-06
2.27546e-07
2.19583e-06
2.33983e-07
2.16108e-06
-1.69176e-07
2.16452e-06
4.02287e-09
2.1242e-06
-3.05911e-07
2.12689e-06
-1.48844e-07
-1.18165e-07
2.10003e-06
2.24391e-06
-2.06959e-07
2.22691e-06
-3.55926e-07
2.23178e-06
-4.08389e-07
2.28062e-06
1.3715e-06
2.29521e-06
5.4207e-07
2.28102e-06
-6.36609e-07
2.23137e-06
-1.62051e-06
2.20562e-06
-1.59577e-06
2.20227e-06
-9.1716e-07
2.22181e-06
-6.43826e-07
2.2675e-06
1.51062e-07
2.29014e-06
3.89829e-07
2.29363e-06
3.44743e-07
2.28254e-06
2.38635e-07
2.28324e-06
2.33277e-07
2.25445e-06
-1.40388e-07
2.2599e-06
-1.42472e-09
2.22396e-06
-2.69971e-07
2.22476e-06
-1.49641e-07
-9.69132e-08
2.20351e-06
2.35159e-06
-2.04674e-07
2.33592e-06
-3.4026e-07
2.33693e-06
-4.0939e-07
2.38371e-06
1.32471e-06
2.39932e-06
5.26462e-07
2.38924e-06
-6.26531e-07
2.34172e-06
-1.57298e-06
2.31302e-06
-1.56707e-06
2.30343e-06
-9.07569e-07
2.31227e-06
-6.52667e-07
2.34827e-06
1.15062e-07
2.36917e-06
3.68931e-07
2.37772e-06
3.36192e-07
2.37171e-06
2.44638e-07
2.37825e-06
2.26741e-07
2.35487e-06
-1.17009e-07
2.3612e-06
-7.75444e-09
2.3295e-06
-2.38272e-07
2.32829e-06
-1.48432e-07
-8.0433e-08
2.31181e-06
2.46428e-06
-2.02562e-07
2.44983e-06
-3.25811e-07
2.44735e-06
-4.06904e-07
2.49275e-06
1.27931e-06
2.50914e-06
5.10071e-07
2.50223e-06
-6.1962e-07
2.4561e-06
-1.52685e-06
2.42545e-06
-1.53642e-06
2.41163e-06
-8.9375e-07
2.41188e-06
-6.52914e-07
2.44012e-06
8.68178e-08
2.45947e-06
3.49585e-07
2.47242e-06
3.2324e-07
2.47073e-06
2.46333e-07
2.48125e-06
2.16215e-07
2.46242e-06
-9.81797e-08
2.46863e-06
-1.39591e-08
2.44083e-06
-2.10472e-07
2.43782e-06
-1.45418e-07
-6.77664e-08
2.42515e-06
2.58224e-06
-2.00509e-07
2.5688e-06
-3.12366e-07
2.56339e-06
-4.01503e-07
2.60822e-06
1.23448e-06
2.62505e-06
4.93244e-07
2.62047e-06
-6.15044e-07
2.57506e-06
-1.48144e-06
2.54303e-06
-1.5044e-06
2.52662e-06
-8.7734e-07
2.52064e-06
-6.46935e-07
2.54358e-06
6.3886e-08
2.56153e-06
3.31631e-07
2.5777e-06
3.07072e-07
2.57933e-06
2.44701e-07
2.59206e-06
2.03482e-07
2.57696e-06
-8.30817e-08
2.58234e-06
-1.93322e-08
2.55794e-06
-1.86077e-07
2.55351e-06
-1.40988e-07
-5.79971e-08
2.54374e-06
2.70571e-06
-1.98388e-07
2.69312e-06
-2.99778e-07
2.68535e-06
-3.93729e-07
2.73026e-06
1.18957e-06
2.74717e-06
4.7633e-07
2.74427e-06
-6.12142e-07
2.69913e-06
-1.4363e-06
2.66596e-06
-1.47123e-06
2.64808e-06
-8.59453e-07
2.63776e-06
-6.3662e-07
2.65751e-06
4.41375e-08
2.67431e-06
3.14833e-07
2.69256e-06
2.88824e-07
2.69676e-06
2.40499e-07
2.71029e-06
1.89956e-07
2.69828e-06
-7.10769e-08
2.70248e-06
-2.35304e-08
2.6809e-06
-1.64499e-07
2.6755e-06
-1.35584e-07
-5.03835e-08
2.66788e-06
2.83495e-06
-1.96068e-07
2.82316e-06
-2.87988e-07
2.81345e-06
-3.84025e-07
2.85892e-06
1.14411e-06
2.87564e-06
4.59616e-07
2.87388e-06
-6.10383e-07
2.82878e-06
-1.3912e-06
2.79452e-06
-1.43698e-06
2.77588e-06
-8.40813e-07
2.7625e-06
-6.23238e-07
2.78056e-06
2.60748e-08
2.79654e-06
2.98858e-07
2.81597e-06
2.69391e-07
2.8223e-06
2.34168e-07
2.83562e-06
1.76637e-07
2.82621e-06
-6.1669e-08
2.82921e-06
-2.65215e-08
2.80986e-06
-1.45153e-07
2.80386e-06
-1.2958e-07
-4.44221e-08
2.7979e-06
2.97025e-06
-1.93422e-07
2.95924e-06
-2.76982e-07
2.94796e-06
-3.72742e-07
2.99429e-06
1.09777e-06
3.01061e-06
4.43303e-07
3.00953e-06
-6.09302e-07
2.96439e-06
-1.34606e-06
2.92904e-06
-1.40163e-06
2.91015e-06
-8.21928e-07
2.89453e-06
-6.07618e-07
2.9118e-06
8.80508e-09
2.92733e-06
2.83327e-07
2.94726e-06
2.49462e-07
2.95549e-06
2.25943e-07
2.96798e-06
1.64149e-07
2.9607e-06
-5.43939e-08
2.96267e-06
-2.84878e-08
2.94505e-06
-1.27536e-07
2.93871e-06
-1.23244e-07
-3.98138e-08
2.93411e-06
3.11193e-06
-1.90346e-07
3.10171e-06
-2.66758e-07
3.08912e-06
-3.60152e-07
3.13651e-06
1.05038e-06
3.1523e-06
4.27512e-07
3.15147e-06
-6.08475e-07
3.10633e-06
-1.30092e-06
3.06986e-06
-1.36516e-06
3.05111e-06
-8.03179e-07
3.03384e-06
-5.90348e-07
3.05076e-06
-8.11482e-09
3.06622e-06
2.67865e-07
3.08609e-06
2.29592e-07
3.09604e-06
2.15994e-07
3.1074e-06
1.52797e-07
3.10176e-06
-4.87572e-08
3.103e-06
-2.97249e-08
3.08675e-06
-1.11291e-07
3.08019e-06
-1.16685e-07
-3.6433e-08
3.07681e-06
3.26034e-06
-1.86773e-07
3.25089e-06
-2.57307e-07
3.23719e-06
-3.46453e-07
3.28572e-06
1.00185e-06
3.30096e-06
4.12277e-07
3.29999e-06
-6.07508e-07
3.25494e-06
-1.25587e-06
3.21736e-06
-1.32757e-06
3.19903e-06
-7.84858e-07
3.18058e-06
-5.71896e-07
3.19729e-06
-2.48209e-08
3.21301e-06
2.52139e-07
3.23236e-06
2.10243e-07
3.24387e-06
2.04489e-07
3.254e-06
1.42661e-07
3.24952e-06
-4.42776e-08
3.25035e-06
-3.05511e-08
3.23528e-06
-9.62202e-08
3.22846e-06
-1.09867e-07
-3.42653e-08
3.22629e-06
3.41583e-06
-1.82675e-07
3.40715e-06
-2.48623e-07
3.39247e-06
-3.31775e-07
3.44212e-06
9.52199e-07
3.45685e-06
3.97548e-07
3.45537e-06
-6.06031e-07
3.41059e-06
-1.2111e-06
3.3719e-06
-1.28888e-06
3.3542e-06
-7.67161e-07
3.33496e-06
-5.5266e-07
3.3514e-06
-4.12513e-08
3.36763e-06
2.35899e-07
3.38611e-06
1.91766e-07
3.39896e-06
1.9164e-07
3.40798e-06
1.33646e-07
3.40421e-06
-4.05157e-08
3.40492e-06
-3.12609e-08
3.39097e-06
-8.22629e-08
3.38377e-06
-1.0267e-07
-3.32877e-08
3.38279e-06
3.57879e-06
-1.78056e-07
3.57088e-06
-2.40713e-07
3.5553e-06
-3.16191e-07
3.60593e-06
9.01567e-07
3.62029e-06
3.83194e-07
3.61795e-06
-6.03698e-07
3.57364e-06
-1.16679e-06
3.53387e-06
-1.24911e-06
3.5169e-06
-7.50186e-07
3.49723e-06
-5.32996e-07
3.5132e-06
-5.72204e-08
3.53013e-06
2.18973e-07
3.54751e-06
1.74389e-07
3.56144e-06
1.77708e-07
3.56956e-06
1.25527e-07
3.56614e-06
-3.71031e-08
3.56696e-06
-3.20731e-08
3.55415e-06
-6.94621e-08
3.54646e-06
-9.49751e-08
-3.34059e-08
3.54658e-06
3.74959e-06
-1.72941e-07
3.74248e-06
-2.33603e-07
3.72604e-06
-2.99753e-07
3.77744e-06
8.50168e-07
3.79162e-06
3.69013e-07
3.78811e-06
-6.00186e-07
3.74448e-06
-1.12315e-06
3.70368e-06
-1.20831e-06
3.68741e-06
-7.33921e-07
3.66765e-06
-5.13232e-07
3.68291e-06
-7.24821e-08
3.70061e-06
2.01271e-07
3.7168e-06
1.58206e-07
3.7315e-06
1.63001e-07
3.73903e-06
1.18005e-07
3.73568e-06
-3.37562e-08
3.73672e-06
-3.31094e-08
3.72519e-06
-5.79317e-08
3.71695e-06
-8.67402e-08
-3.43766e-08
3.71792e-06
3.9286e-06
-1.67356e-07
3.92233e-06
-2.27331e-07
3.90511e-06
-2.82533e-07
3.95699e-06
7.98284e-07
3.97124e-06
3.54764e-07
3.96627e-06
-5.95218e-07
3.9235e-06
-1.08038e-06
3.88174e-06
-1.16654e-06
3.86606e-06
-7.18247e-07
3.8465e-06
-4.93669e-07
3.86081e-06
-8.6794e-08
3.87928e-06
1.82801e-07
3.89431e-06
1.43176e-07
3.90946e-06
1.47854e-07
3.9167e-06
1.10761e-07
3.91324e-06
-3.02937e-08
3.91449e-06
-3.43605e-08
3.90443e-06
-4.78716e-08
3.89562e-06
-7.79352e-08
-3.58852e-08
3.89713e-06
4.11622e-06
-1.61321e-07
4.11081e-06
-2.21925e-07
4.09293e-06
-2.64657e-07
4.14497e-06
7.46244e-07
4.15955e-06
3.40185e-07
4.1529e-06
-5.88563e-07
4.11112e-06
-1.0386e-06
4.06848e-06
-1.1239e-06
4.05319e-06
-7.0296e-07
4.0341e-06
-4.74576e-07
4.04724e-06
-9.9933e-08
4.06639e-06
1.6365e-07
4.08041e-06
1.29156e-07
4.09566e-06
1.326e-07
4.10288e-06
1.03545e-07
4.09927e-06
-2.66807e-08
4.10061e-06
-3.57035e-08
4.0922e-06
-3.94604e-08
4.08294e-06
-6.86752e-08
-3.74501e-08
4.0845e-06
4.31283e-06
-1.54845e-07
4.30828e-06
-2.17379e-07
4.28995e-06
-2.46329e-07
4.3418e-06
6.944e-07
4.35695e-06
3.2503e-07
4.34844e-06
-5.80047e-07
4.30777e-06
-9.97933e-07
4.26437e-06
-1.08051e-06
4.24922e-06
-6.87807e-07
4.23083e-06
-4.56183e-07
4.2426e-06
-1.11706e-07
4.26231e-06
1.43939e-07
4.27548e-06
1.15987e-07
4.29055e-06
1.17535e-07
4.29789e-06
9.62041e-08
4.29418e-06
-2.29723e-08
4.29544e-06
-3.69682e-08
4.28879e-06
-3.28101e-08
4.27934e-06
-5.92228e-08
-3.85393e-08
4.28043e-06
4.51887e-06
-1.47937e-07
4.51512e-06
-2.13632e-07
4.49661e-06
-2.27819e-07
4.5479e-06
6.43112e-07
4.56383e-06
3.09094e-07
4.55337e-06
-5.69582e-07
4.51385e-06
-9.58414e-07
4.46987e-06
-1.03653e-06
4.45459e-06
-6.72521e-07
4.43707e-06
-4.3867e-07
4.44736e-06
-1.21994e-07
4.46743e-06
1.23872e-07
4.47994e-06
1.03475e-07
4.49455e-06
1.02923e-07
4.5021e-06
8.86602e-08
4.49838e-06
-1.9258e-08
4.49936e-06
-3.79442e-08
4.49456e-06
-2.80082e-08
4.48522e-06
-4.98894e-08
-3.87586e-08
4.48544e-06
4.73479e-06
-1.40611e-07
4.73172e-06
-2.10562e-07
4.71335e-06
-2.09445e-07
4.76371e-06
5.92744e-07
4.78058e-06
2.92229e-07
4.76818e-06
-5.5718e-07
4.72978e-06
-9.20022e-07
4.68545e-06
-9.92194e-07
4.6698e-06
-6.56877e-07
4.65328e-06
-4.22143e-07
4.66205e-06
-1.30762e-07
4.68222e-06
1.03701e-07
4.69424e-06
9.14498e-08
4.7082e-06
8.8966e-08
4.71598e-06
8.08764e-08
4.71231e-06
-1.55903e-08
4.71288e-06
-3.85159e-08
4.70984e-06
-2.49596e-08
4.70107e-06
-4.11273e-08
-3.78377e-08
4.70015e-06
4.96109e-06
-1.329e-07
4.95852e-06
-2.08001e-07
4.9406e-06
-1.91523e-07
4.9897e-06
5.43643e-07
5.00758e-06
2.7435e-07
4.99336e-06
-5.42958e-07
4.95601e-06
-8.8267e-07
4.91158e-06
-9.47763e-07
4.8954e-06
-6.40704e-07
4.87991e-06
-4.06649e-07
4.88721e-06
-1.38064e-07
4.90719e-06
8.37225e-08
4.91886e-06
7.97846e-08
4.93207e-06
7.57489e-08
4.94004e-06
7.29095e-08
4.9366e-06
-1.21536e-08
4.93664e-06
-3.85542e-08
4.93507e-06
-2.33865e-08
4.92734e-06
-3.33966e-08
-3.56837e-08
4.92518e-06
5.19827e-06
-1.24849e-07
5.19602e-06
-2.05756e-07
5.17882e-06
-1.74324e-07
5.22636e-06
4.96107e-07
5.24528e-06
2.55432e-07
5.22942e-06
-5.271e-07
5.19299e-06
-8.46243e-07
5.14875e-06
-9.03524e-07
5.13193e-06
-6.23884e-07
5.11747e-06
-3.92183e-07
5.12342e-06
-1.4402e-07
5.14294e-06
6.42092e-08
5.15432e-06
6.84038e-08
5.16674e-06
6.33232e-08
5.17486e-06
6.47908e-08
5.1718e-06
-9.09163e-09
5.17127e-06
-3.80292e-08
5.17073e-06
-2.28448e-08
5.16443e-06
-2.70893e-08
-3.25081e-08
5.16125e-06
5.44686e-06
-1.16523e-07
5.44475e-06
-2.03639e-07
5.42845e-06
-1.5803e-07
5.47421e-06
4.50351e-07
5.49413e-06
2.35513e-07
5.47687e-06
-5.09841e-07
5.44123e-06
-8.1061e-07
5.39749e-06
-8.59782e-07
5.37995e-06
-6.06347e-07
5.36645e-06
-3.78683e-07
5.37125e-06
-1.48812e-07
5.39003e-06
4.5424e-08
5.4012e-06
5.72302e-08
5.41279e-06
5.17345e-08
5.42101e-06
5.65728e-08
5.41846e-06
-6.54491e-09
5.41738e-06
-3.69484e-08
5.41743e-06
-2.28938e-08
5.41272e-06
-2.23741e-08
-2.87409e-08
5.40895e-06
5.70743e-06
-1.07995e-07
5.70527e-06
-2.01479e-07
5.68997e-06
-1.42733e-07
5.73382e-06
4.06506e-07
5.75464e-06
2.14691e-07
5.73622e-06
-4.91424e-07
5.70127e-06
-7.7566e-07
5.65831e-06
-8.16814e-07
5.64004e-06
-5.88083e-07
5.62742e-06
-3.66057e-07
5.6312e-06
-1.52597e-07
5.6491e-06
2.75248e-08
5.66011e-06
4.6225e-08
5.6708e-06
4.10362e-08
5.67906e-06
4.83141e-08
5.67711e-06
-4.59601e-09
5.67557e-06
-3.54009e-08
5.67587e-06
-2.31956e-08
5.67263e-06
-1.91375e-08
-2.49234e-08
5.66881e-06
5.98055e-06
-9.93486e-08
5.97821e-06
-1.99144e-07
5.96393e-06
-1.28454e-07
6.00582e-06
3.64618e-07
6.02738e-06
1.93127e-07
6.00804e-06
-4.72076e-07
5.97368e-06
-7.41303e-07
5.93174e-06
-7.74875e-07
5.91281e-06
-5.6915e-07
5.90092e-06
-3.54166e-07
5.90383e-06
-1.55508e-07
5.92074e-06
1.06116e-08
5.93162e-06
3.53468e-08
5.94144e-06
3.12148e-08
5.9496e-06
4.01573e-08
5.94827e-06
-3.26685e-09
5.94643e-06
-3.35628e-08
5.94677e-06
-2.35375e-08
5.94466e-06
-1.7032e-08
-2.15527e-08
5.94129e-06
6.26681e-06
-9.06733e-08
6.2642e-06
-1.96534e-07
6.25095e-06
-1.15201e-07
6.29085e-06
3.24718e-07
6.31298e-06
1.70993e-07
6.29288e-06
-4.51972e-07
6.25904e-06
-7.07464e-07
6.21836e-06
-7.34189e-07
6.19882e-06
-5.49619e-07
6.18758e-06
-3.42918e-07
6.18965e-06
-1.57585e-07
6.20557e-06
-5.30544e-09
6.21633e-06
2.45842e-08
6.22537e-06
2.21805e-08
6.23322e-06
3.23058e-08
6.23249e-06
-2.5388e-09
6.23055e-06
-3.16255e-08
6.23087e-06
-2.38527e-08
6.22952e-06
-1.56857e-08
-1.88307e-08
6.2268e-06
6.56687e-06
-8.20691e-08
6.5639e-06
-1.93564e-07
6.55177e-06
-1.03075e-07
6.58952e-06
2.8697e-07
6.61208e-06
1.48427e-07
6.59142e-06
-4.3131e-07
6.55799e-06
-6.74031e-07
6.51874e-06
-6.94939e-07
6.49874e-06
-5.29623e-07
6.48803e-06
-3.32204e-07
6.48932e-06
-1.58871e-07
6.50415e-06
-2.01342e-08
6.51489e-06
1.38398e-08
6.52319e-06
1.38788e-08
6.53061e-06
2.48878e-08
6.53044e-06
-2.36952e-09
6.52849e-06
-2.96798e-08
6.52885e-06
-2.42122e-08
6.52798e-06
-1.48114e-08
-1.67125e-08
6.52586e-06
6.88137e-06
-7.36488e-08
6.87795e-06
-1.90142e-07
6.86719e-06
-9.23149e-08
6.90244e-06
2.5172e-07
6.9253e-06
1.25565e-07
6.90439e-06
-4.10397e-07
6.8712e-06
-6.40841e-07
6.83349e-06
-6.57236e-07
6.81322e-06
-5.09352e-07
6.80297e-06
-3.21952e-07
6.80345e-06
-1.59355e-07
6.81706e-06
-3.37438e-08
6.82789e-06
3.01114e-09
6.83556e-06
6.21019e-09
6.84243e-06
1.80169e-08
6.84275e-06
-2.68754e-09
6.8409e-06
-2.78292e-08
6.84133e-06
-2.46457e-08
6.84082e-06
-1.43017e-08
-1.50281e-08
6.83914e-06
7.21103e-06
-6.55406e-08
7.20703e-06
-1.86144e-07
7.19793e-06
-8.32148e-08
7.23024e-06
2.19409e-07
7.25328e-06
1.02529e-07
7.2325e-06
-3.89625e-07
7.1994e-06
-6.07741e-07
7.16323e-06
-6.21065e-07
7.14295e-06
-4.89066e-07
7.13308e-06
-3.12082e-07
7.13275e-06
-1.59026e-07
7.14498e-06
-4.59769e-08
7.15591e-06
-7.91374e-09
7.16312e-06
-1.00239e-09
7.16935e-06
1.17896e-08
7.1701e-06
-3.44244e-09
7.16842e-06
-2.61447e-08
7.16892e-06
-2.5149e-08
7.16873e-06
-1.41159e-08
-1.37072e-08
7.16741e-06
7.55657e-06
-5.78812e-08
7.55179e-06
-1.81365e-07
7.54468e-06
-7.61063e-08
7.57365e-06
1.90433e-07
7.59663e-06
7.95577e-08
7.57651e-06
-3.69505e-07
7.54342e-06
-5.74655e-07
7.50865e-06
-5.86297e-07
7.48856e-06
-4.68977e-07
7.47905e-06
-3.02566e-07
7.47798e-06
-1.5796e-07
7.48863e-06
-5.66258e-08
7.49947e-06
-1.87552e-08
7.50649e-06
-8.01893e-09
7.51207e-06
6.20833e-09
7.51317e-06
-4.54111e-09
7.51176e-06
-2.47372e-08
7.51225e-06
-2.56425e-08
7.51252e-06
-1.43802e-08
-1.25559e-08
7.51137e-06
7.91874e-06
-5.08131e-08
7.91284e-06
-1.7546e-07
7.90807e-06
-7.13417e-08
7.93353e-06
1.64978e-07
7.95601e-06
5.70757e-08
7.93709e-06
-3.50587e-07
7.90408e-06
-5.41639e-07
7.87049e-06
-5.5271e-07
7.85071e-06
-4.49194e-07
7.8416e-06
-2.93455e-07
7.8399e-06
-1.56267e-07
7.84873e-06
-6.54536e-08
7.85923e-06
-2.92528e-08
7.86622e-06
-1.50111e-08
7.87132e-06
1.10485e-09
7.87271e-06
-5.92913e-09
7.87156e-06
-2.35834e-08
7.87208e-06
-2.61642e-08
7.87277e-06
-1.50702e-08
-1.16036e-08
7.87182e-06
8.29834e-06
-4.44723e-08
8.29093e-06
-1.68048e-07
8.2887e-06
-6.91115e-08
8.3109e-06
1.42779e-07
8.33215e-06
3.58241e-08
8.31493e-06
-3.33366e-07
8.28223e-06
-5.08943e-07
8.24954e-06
-5.20016e-07
8.23005e-06
-4.29705e-07
8.22141e-06
-2.84817e-07
8.21919e-06
-1.54041e-07
8.22607e-06
-7.23336e-08
8.23582e-06
-3.90098e-08
8.24287e-06
-2.20616e-08
8.24779e-06
-3.80746e-09
8.24941e-06
-7.54996e-09
8.2486e-06
-2.27723e-08
8.24911e-06
-2.66775e-08
8.2502e-06
-1.61566e-08
-1.10183e-08
8.24961e-06
8.69616e-06
-3.89692e-08
8.68707e-06
-1.58962e-07
8.68719e-06
-6.92342e-08
8.70689e-06
1.23086e-07
8.72582e-06
1.68939e-08
8.71059e-06
-3.18134e-07
8.67873e-06
-4.77089e-07
8.64665e-06
-4.87932e-07
8.6273e-06
-4.10362e-07
8.61904e-06
-2.76549e-07
8.61645e-06
-1.51454e-07
8.6214e-06
-7.72826e-08
8.62991e-06
-4.7522e-08
8.6371e-06
-2.92559e-08
8.64211e-06
-8.80841e-09
8.64405e-06
-9.4968e-09
8.6436e-06
-2.2321e-08
8.6441e-06
-2.71754e-08
8.64561e-06
-1.76647e-08
-1.08736e-08
8.64546e-06
9.11302e-06
-3.43662e-08
9.10235e-06
-1.48294e-07
9.10429e-06
-7.11773e-08
9.12254e-06
1.04839e-07
9.13804e-06
1.39051e-09
9.12467e-06
-3.04761e-07
9.09435e-06
-4.46771e-07
9.06265e-06
-4.5623e-07
9.04307e-06
-3.9078e-07
9.03495e-06
-2.68428e-07
9.03223e-06
-1.48739e-07
9.03548e-06
-8.05293e-08
9.04251e-06
-5.45582e-08
9.04979e-06
-3.65267e-08
9.05512e-06
-1.4144e-08
9.05749e-06
-1.18684e-08
9.05744e-06
-2.22709e-08
9.05791e-06
-2.76448e-08
9.05971e-06
-1.94599e-08
-1.14438e-08
9.06028e-06
9.54977e-06
-3.06756e-08
9.53784e-06
-1.36364e-07
9.54087e-06
-7.42048e-08
9.55882e-06
8.68892e-08
9.57022e-06
-1.00078e-08
9.55782e-06
-2.92369e-07
9.52968e-06
-4.18626e-07
9.49839e-06
-4.2494e-07
9.47794e-06
-3.70331e-07
9.46987e-06
-2.60364e-07
9.46742e-06
-1.46286e-07
9.46955e-06
-8.26618e-08
9.47512e-06
-6.01231e-08
9.48205e-06
-4.34622e-08
9.48785e-06
-1.99419e-08
9.49069e-06
-1.47076e-08
9.49107e-06
-2.26465e-08
9.49152e-06
-2.81017e-08
9.4934e-06
-2.13326e-08
-1.28475e-08
9.4948e-06
1.00073e-05
-2.78497e-08
9.9946e-06
-1.23651e-07
9.9979e-06
-7.75072e-08
1.00164e-05
6.84336e-08
1.00236e-05
-1.72952e-08
1.00109e-05
-2.79639e-07
9.98514e-06
-3.92851e-07
9.95478e-06
-3.94588e-07
9.9333e-06
-3.48845e-07
9.92499e-06
-2.52056e-07
9.92323e-06
-1.44525e-07
9.92492e-06
-8.43492e-08
9.92915e-06
-6.43549e-08
9.93537e-06
-4.96879e-08
9.94144e-06
-2.60111e-08
9.94472e-06
-1.79849e-08
9.94551e-06
-2.34375e-08
9.94603e-06
-2.86185e-08
9.94768e-06
-2.29856e-08
-1.49787e-08
9.94981e-06
1.04866e-05
-2.57626e-08
1.04736e-05
-1.10729e-07
1.04765e-05
-8.03439e-08
1.04957e-05
4.92102e-08
1.04997e-05
-2.12739e-08
1.04853e-05
-2.65289e-07
1.04617e-05
-3.69252e-07
1.04331e-05
-3.65984e-07
1.0411e-05
-3.26692e-07
1.0402e-05
-2.43098e-07
1.04009e-05
-1.43445e-07
1.04025e-05
-8.59481e-08
1.04057e-05
-6.74894e-08
1.0411e-05
-5.50265e-08
1.04171e-05
-3.20689e-08
1.04207e-05
-2.16133e-08
1.04218e-05
-2.45375e-08
1.04225e-05
-2.93076e-08
1.04238e-05
-2.43553e-08
-1.73908e-08
1.04263e-05
1.09885e-05
-2.42136e-08
1.09759e-05
-9.81891e-08
1.09775e-05
-8.19007e-08
1.09975e-05
2.92025e-08
1.09998e-05
-2.35302e-08
1.09832e-05
-2.48733e-07
1.0961e-05
-3.4703e-07
1.09346e-05
-3.39624e-07
1.09123e-05
-3.04333e-07
1.09024e-05
-2.33217e-07
1.09017e-05
-1.42757e-07
1.09034e-05
-8.76475e-08
1.09057e-05
-6.98195e-08
1.09101e-05
-5.93727e-08
1.09158e-05
-3.78348e-08
1.09197e-05
-2.54925e-08
1.0921e-05
-2.58468e-08
1.09219e-05
-3.01712e-08
1.09232e-05
-2.56392e-08
-1.95261e-08
1.09253e-05
1.15141e-05
-2.29505e-08
1.15025e-05
-8.66108e-08
1.15022e-05
-8.16028e-08
1.15226e-05
8.79845e-09
1.15248e-05
-2.56591e-08
1.15059e-05
-2.29861e-07
1.14843e-05
-3.25426e-07
1.14603e-05
-3.15665e-07
1.14383e-05
-2.82342e-07
1.14275e-05
-2.22358e-07
1.14265e-05
-1.41834e-07
1.14284e-05
-8.95447e-08
1.14302e-05
-7.15896e-08
1.14337e-05
-6.28346e-08
1.14389e-05
-4.304e-08
1.14429e-05
-2.95374e-08
1.14444e-05
-2.7358e-08
1.14453e-05
-3.10524e-08
1.14468e-05
-2.70685e-08
-2.12161e-08
1.14484e-05
1.20646e-05
-2.17034e-08
1.20545e-05
-7.65248e-08
1.20521e-05
-7.91799e-08
1.20722e-05
-1.13514e-08
1.20755e-05
-2.89565e-08
1.20548e-05
-2.09146e-07
1.20328e-05
-3.03394e-07
1.20112e-05
-2.94113e-07
1.19904e-05
-2.61562e-07
1.19786e-05
-2.10501e-07
1.19768e-05
-1.40067e-07
1.19787e-05
-9.14624e-08
1.19802e-05
-7.30747e-08
1.19829e-05
-6.54928e-08
1.19875e-05
-4.76282e-08
1.19915e-05
-3.35884e-08
1.19933e-05
-2.91297e-08
1.1994e-05
-3.17929e-08
1.19956e-05
-2.86921e-08
-2.26604e-08
1.19971e-05
1.26411e-05
-2.02028e-08
1.2633e-05
-6.84215e-08
1.26284e-05
-7.4595e-08
1.26476e-05
-3.05672e-08
1.26528e-05
-3.4172e-08
1.26312e-05
-1.87469e-07
1.26077e-05
-2.79919e-07
1.25883e-05
-2.74756e-07
1.25694e-05
-2.42676e-07
1.25569e-05
-1.97921e-07
1.25539e-05
-1.37154e-07
1.25554e-05
-9.29055e-08
1.25568e-05
-7.45142e-08
1.25587e-05
-6.74111e-08
1.25628e-05
-5.16532e-08
1.25667e-05
-3.74761e-08
1.25687e-05
-3.12156e-08
1.25694e-05
-3.2401e-08
1.25709e-05
-3.0256e-08
-2.41888e-08
1.25724e-05
1.3245e-05
-1.82249e-08
1.32391e-05
-6.26079e-08
1.32328e-05
-6.82043e-08
1.32501e-05
-4.79628e-08
1.32575e-05
-4.14918e-08
1.32359e-05
-1.65859e-07
1.32107e-05
-2.54782e-07
1.31926e-05
-2.56627e-07
1.3176e-05
-2.26037e-07
1.31635e-05
-1.85477e-07
1.31593e-05
-1.32913e-07
1.31599e-05
-9.35288e-08
1.31611e-05
-7.57655e-08
1.31626e-05
-6.88433e-08
1.3166e-05
-5.50544e-08
1.31697e-05
-4.11569e-08
1.3172e-05
-3.35677e-08
1.31727e-05
-3.3053e-08
1.31739e-05
-3.14969e-08
-2.59289e-08
1.31756e-05
1.38776e-05
-1.56437e-08
1.38742e-05
-5.92654e-08
1.38667e-05
-6.06213e-08
1.3881e-05
-6.22989e-08
1.38901e-05
-5.06428e-08
1.38698e-05
-1.45551e-07
1.38434e-05
-2.2832e-07
1.38251e-05
-2.38395e-07
1.38108e-05
-2.11712e-07
1.37995e-05
-1.74121e-07
1.37941e-05
-1.27558e-07
1.37938e-05
-9.32054e-08
1.37945e-05
-7.65076e-08
1.37956e-05
-6.99052e-08
1.37984e-05
-5.78268e-08
1.38018e-05
-4.45936e-08
1.38043e-05
-3.60851e-08
1.38052e-05
-3.39344e-08
1.38061e-05
-3.23658e-08
-2.77222e-08
1.38079e-05
1.45404e-05
-1.24253e-08
1.45392e-05
-5.80504e-08
1.45314e-05
-5.2766e-08
1.45417e-05
-7.26155e-08
1.45518e-05
-6.07444e-08
1.45339e-05
-1.27681e-07
1.45068e-05
-2.01162e-07
1.44877e-05
-2.19328e-07
1.44752e-05
-1.99215e-07
1.44653e-05
-1.64248e-07
1.44599e-05
-1.2209e-07
1.44584e-05
-9.16984e-08
1.44585e-05
-7.66917e-08
1.44591e-05
-7.04747e-08
1.44613e-05
-6.00511e-08
1.44644e-05
-4.7698e-08
1.4467e-05
-3.86787e-08
1.44682e-05
-3.51448e-08
1.44689e-05
-3.30341e-08
-2.92945e-08
1.44705e-05
1.52351e-05
-8.641e-09
1.52356e-05
-5.85843e-08
1.52284e-05
-4.55046e-08
1.52334e-05
-7.76105e-08
1.52431e-05
-7.05103e-08
1.52286e-05
-1.13166e-07
1.5202e-05
-1.74523e-07
1.51823e-05
-1.99675e-07
1.51705e-05
-1.87344e-07
1.51623e-05
-1.56088e-07
1.51575e-05
-1.17332e-07
1.51551e-05
-8.93111e-08
1.51547e-05
-7.62009e-08
1.51546e-05
-7.0453e-08
1.51563e-05
-6.17151e-08
1.5159e-05
-5.03844e-08
1.51616e-05
-4.12612e-08
1.51631e-05
-3.66737e-08
1.51638e-05
-3.37425e-08
-3.05362e-08
1.5165e-05
1.59631e-05
-4.45133e-09
1.59658e-05
-6.1239e-08
1.59579e-05
-3.76021e-08
1.59565e-05
-7.62473e-08
1.5965e-05
-7.89925e-08
1.59548e-05
-1.0298e-07
1.59306e-05
-1.50288e-07
1.59107e-05
-1.79748e-07
1.58985e-05
-1.75203e-07
1.58918e-05
-1.49346e-07
1.5888e-05
-1.13585e-07
1.58857e-05
-8.69791e-08
1.58844e-05
-7.48617e-08
1.58838e-05
-6.99047e-08
1.58848e-05
-6.27107e-08
1.58871e-05
-5.2636e-08
1.58895e-05
-4.36966e-08
1.58912e-05
-3.84194e-08
1.58922e-05
-3.46983e-08
-3.14927e-08
1.58932e-05
1.6726e-05
1.17654e-10
1.67229e-05
-5.81269e-08
1.67176e-05
-3.22658e-08
1.67137e-05
-7.23839e-08
1.67198e-05
-8.50276e-08
1.67149e-05
-9.81385e-08
1.66945e-05
-1.29852e-07
1.66744e-05
-1.59702e-07
1.66618e-05
-1.62527e-07
1.66553e-05
-1.4293e-07
1.66527e-05
-1.10986e-07
1.6651e-05
-8.52286e-08
1.66493e-05
-7.31425e-08
1.66482e-05
-6.87891e-08
1.66484e-05
-6.29917e-08
1.66502e-05
-5.44127e-08
1.66524e-05
-4.59059e-08
1.66542e-05
-4.02153e-08
1.66555e-05
-3.59469e-08
-3.23567e-08
1.66563e-05
1.75259e-05
4.60798e-09
1.75244e-05
-5.66658e-08
1.75183e-05
-2.6205e-08
1.75109e-05
-6.49722e-08
1.75121e-05
-8.62155e-08
1.75108e-05
-9.68317e-08
1.74949e-05
-1.13957e-07
1.74756e-05
-1.40354e-07
1.74622e-05
-1.4919e-07
1.74551e-05
-1.35817e-07
1.74534e-05
-1.0922e-07
1.74523e-05
-8.41421e-08
1.74509e-05
-7.17627e-08
1.74492e-05
-6.71408e-08
1.7449e-05
-6.27023e-08
1.74501e-05
-5.55403e-08
1.74521e-05
-4.78806e-08
1.74537e-05
-4.18964e-08
1.74552e-05
-3.73878e-08
-3.33231e-08
1.74561e-05
1.83641e-05
8.85073e-09
1.83604e-05
-5.29933e-08
1.83564e-05
-2.2179e-08
1.83485e-05
-5.70216e-08
1.83452e-05
-8.29387e-08