/*--------------------------------*- C++ -*----------------------------------*\
| =========                 |                                                 |
| \\      /  F ield         | OpenFOAM: The Open Source CFD Toolbox           |
|  \\    /   O peration     | Version:  v1906                                 |
|   \\  /    A nd           | Web:      www.OpenFOAM.com                      |
|    \\/     M anipulation  |                                                 |
\*---------------------------------------------------------------------------*/
FoamFile
{
    version     2.0;
    format      ascii;
    class       volScalarField;
    location    "2.1";
    object      p;
}
// * * * * * * * * * * * * * * * * * * * * * * * * * * * * * * * * * * * * * //

dimensions      [0 2 -2 0 0 0 0];


internalField   nonuniform List<scalar> 
9600
(
-1.57953e-11
0.000286908
0.00034484
0.000875734
-0.000516989
-0.000653457
0.00030658
0.0012681
0.000746653
0.00156836
0.00195696
0.000605987
0.000479502
0.0014759
0.00165466
0.0026515
0.00297647
0.00489746
0.00636706
0.0113071
2.67235e-07
0.000293099
0.000343717
0.000849351
-0.000511656
-0.000638869
0.000304826
0.00126512
0.000747475
0.0015518
0.00195748
0.000593801
0.000495768
0.00147392
0.00166073
0.00264955
0.00298705
0.0048684
0.00643827
0.0108612
1.60661e-06
0.00029936
0.000337779
0.000825262
-0.000502102
-0.000624298
0.000302233
0.00125903
0.000744318
0.00153181
0.00195408
0.000583301
0.000515914
0.00147152
0.00167198
0.00264379
0.0030014
0.00482724
0.00646511
0.0103865
3.93515e-06
0.000303841
0.00033125
0.000806472
-0.000492148
-0.000611407
0.000303258
0.00124893
0.000738756
0.00151319
0.00194544
0.000576649
0.000536759
0.00147088
0.00168491
0.00263446
0.00301807
0.00477555
0.0064623
0.00994237
7.3416e-06
0.000306932
0.000325625
0.000791982
-0.000481962
-0.000599438
0.000309054
0.00123498
0.000732462
0.00149472
0.00193443
0.000572987
0.000559657
0.00147032
0.00169919
0.00262231
0.00303348
0.00471765
0.00643492
0.00952018
1.19051e-05
0.000308867
0.000321123
0.000781961
-0.000471444
-0.000587944
0.000319331
0.00121866
0.000725814
0.00147567
0.00192393
0.000571608
0.000584109
0.00146873
0.00171493
0.00260732
0.00304669
0.00465698
0.00638315
0.00911775
1.74322e-05
0.000309961
0.000318179
0.000775765
-0.000460594
-0.000576354
0.000333266
0.00120173
0.000719245
0.001456
0.00191548
0.000571388
0.000609451
0.00146637
0.00173152
0.00259065
0.00305686
0.0045946
0.00630736
0.00873469
2.36328e-05
0.000310697
0.000316898
0.000772099
-0.000449202
-0.000564178
0.000349986
0.00118555
0.000713058
0.00143562
0.00190947
0.000571481
0.000635626
0.00146353
0.00174814
0.00257406
0.00306147
0.00453129
0.00620944
0.00836815
3.03025e-05
0.000311422
0.000316893
0.000769775
-0.00043697
-0.00055124
0.000368756
0.00117082
0.000707239
0.00141435
0.00190566
0.00057148
0.000662458
0.00146047
0.00176414
0.0025587
0.00305818
0.00446843
0.00609125
0.00801192
3.73363e-05
0.000312253
0.000317662
0.000767956
-0.000423747
-0.000537619
0.000388983
0.00115758
0.00070166
0.00139206
0.00190364
0.000571147
0.000689476
0.00145787
0.00177856
0.00254508
0.00304607
0.0044068
0.00595344
0.00766009
4.46954e-05
0.000313174
0.00031885
0.000766076
-0.000409507
-0.000523495
0.000410155
0.00114556
0.000696209
0.00136868
0.00190294
0.000570297
0.000716157
0.00145657
0.00179007
0.00253401
0.00302462
0.00434503
0.00579837
0.0073094
5.23812e-05
0.000314133
0.000320275
0.000763765
-0.000394245
-0.000509021
0.000431822
0.00113439
0.000690809
0.0013442
0.00190317
0.000568919
0.0007419
0.00145735
0.00179741
0.00252625
0.00299315
0.0042805
0.00563125
0.00695813
6.04155e-05
0.000315082
0.000321889
0.000760798
-0.000377942
-0.000494291
0.000453628
0.00112375
0.000685422
0.00131868
0.00190396
0.000567279
0.000765876
0.00146105
0.00179964
0.00252161
0.00295182
0.00421035
0.00545754
0.00660518
6.88266e-05
0.000315985
0.000323716
0.00075704
-0.00036055
-0.000479344
0.000475295
0.00111347
0.000680018
0.00129225
0.00190493
0.00056583
0.000787144
0.00146842
0.00179632
0.00251907
0.00290157
0.00413109
0.00528208
0.00625099
7.76453e-05
0.000316814
0.000325803
0.000752424
-0.000342005
-0.000464175
0.000496597
0.00110348
0.000674563
0.00126512
0.00190571
0.00056506
0.000804846
0.00148001
0.00178721
0.00251736
0.00284406
0.00403859
0.00510806
0.00589759
8.69044e-05
0.000317543
0.000328202
0.000746919
-0.000322264
-0.000448741
0.000517345
0.00109379
0.000669001
0.00123755
0.00190584
0.000565478
0.000818176
0.00149616
0.00177228
0.00251461
0.0027821
0.00392889
0.0049359
0.00554872
9.66374e-05
0.000318149
0.00033096
0.000740517
-0.000301319
-0.000432966
0.000537347
0.00108448
0.000663208
0.00120982
0.0019049
0.000567581
0.000826454
0.00151679
0.00175218
0.00250812
0.00271861
0.00380039
0.00476426
0.00520916
0.000106877
0.000318612
0.000334107
0.000733215
-0.000279196
-0.000416738
0.000556379
0.00107569
0.000657004
0.00118216
0.0019025
0.000571741
0.000829239
0.00154135
0.00172821
0.00249471
0.00265553
0.00364939
0.00459104
0.0048837
0.000117654
0.000318912
0.000337654
0.000725033
-0.000255953
-0.000399903
0.000574179
0.0010676
0.000650238
0.00115481
0.00189826
0.000578199
0.00082631
0.00156889
0.00170216
0.0024714
0.00259345
0.00346251
0.00441315
0.00457667
0.000129
0.000319036
0.000341601
0.000716023
-0.000231704
-0.000382264
0.000590492
0.00106036
0.000642761
0.001128
0.00189188
0.000586992
0.00081782
0.00159786
0.00167574
0.00243617
0.00253277
0.00325142
0.00422658
0.00429124
0.000140937
0.000318992
0.000345938
0.000706266
-0.000206639
-0.000363592
0.000605078
0.00105409
0.000634452
0.00110179
0.00188333
0.000597832
0.000804198
0.00162667
0.00165007
0.00238766
0.0024739
0.0030452
0.00402736
0.00402899
0.000153474
0.000318815
0.000350617
0.00069589
-0.000180957
-0.000343695
0.000617723
0.00104893
0.00062527
0.00107614
0.00187281
0.000610207
0.000785886
0.00165401
0.00162603
0.00232507
0.00241581
0.00284587
0.00381292
0.00378929
0.000166612
0.000318561
0.000355543
0.000685069
-0.000154841
-0.000322388
0.000628236
0.00104492
0.000615261
0.00105077
0.0018607
0.000623706
0.000763166
0.00167847
0.00160429
0.00224834
0.00235634
0.00264913
0.00358247
0.00356924
0.000180335
0.000318322
0.000360592
0.000674013
-0.000128511
-0.000299492
0.00063648
0.00104207
0.000604587
0.00102519
0.00184758
0.00063805
0.00073617
0.00169879
0.00158513
0.00215773
0.00229321
0.00245705
0.00333658
0.00336456
0.000194606
0.000318248
0.000365619
0.000662934
-0.000102164
-0.000274945
0.000642381
0.00104025
0.000593665
0.000998821
0.00183373
0.000653063
0.000704853
0.00171396
0.00156878
0.00205381
0.0022243
0.0022722
0.00307642
0.00317006
0.000209354
0.000318547
0.000370455
0.000652003
-7.59688e-05
-0.000248648
0.000645979
0.00103914
0.000583135
0.000971015
0.00181912
0.000668924
0.00066885
0.0017227
0.00155577
0.00193755
0.00214726
0.0020981
0.0028037
0.00297892
0.000224506
0.000319425
0.000374888
0.000641438
-5.01251e-05
-0.000220554
0.000647639
0.00103811
0.000573551
0.000941409
0.00180349
0.000686067
0.000627925
0.00172329
0.00154654
0.00181044
0.00205919
0.00193894
0.00252188
0.00278145
0.00023996
0.000321157
0.000378712
0.000631414
-2.47051e-05
-0.000190983
0.000647945
0.00103652
0.00056533
0.000909939
0.00178625
0.000704845
0.000582342
0.00171399
0.00154112
0.00167482
0.00195696
0.00179818
0.00223829
0.00256628
0.000255541
0.000324122
0.000381804
0.00062193
3.69729e-07
-0.000160321
0.000647514
0.00103392
0.000558651
0.000876589
0.00176653
0.000725432
0.000532493
0.00169293
0.00153937
0.00153403
0.00183923
0.00167601
0.00196457
0.00232517
0.000271073
0.000328671
0.000384084
0.000612917
2.52582e-05
-0.000128945
0.000647036
0.00102983
0.000553378
0.000841685
0.00174336
0.000747837
0.000478847
0.00165794
0.00154082
0.00139262
0.00170043
0.00156705
0.00171243
0.00205872
0.000286378
0.000335154
0.000385533
0.000604223
5.03199e-05
-9.75396e-05
0.000647039
0.00102409
0.000549126
0.000805691
0.00171608
0.000771733
0.000422172
0.00160726
0.0015438
0.00125555
0.00154118
0.00146312
0.00149055
0.00177811
0.000301234
0.000343894
0.000386232
0.000595532
7.61671e-05
-6.68857e-05
0.000647672
0.00101716
0.000545257
0.000768713
0.00168419
0.00079641
0.000363489
0.00153992
0.00154608
0.00112727
0.00136442
0.00135626
0.001301
0.0015
0.000315453
0.000355145
0.00038636
0.000586306
0.000103656
-3.73968e-05
0.000648701
0.00100984
0.000541151
0.000730455
0.00164691
0.000821255
0.000303622
0.00145542
0.00154589
0.00101144
0.00117437
0.00124002
0.00113917
0.00123843
0.000328894
0.000369113
0.000386379
0.000575762
0.000133353
-9.04053e-06
0.000649465
0.00100324
0.000536542
0.000689912
0.0016036
0.00084583
0.000243371
0.00135388
0.00154144
0.00091111
0.000974939
0.00111052
0.000998977
0.00100164
0.000341439
0.000386035
0.000387045
0.000563016
0.000165281
1.85181e-05
0.000648903
0.000998496
0.000531616
0.000645914
0.0015534
0.000869282
0.000184337
0.00123602
0.00153019
0.000829122
0.000769851
0.000964665
0.000875033
0.00079306
0.00035304
0.000407046
0.000389324
0.000547457
0.000199156
4.60798e-05
0.000645799
0.000995823
0.00052707
0.000597528
0.0014947
0.000890281
0.000129161
0.00110388
0.00150864
0.000767223
0.000564175
0.000798822
0.000762148
0.000614806
0.000363704
0.000431129
0.000394416
0.000528818
0.000233793
7.48766e-05
0.00063925
0.00099452
0.000524032
0.000543957
0.00142604
0.000908736
8.10053e-05
0.000959456
0.00147289
0.000726059
0.000365472
0.000609808
0.000653184
0.000468989
0.000373531
0.000455199
0.000403376
0.000507074
0.000267441
0.000105953
0.00062882
0.000993384
0.000523548
0.000485283
0.0013469
0.000926501
4.28604e-05
0.000804271
0.00141823
0.000704314
0.00018291
0.000397771
0.000537906
0.000354834
0.000382752
0.000479836
0.000416964
0.000482974
0.00029817
0.000139617
0.000614394
0.000990454
0.000526626
0.00042332
0.0012572
0.000940627
1.70243e-05
0.000641964
0.00133953
0.000696259
2.5004e-05
0.000168336
0.000404861
0.000265309
0.000391691
0.000504607
0.000435777
0.000457873
0.000324006
0.000175426
0.000596049
0.000983371
0.000534096
0.000361385
0.00115734
0.000948474
4.52671e-06
0.000477729
0.00123353
0.000693459
-0.000101835
-6.83215e-05
0.000245656
0.000188248
0.000400815
0.000528583
0.000459944
0.000433534
0.000343436
0.000212138
0.000574238
0.000969808
0.000545663
0.000303538
0.00104846
0.000946615
5.12256e-06
0.000317488
0.00110051
0.000686894
-0.000195527
-0.000300365
5.76598e-05
0.00010953
0.000410652
0.000551041
0.000489112
0.000411743
0.000355441
0.000248038
0.000549605
0.000947297
0.00056001
0.000253865
0.000933113
0.00093225
1.73511e-05
0.000166882
0.000943081
0.000667846
-0.00025786
-0.000516195
-0.000155976
1.58453e-05
0.000421678
0.000571864
0.000522672
0.000392075
0.000359524
0.000281398
0.000522656
0.000913003
0.000574626
0.00021654
0.000815454
0.000903167
3.77813e-05
3.06171e-05
0.000765845
0.000629193
-0.000293338
-0.000705543
-0.000387656
-0.000102937
0.000434303
0.000592462
0.000559327
0.000383053
0.000356381
0.000310712
0.000494054
0.000864504
0.000586037
0.000194622
0.000700201
0.000858198
6.16272e-05
-8.79248e-05
0.000575013
0.000565683
-0.000309269
-0.000860176
-0.000626273
-0.000252251
0.000449026
0.000609047
0.000597281
0.000382787
0.0003473
0.000333697
0.000465223
0.00079974
0.000591585
0.000187722
0.000591328
0.000797985
8.32893e-05
-0.000186931
0.000377901
0.000474303
-0.00031579
-0.00097516
-0.000857861
-0.000431727
0.000466369
0.000623239
0.000634674
0.000390821
0.000333015
0.000347072
0.000438709
0.000732833
0.000589028
0.000189791
0.000490969
0.000724425
9.85559e-05
-0.000267343
0.000182057
0.000355224
-0.000324288
-0.00105101
-0.00106804
-0.000634839
0.000486532
0.000635163
0.000669173
0.000405808
0.000314392
0.000350364
0.000418271
0.000669405
0.000575411
0.000193073
0.000399794
0.000640508
0.000104982
-0.000330737
-6.24607e-06
0.000212183
-0.000345131
-0.00109487
-0.00124492
-0.000849281
0.000509613
0.000645321
0.000698515
0.000426879
0.000294563
0.000344073
0.000403555
0.00061097
0.000550065
0.000192722
0.000317271
0.000549687
0.000101436
-0.000379115
-0.00018179
5.11082e-05
-0.00038545
-0.00111812
-0.00138196
-0.00105891
0.000535628
0.000654398
0.000721186
0.000452685
0.00027787
0.000328665
0.000389562
0.00055862
0.000517081
0.00018747
0.000241817
0.000453914
8.68694e-05
-0.000414784
-0.000340199
-0.000121589
-0.000448571
-0.00113278
-0.00148082
-0.00124841
0.000564294
0.000663187
0.000736484
0.000481423
0.000266854
0.000304909
0.000371539
0.000512272
0.000481993
0.00017754
0.000170756
0.000354575
6.09401e-05
-0.000440837
-0.000478278
-0.000298356
-0.000534464
-0.00114942
-0.00154879
-0.00140829
0.000595216
0.000672688
0.000744196
0.000510044
0.000262785
0.000275118
0.000346845
0.00047144
0.000447814
0.000163746
0.000103238
0.000252186
2.3154e-05
-0.000460801
-0.000594501
-0.000471214
-0.000639848
-0.00117516
-0.00159516
-0.00153603
0.000627792
0.000683744
0.000744744
0.000535504
0.000266152
0.000243018
0.000314082
0.00043222
0.000415356
0.000148897
4.03282e-05
0.000147578
-2.78045e-05
-0.000479039
-0.000688885
-0.000633552
-0.000759122
-0.00121356
-0.00162871
-0.00163377
0.000661123
0.000696888
0.000739506
0.000555521
0.000276292
0.000212861
0.000273128
0.000389401
0.00038422
0.000135283
-1.70877e-05
4.30681e-05
-9.22923e-05
-0.0005001
-0.0007632
-0.000779415
-0.000885402
-0.0012655
-0.00165701
-0.00170637
0.000694204
0.00071231
0.000730288
0.000564747
0.000291273
0.000188289
0.000221349
0.000339066
0.000352376
0.000124008
-6.68272e-05
-5.8903e-05
-0.000168867
-0.000528679
-0.000822965
-0.000905116
-0.00101124
-0.00132923
-0.00168603
-0.00176008
0.000726077
0.000729716
0.000719333
0.000565671
0.000307677
0.000171331
0.000169531
0.000280119
0.000315114
0.000114203
-0.000105996
-0.000155206
-0.000255022
-0.000567658
-0.000874081
-0.00101137
-0.00112979
-0.00140013
-0.00171884
-0.00180219
0.000755829
0.0007484
0.000708982
0.00055921
0.000321584
0.000162203
0.000122502
0.000213529
0.000267899
0.00010317
-0.000134073
-0.000240661
-0.000346669
-0.000618183
-0.000921474
-0.00110106
-0.00123717
-0.00147242
-0.00175441
-0.0018388
0.000782888
0.000767412
0.000700959
0.00054683
0.000329849
0.000159178
8.2328e-05
0.000142004
0.000209353
8.60844e-05
-0.00015367
-0.00031039
-0.000438032
-0.000679957
-0.000969246
-0.00117776
-0.00133338
-0.00154292
-0.00178964
-0.00187168
0.000807012
0.000785635
0.000695977
0.000530405
0.000330391
0.000158868
5.10094e-05
7.14273e-05
0.000140627
5.81337e-05
-0.000168169
-0.000363554
-0.000521624
-0.000748543
-0.00102082
-0.00124451
-0.00141908
-0.00161126
-0.001823
-0.00189863
0.000828152
0.000801965
0.000694087
0.000512409
0.000322277
0.000160568
2.85598e-05
7.71872e-06
6.4067e-05
1.6584e-05
-0.00018274
-0.000402613
-0.000591975
-0.000817631
-0.00107753
-0.00130517
-0.00149381
-0.00167699
-0.00185556
-0.00191766
0.000846442
0.000815649
0.000694086
0.000495261
0.000306088
0.000153887
1.33522e-05
-4.57843e-05
-1.48474e-05
-3.82444e-05
-0.000203677
-0.000430438
-0.000647111
-0.000880472
-0.00113537
-0.00136419
-0.00155857
-0.00173783
-0.00188916
-0.00193032
0.000862059
0.000826115
0.000694416
0.000480046
0.00028399
0.00013998
6.38916e-07
-8.88241e-05
-8.90294e-05
-0.000102852
-0.000235814
-0.000452248
-0.000687551
-0.000932408
-0.00118818
-0.00142149
-0.00161703
-0.00179147
-0.00192364
-0.00194066
0.000875058
0.000833072
0.000693557
0.000467027
0.000258872
0.000118103
-1.41742e-05
-0.000122785
-0.000153934
-0.000171884
-0.000279046
-0.000475482
-0.000716029
-0.000971887
-0.00123146
-0.00147148
-0.00167103
-0.00183806
-0.00195631
-0.00195178
0.000885349
0.000836577
0.00068991
0.000455536
0.000233582
8.93299e-05
-3.42586e-05
-0.000150285
-0.000208384
-0.000239066
-0.000329274
-0.000503841
-0.000737072
-0.000998979
-0.0012637
-0.00150954
-0.00171703
-0.00187889
-0.00198439
-0.00196379
0.000892634
0.000836862
0.000682695
0.00044405
0.0002094
5.54665e-05
-6.10992e-05
-0.000175587
-0.000252892
-0.000299995
-0.00038273
-0.000536597
-0.00075536
-0.00101497
-0.00128401
-0.00153414
-0.00174953
-0.00191211
-0.00200615
-0.00197335
0.000896434
0.000834111
0.000671813
0.000430797
0.000186473
1.92398e-05
-9.4787e-05
-0.00020302
-0.000289465
-0.000351345
-0.000434485
-0.00057139
-0.000772706
-0.00102249
-0.00129135
-0.001545
-0.00176552
-0.00193254
-0.00201934
-0.00197619
0.000896298
0.000828351
0.000657387
0.000413763
0.000163653
-1.66891e-05
-0.000133577
-0.000235048
-0.000322101
-0.000393473
-0.000479271
-0.000604497
-0.000787881
-0.00102308
-0.00128565
-0.00154087
-0.00176496
-0.00193673
-0.00202161
-0.00196991
0.000891832
0.00081911
0.000639798
0.000392427
0.000139151
-5.2468e-05
-0.000175864
-0.000271387
-0.000354134
-0.000429145
-0.000515408
-0.000631785
-0.000798263
-0.00101565
-0.00126658
-0.00151912
-0.00174621
-0.00192252
-0.00200944
-0.00195278
0.00088294
0.000806101
0.000618854
0.000366857
0.000111498
-8.9293e-05
-0.000221053
-0.000312248
-0.000386902
-0.000460038
-0.000543781
-0.000650431
-0.000800367
-0.000997973
-0.00123315
-0.00147764
-0.00170504
-0.00188609
-0.00197768
-0.00192104
0.00086928
0.000789083
0.000594507
0.000336637
7.92576e-05
-0.000128038
-0.000268309
-0.000357702
-0.000422742
-0.000488259
-0.000565101
-0.00065923
-0.000790526
-0.000966002
-0.00118172
-0.00141353
-0.00163655
-0.00182099
-0.00191921
-0.00186776
0.000850618
0.000767509
0.000566803
0.000302121
4.12559e-05
-0.000171148
-0.000318541
-0.000407482
-0.000463193
-0.00051647
-0.000580818
-0.000658963
-0.000767761
-0.000915389
-0.0011046
-0.00131857
-0.00153266
-0.00171762
-0.0018238
-0.00178279
0.00082653
0.000741083
0.000535254
0.000263345
-2.84518e-06
-0.000220435
-0.000374132
-0.000462904
-0.000510001
-0.000547926
-0.000593008
-0.000649868
-0.000731693
-0.000843828
-0.000994847
-0.00117836
-0.00137532
-0.00155797
-0.00167574
-0.00165342
0.000796812
0.000708769
0.000499946
0.000219738
-5.41933e-05
-0.00027717
-0.000437533
-0.000527208
-0.000566216
-0.0005873
-0.000606675
-0.000633006
-0.000681379
-0.000750622
-0.000849247
-0.00098203
-0.00113773
-0.00129717
-0.00142124
-0.00143545
0.000764018
0.000672726
0.000458023
0.000168859
-0.000113464
-0.000342344
-0.000510229
-0.000605834
-0.000640935
-0.000644344
-0.000630602
-0.000610911
-0.000609836
-0.000631494
-0.000673858
-0.000745473
-0.000838283
-0.000933683
-0.00100778
-0.000999441
0.000728281
0.000634131
0.000408472
0.000110309
-0.000180436
-0.000417015
-0.000593389
-0.000699266
-0.000742656
-0.000742425
-0.000704337
-0.000618203
-0.000497461
-0.000366411
-0.000258081
-0.000219888
-0.000286809
-0.000435997
-0.000608757
-0.000736084
0.000686205
0.000584792
0.000354632
5.15208e-05
-0.000248421
-0.00049532
-0.000686333
-0.000809012
-0.000869067
-0.00088294
-0.000876904
-0.000863984
-0.000799957
-0.000586135
-0.000160376
0.000376938
0.000870955
0.00122938
0.00144534
0.00152727
0.000638217
0.000522542
0.000286434
-1.97858e-05
-0.000322389
-0.000570947
-0.000764782
-0.000902528
-0.000986653
-0.00101006
-0.000904483
-0.000612227
-0.00021726
0.000170432
0.000487255
0.000738098
0.000945522
0.00113315
0.00128739
0.00133704
0.000592927
0.000486806
0.000228289
-0.000110894
-0.000455897
-0.000753155
-0.000980815
-0.00109235
-0.00102054
-0.000783726
-0.000485101
-0.000200622
4.62436e-05
0.000305038
0.000600049
0.000933555
0.00129577
0.00163502
0.00188763
0.00196783
0.000501304
0.000383749
0.000182812
-8.61335e-05
-0.000376578
-0.000618749
-0.000772687
-0.000827248
-0.000791538
-0.000710196
-0.000630764
-0.000553166
-0.000482828
-0.000372109
-0.000134766
0.000276234
0.000871183
0.00153732
0.00208974
0.00236161
0.000475996
0.000340167
5.13354e-05
-0.00028753
-0.000584453
-0.00077358
-0.000847223
-0.000841475
-0.000759681
-0.000596756
-0.000384831
-0.000125694
0.000176447
0.000490997
0.000822576
0.00115681
0.00148418
0.00177086
0.00195952
0.00198039
0.000419626
0.000304004
8.31717e-05
-0.0002075
-0.000525885
-0.00080495
-0.000958371
-0.000948592
-0.000792858
-0.000536672
-0.000272217
-4.88734e-05
0.000159796
0.000356354
0.000572119
0.00083182
0.00112357
0.00141278
0.00163078
0.00169629
0.0139853
0.00786749
-4.84582e-05
-0.00570856
-0.00713594
-0.00628609
-0.00512092
-0.00416271
-0.00346427
-0.00296623
-0.00260984
-0.00241098
-0.00236948
-0.00237694
-0.0022833
-0.00207851
-0.00188814
-0.00178062
-0.00174006
-0.00172781
-0.00167396
-0.00154918
-0.00141528
-0.00132082
-0.00123456
-0.00110798
-0.000939693
-0.000776401
-0.000657233
-0.000559007
-0.000441228
-0.000313182
-0.000211856
-0.000138892
-6.47813e-05
2.26571e-05
0.000110056
0.000191688
0.000285588
0.000401848
0.000522011
0.000631627
0.000743801
0.000875185
0.00101239
0.00113516
0.00125322
0.00138205
0.00150508
0.00161507
0.0017345
0.00187252
0.00200611
0.00214509
0.00230578
0.00245927
0.00260378
0.00275774
0.00290923
0.00306073
0.00322737
0.00340407
0.00357803
0.00375594
0.00393689
0.00412042
0.00430895
0.00450866
0.00471363
0.0049195
0.00513336
0.00534982
0.0055704
0.00579477
0.00602735
0.0062682
0.00651494
0.00676618
0.00701351
0.00727056
0.00753189
0.00780147
0.00807938
0.00835913
0.00864732
0.0089405
0.00923219
0.00953888
0.00984715
0.0101631
0.0104876
0.0108166
0.0111493
0.0114953
0.0118419
0.0121902
0.0125428
0.012891
0.0131607
0.0134261
0.0132419
0.00772226
4.38915e-05
-0.00556393
-0.00705554
-0.00625013
-0.00509979
-0.00414769
-0.00345247
-0.00295643
-0.00260125
-0.00240329
-0.00236287
-0.00237157
-0.00227891
-0.00207461
-0.00188452
-0.00177729
-0.00173703
-0.00172517
-0.00167168
-0.00154706
-0.00141322
-0.00131889
-0.00123282
-0.0011064
-0.000938196
-0.00077494
-0.00065585
-0.000557753
-0.000440069
-0.000312057
-0.000210764
-0.000137866
-6.3826e-05
2.35674e-05
0.000110935
0.000192521
0.000286364
0.000402586
0.000522725
0.000632306
0.000744431
0.000875777
0.00101297
0.00113572
0.00125374
0.00138254
0.00150556
0.00161553
0.00173492
0.00187293
0.0020065
0.00214546
0.00230613
0.00245962
0.00260411
0.00275806
0.00290954
0.00306102
0.00322764
0.00340434
0.00357829
0.00375619
0.00393713
0.00412065
0.00430917
0.00450888
0.00471384
0.0049197
0.00513356
0.00535001
0.00557058
0.00579494
0.00602752
0.00626836
0.00651509
0.00676633
0.00701365
0.0072707
0.00753202
0.0078016
0.00807951
0.00835925
0.00864744
0.00894062
0.0092323
0.00953898
0.00984726
0.0101632
0.0104877
0.0108167
0.0111494
0.0114954
0.011842
0.0121903
0.0125428
0.0128911
0.0131607
0.0134261
0.0125361
0.00755701
0.000219707
-0.00529739
-0.00691352
-0.00619695
-0.00507331
-0.00412947
-0.00343854
-0.00294539
-0.00259231
-0.00239565
-0.00235595
-0.00236539
-0.00227364
-0.00207021
-0.00188083
-0.00177408
-0.00173411
-0.00172259
-0.00166948
-0.00154508
-0.00141137
-0.00131718
-0.00123127
-0.00110495
-0.00093681
-0.000773592
-0.000654594
-0.000556624
-0.000439017
-0.000311034
-0.000209785
-0.000136964
-6.29897e-05
2.43652e-05
0.000111699
0.000193237
0.000287036
0.000403237
0.000523357
0.000632899
0.000744979
0.0008763
0.00101348
0.00113621
0.00125419
0.00138298
0.00150599
0.00161592
0.00173529
0.00187329
0.00200685
0.00214577
0.00230644
0.00245993
0.00260439
0.00275833
0.0029098
0.00306126
0.00322787
0.00340457
0.00357851
0.00375641
0.00393734
0.00412085
0.00430936
0.00450906
0.00471402
0.00491987
0.00513372
0.00535017
0.00557074
0.00579509
0.00602766
0.00626849
0.00651523
0.00676646
0.00701378
0.00727082
0.00753214
0.00780171
0.00807962
0.00835936
0.00864754
0.00894071
0.0092324
0.00953907
0.00984734
0.0101633
0.0104878
0.0108168
0.0111495
0.0114954
0.0118421
0.0121903
0.0125429
0.0128912
0.0131608
0.0134261
0.0118615
0.00738705
0.000448411
-0.00494904
-0.00670803
-0.00611394
-0.00503057
-0.00410084
-0.00341773
-0.00292993
-0.0025812
-0.00238722
-0.00234793
-0.00235688
-0.00226557
-0.00206372
-0.00187602
-0.00177012
-0.00173026
-0.00171888
-0.0016663
-0.00154257
-0.00140932
-0.00131532
-0.00122945
-0.00110324
-0.000935248
-0.000772129
-0.000653198
-0.000555318
-0.000437807
-0.000309903
-0.000208725
-0.000135983
-6.20857e-05
2.52045e-05
0.000112488
0.000193983
0.000287748
0.00040393
0.000524026
0.000633526
0.000745563
0.000876862
0.00101403
0.00113673
0.00125467
0.00138345
0.00150644
0.00161633
0.00173566
0.00187366
0.0020072
0.00214609
0.00230677
0.00246026
0.00260469
0.00275862
0.00291008
0.00306151
0.00322811
0.00340481
0.00357874
0.00375662
0.00393755
0.00412105
0.00430955
0.00450924
0.0047142
0.00492004
0.00513389
0.00535033
0.0055709
0.00579524
0.0060278
0.00626863
0.00651537
0.00676659
0.00701391
0.00727094
0.00753225
0.00780182
0.00807973
0.00835946
0.00864764
0.00894081
0.00923249
0.00953916
0.00984743
0.0101633
0.0104879
0.0108169
0.0111496
0.0114955
0.0118421
0.0121904
0.012543
0.0128913
0.0131609
0.0134261
0.0112012
0.00720588
0.000692414
-0.00457307
-0.0064741
-0.00601489
-0.0049779
-0.00406382
-0.00338987
-0.00290912
-0.00256694
-0.00237737
-0.00233835
-0.00234537
-0.00225379
-0.00205442
-0.00186974
-0.00176522
-0.00172503
-0.0017131
-0.00166104
-0.00153872
-0.00140666
-0.00131298
-0.001227
-0.00110093
-0.000933355
-0.000770504
-0.000651565
-0.000553649
-0.000436257
-0.000308531
-0.000207449
-0.000134759
-6.09643e-05
2.61848e-05
0.000113376
0.000194843
0.000288587
0.000404732
0.000524786
0.000634253
0.00074626
0.000877529
0.00101467
0.00113733
0.00125524
0.00138399
0.00150695
0.0016168
0.00173609
0.00187409
0.0020076
0.00214646
0.00230714
0.00246062
0.00260502
0.00275894
0.00291038
0.00306179
0.00322838
0.00340508
0.003579
0.00375687
0.00393779
0.00412127
0.00430976
0.00450945
0.0047144
0.00492023
0.00513407
0.00535051
0.00557107
0.0057954
0.00602796
0.00626879
0.00651551
0.00676674
0.00701405
0.00727107
0.00753238
0.00780194
0.00807985
0.00835958
0.00864775
0.00894092
0.00923259
0.00953926
0.00984753
0.0101634
0.0104879
0.010817
0.0111496
0.0114956
0.0118422
0.0121905
0.0125431
0.0128914
0.0131611
0.0134261
0.0105582
0.00700483
0.000927002
-0.00419251
-0.00622694
-0.00590929
-0.00492261
-0.00402313
-0.00335744
-0.00288421
-0.00254994
-0.00236608
-0.00232736
-0.00233133
-0.00223886
-0.00204265
-0.00186217
-0.00175958
-0.00171854
-0.00170509
-0.00165321
-0.00153296
-0.0014029
-0.00130978
-0.00122356
-0.00109773
-0.000931006
-0.000768746
-0.000649727
-0.000551587
-0.000434332
-0.000306901
-0.000205894
-0.000133147
-5.94682e-05
2.74107e-05
0.000114432
0.00019589
0.000289624
0.000405676
0.000525647
0.000635104
0.000747112
0.00087834
0.00101544
0.00113806
0.00125593
0.00138464
0.00150755
0.00161735
0.00173661
0.00187458
0.00200807
0.00214689
0.00230758
0.00246105
0.00260542
0.00275932
0.00291073
0.00306211
0.00322869
0.00340538
0.00357929
0.00375714
0.00393805
0.00412151
0.00430999
0.00450967
0.00471462
0.00492044
0.00513428
0.00535071
0.00557126
0.00579558
0.00602813
0.00626895
0.00651568
0.0067669
0.0070142
0.00727121
0.00753252
0.00780208
0.00807998
0.0083597
0.00864787
0.00894104
0.0092327
0.00953936
0.00984764
0.0101635
0.010488
0.0108171
0.0111497
0.0114957
0.0118423
0.0121906
0.0125432
0.0128915
0.0131613
0.0134262
0.00993731
0.00677738
0.00114037
-0.00381247
-0.00596701
-0.00579723
-0.00486612
-0.00398046
-0.0033217
-0.00285604
-0.00253061
-0.00235342
-0.00231525
-0.00231573
-0.00222202
-0.00202936
-0.00185387
-0.00175358
-0.00171127
-0.00169534
-0.00164311
-0.00152524
-0.00139777
-0.00130538
-0.00121882
-0.00109339
-0.000928055
-0.000766808
-0.000647694
-0.00054917
-0.000432114
-0.000305127
-0.000204117
-0.000131088
-5.74621e-05
2.90146e-05
0.000115765
0.00019724
0.000290962
0.00040682
0.000526625
0.000636091
0.000748136
0.000879305
0.00101634
0.00113896
0.00125681
0.00138544
0.00150827
0.00161802
0.00173722
0.00187516
0.00200862
0.00214742
0.0023081
0.00246155
0.00260589
0.00275977
0.00291115
0.00306249
0.00322906
0.00340574
0.00357962
0.00375746
0.00393835
0.00412179
0.00431026
0.00450992
0.00471487
0.00492067
0.0051345
0.00535093
0.00557147
0.00579578
0.00602833
0.00626914
0.00651586
0.00676708
0.00701437
0.00727137
0.00753268
0.00780222
0.00808013
0.00835984
0.00864801
0.00894117
0.00923283
0.00953948
0.00984775
0.0101636
0.0104882
0.0108172
0.0111498
0.0114958
0.0118424
0.0121907
0.0125433
0.0128917
0.0131616
0.0134262
0.0093402
0.00652226
0.00133016
-0.00343069
-0.00569035
-0.00567609
-0.00480828
-0.00393675
-0.00328342
-0.00282501
-0.00250906
-0.00233937
-0.00230224
-0.00229919
-0.00220411
-0.00201518
-0.00184508
-0.00174737
-0.00170357
-0.00168458
-0.00163155
-0.00151607
-0.00139136
-0.00129969
-0.0012127
-0.00108788
-0.000924418
-0.000764589
-0.000645416
-0.000546422
-0.000429698
-0.000303363
-0.000202288
-0.000128692
-5.49504e-05
3.10696e-05
0.000117484
0.000199013
0.000292724
0.000408261
0.000527779
0.000637244
0.000749342
0.000880406
0.00101735
0.00114001
0.00125789
0.00138644
0.00150917
0.00161886
0.00173799
0.00187585
0.00200928
0.00214805
0.00230871
0.00246215
0.00260647
0.00276031
0.00291165
0.00306296
0.0032295
0.00340616
0.00358003
0.00375785
0.00393871
0.00412212
0.00431057
0.00451022
0.00471516
0.00492094
0.00513476
0.00535118
0.00557171
0.00579601
0.00602855
0.00626936
0.00651607
0.00676728
0.00701456
0.00727155
0.00753286
0.00780239
0.0080803
0.00836
0.00864816
0.00894131
0.00923296
0.00953961
0.00984788
0.0101638
0.0104883
0.0108173
0.0111499
0.0114959
0.0118425
0.0121908
0.0125434
0.0128919
0.013162
0.0134263
0.00876832
0.00624627
0.00149807
-0.0030465
-0.00539579
-0.00554478
-0.0047496
-0.00389324
-0.00324334
-0.00279124
-0.00248518
-0.00232391
-0.00228844
-0.00228197
-0.00218542
-0.00200028
-0.00183577
-0.00174083
-0.00169556
-0.00167329
-0.0016192
-0.00150601
-0.001384
-0.00129291
-0.00120538
-0.00108131
-0.000920124
-0.00076203
-0.000642839
-0.000543344
-0.000427116
-0.000301687
-0.000200568
-0.000126168
-5.20962e-05
3.35182e-05
0.00011961
0.000201266
0.000294984
0.000410087
0.000529193
0.000638627
0.000750755
0.000881625
0.00101841
0.00114117
0.00125915
0.00138761
0.00151025
0.00161992
0.00173896
0.00187668
0.00201005
0.0021488
0.00230943
0.00246287
0.00260719
0.00276097
0.00291225
0.00306353
0.00323004
0.00340668
0.00358053
0.00375832
0.00393914
0.00412252
0.00431095
0.00451058
0.0047155
0.00492126
0.00513507
0.00535147
0.00557198
0.00579628
0.0060288
0.0062696
0.00651631
0.00676751
0.00701477
0.00727176
0.00753306
0.00780259
0.00808049
0.00836018
0.00864834
0.00894148
0.00923313
0.00953976
0.00984803
0.0101639
0.0104884
0.0108174
0.0111501
0.011496
0.0118427
0.0121909