/*--------------------------------*- C++ -*----------------------------------*\
| =========                 |                                                 |
| \\      /  F ield         | OpenFOAM: The Open Source CFD Toolbox           |
|  \\    /   O peration     | Version:  v1812                                 |
|   \\  /    A nd           | Web:      www.OpenFOAM.com                      |
|    \\/     M anipulation  |                                                 |
\*---------------------------------------------------------------------------*/
FoamFile
{
    version     2.0;
    format      ascii;
    class       volVectorField;
    location    "4.3";
    object      U;
}
// * * * * * * * * * * * * * * * * * * * * * * * * * * * * * * * * * * * * * //

dimensions      [0 1 -1 0 0 0 0];


internalField   nonuniform List<vector> 
9600
(
(0.648077 -0.000470615 0)
(1.29835 -0.00182181 0)
(0.697426 -0.0170903 0)
(1.44032 0.0071786 0)
(0.747192 0.0128946 0)
(1.1409 0.00454143 0)
(0.731994 -0.0195754 0)
(1.2193 -0.0174544 0)
(0.819988 -0.0169664 0)
(1.24174 -0.000177149 0)
(0.817158 0.00462742 0)
(1.22657 0.00761474 0)
(0.845291 0.00581385 0)
(1.16368 0.00660428 0)
(0.849523 0.000608205 0)
(1.13894 1.97821e-05 0)
(0.849629 -0.00324755 0)
(1.12866 0.000456351 0)
(0.858709 0.00090845 0)
(1.1239 0.00327142 0)
(0.665315 -0.000256578 0)
(1.27906 -0.0018003 0)
(0.713223 -0.0188453 0)
(1.42809 0.00678055 0)
(0.781557 0.0150548 0)
(1.12293 0.00510433 0)
(0.780978 -0.0211582 0)
(1.19503 -0.0183291 0)
(0.849818 -0.017759 0)
(1.22566 0.00029199 0)
(0.849081 0.004455 0)
(1.20075 0.00741886 0)
(0.890359 0.00653238 0)
(1.12712 0.00687035 0)
(0.911196 0.000934595 0)
(1.08781 0.000125524 0)
(0.929616 -0.00277228 0)
(1.05225 -0.000185181 0)
(0.964642 0.00208706 0)
(1.00928 0.00223137 0)
(0.698458 -3.59015e-05 0)
(1.24348 -0.001875 0)
(0.741296 -0.0204249 0)
(1.39655 0.0067077 0)
(0.847768 0.017668 0)
(1.10253 0.00541571 0)
(0.842396 -0.0220699 0)
(1.15311 -0.0188065 0)
(0.896714 -0.0183683 0)
(1.18892 0.000633363 0)
(0.907646 0.00450376 0)
(1.15449 0.00709042 0)
(0.957181 0.00763229 0)
(1.0822 0.00677035 0)
(0.976601 0.00163921 0)
(1.04414 -0.000284466 0)
(0.986468 -0.00201694 0)
(1.0143 -0.000828402 0)
(1.00022 0.00280037 0)
(0.997121 0.00289367 0)
(0.74522 0.000217361 0)
(1.19446 -0.00191565 0)
(0.779332 -0.0218972 0)
(1.34455 0.006204 0)
(0.927646 0.0199301 0)
(1.08794 0.00585454 0)
(0.905845 -0.022611 0)
(1.10235 -0.0193565 0)
(0.944998 -0.0189177 0)
(1.13925 0.000593293 0)
(0.967923 0.00485153 0)
(1.10793 0.00649793 0)
(1.01059 0.00860933 0)
(1.05633 0.00666509 0)
(1.01459 0.00229644 0)
(1.02832 -0.00039983 0)
(1.00806 -0.00138697 0)
(1.00933 -0.000974014 0)
(1.00642 0.00308188 0)
(1.00352 0.00365719 0)
(0.801033 0.000536736 0)
(1.13835 -0.00192941 0)
(0.822049 -0.0232929 0)
(1.27661 0.00500639 0)
(1.0023 0.0218239 0)
(1.08345 0.00644525 0)
(0.959228 -0.0225699 0)
(1.05525 -0.0198178 0)
(0.979329 -0.0193691 0)
(1.09152 0.000257195 0)
(1.01027 0.00515636 0)
(1.07644 0.00588972 0)
(1.03961 0.00924281 0)
(1.05016 0.00681573 0)
(1.03193 0.00287523 0)
(1.02691 -0.000202192 0)
(1.01523 -0.000856724 0)
(1.0109 -0.000860383 0)
(1.00855 0.00328417 0)
(1.00621 0.00429085 0)
(0.858922 0.000896167 0)
(1.08452 -0.0019046 0)
(0.862859 -0.0245408 0)
(1.20219 0.00336669 0)
(1.05855 0.0232067 0)
(1.0879 0.00723681 0)
(0.997623 -0.0219494 0)
(1.02126 -0.0200698 0)
(0.99467 -0.0197659 0)
(1.05579 -0.000268126 0)
(1.03168 0.005204 0)
(1.06104 0.00544201 0)
(1.05156 0.00954165 0)
(1.0523 0.00710611 0)
(1.04044 0.00347778 0)
(1.02877 0.0001864 0)
(1.01796 -0.000331095 0)
(1.01165 -0.00062537 0)
(1.00897 0.00346891 0)
(1.00655 0.00483083 0)
(0.911259 0.00125366 0)
(1.04199 -0.00179333 0)
(0.896573 -0.0255595 0)
(1.13259 0.00152164 0)
(1.09114 0.0238976 0)
(1.09559 0.00817189 0)
(1.02237 -0.0208528 0)
(1.00249 -0.0200316 0)
(0.995832 -0.0201137 0)
(1.03284 -0.000953033 0)
(1.03883 0.00496837 0)
(1.05503 0.00508108 0)
(1.05563 0.00960529 0)
(1.05526 0.00741386 0)
(1.04526 0.00413177 0)
(1.03072 0.000725565 0)
(1.01897 0.00025308 0)
(1.0114 -0.000259615 0)
(1.0079 0.00363484 0)
(1.00544 0.00531748 0)
(0.952238 0.00155719 0)
(1.01566 -0.00156861 0)
(0.92151 -0.0262962 0)
(1.07614 -0.000388915 0)
(1.10174 0.0238664 0)
(1.10028 0.00912224 0)
(1.03678 -0.019452 0)
(0.995375 -0.0196944 0)
(0.990758 -0.0203748 0)
(1.01829 -0.00179592 0)
(1.03848 0.00448072 0)
(1.05187 0.00469062 0)
(1.05618 0.00954261 0)
(1.05652 0.0077014 0)
(1.04754 0.0048197 0)
(1.03193 0.00139611 0)
(1.0192 0.000916215 0)
(1.01068 0.000237217 0)
(1.0062 0.00380246 0)
(1.00346 0.00577939 0)
(0.979577 0.0017617 0)
(1.00461 -0.00124368 0)
(0.939264 -0.0267284 0)
(1.0354 -0.0022252 0)
(1.09603 0.0232455 0)
(1.09847 0.0100054 0)
(1.0435 -0.0179197 0)
(0.994825 -0.0191156 0)
(0.985429 -0.0204983 0)
(1.00799 -0.00275934 0)
(1.03406 0.00379818 0)
(1.04754 0.00422664 0)
(1.05381 0.00940857 0)
(1.0552 0.00795866 0)
(1.04735 0.00551128 0)
(1.03192 0.00215658 0)
(1.0189 0.0016139 0)
(1.00986 0.000853627 0)
(1.00451 0.00401352 0)
(1.0013 0.00624186 0)
(0.9946 0.00184752 0)
(1.00377 -0.000866548 0)
(0.952668 -0.0268559 0)
(1.00824 -0.00386803 0)
(1.0805 0.0222566 0)
(1.08992 0.010714 0)
(1.04445 -0.0164175 0)
(0.996903 -0.0183944 0)
(0.982549 -0.0204459 0)
(0.999962 -0.0037534 0)
(1.02693 0.0030094 0)
(1.04037 0.00369584 0)
(1.04808 0.00920217 0)
(1.05089 0.00816829 0)
(1.04469 0.00615813 0)
(1.03048 0.00294675 0)
(1.01803 0.00232117 0)
(1.00904 0.00156937 0)
(1.00313 0.00429135 0)
(0.999372 0.00670361 0)
(1.00087 0.0018293 0)
(1.0072 -0.000509062 0)
(0.963813 -0.0267025 0)
(0.990941 -0.00524217 0)
(1.0606 0.0211033 0)
(1.0767 0.0111947 0)
(1.04139 -0.01506 0)
(0.999319 -0.017639 0)
(0.982387 -0.0202108 0)
(0.993832 -0.0046625 0)
(1.01819 0.00221808 0)
(1.03056 0.0031241 0)
(1.03919 0.00891141 0)
(1.04374 0.00830027 0)
(1.03978 0.00670063 0)
(1.02763 0.00371344 0)
(1.01654 0.00300389 0)
(1.00816 0.00234101 0)
(1.00209 0.0046315 0)
(0.997837 0.00716002 0)
(1.00231 0.00174101 0)
(1.01074 -0.000223263 0)
(0.973408 -0.0263323 0)
(0.980445 -0.00630945 0)
(1.04044 0.0199169 0)
(1.06172 0.0114501 0)
(1.03619 -0.0139068 0)
(1.00103 -0.0169374 0)
(0.984026 -0.0198204 0)
(0.989718 -0.00540056 0)
(1.00934 0.00151302 0)
(1.01967 0.00255293 0)
(1.02841 0.00854035 0)
(1.03464 0.00832884 0)
(1.03321 0.00708881 0)
(1.02362 0.00440525 0)
(1.01442 0.00361432 0)
(1.00709 0.0031099 0)
(1.0013 0.00502759 0)
(0.99673 0.00761706 0)
(1.00186 0.00161825 0)
(1.01267 -2.77341e-05 0)
(0.981332 -0.0258168 0)
(0.974745 -0.00707893 0)
(1.0229 0.0187783 0)
(1.04762 0.0115079 0)
(1.03049 -0.0129637 0)
(1.00176 -0.0163365 0)
(0.986317 -0.0193245 0)
(0.98754 -0.00593885 0)
(1.00184 0.000950149 0)
(1.00959 0.00202992 0)
(1.01758 0.00810985 0)
(1.02498 0.00825085 0)
(1.02587 0.0073022 0)
(1.01884 0.00498068 0)
(1.01175 0.00411931 0)
(1.00574 0.00382664 0)
(1.00063 0.00547196 0)
(0.996046 0.00806298 0)
(1.00109 0.00148818 0)
(1.01296 7.97334e-05 0)
(0.98742 -0.025214 0)
(0.972394 -0.00759113 0)
(1.00947 0.017731 0)
(1.03601 0.0114063 0)
(1.02543 -0.0122007 0)
(1.0017 -0.0158441 0)
(0.988409 -0.0187749 0)
(0.98685 -0.00629795 0)
(0.996535 0.000543214 0)
(1.0017 0.00159064 0)
(1.00832 0.00765442 0)
(1.0161 0.00809306 0)
(1.01873 0.00735238 0)
(1.01382 0.00542328 0)
(1.00871 0.00451327 0)
(1.0041 0.00445194 0)
(0.999967 0.00593674 0)
(0.995731 0.0084626 0)
(1.00057 0.00136536 0)
(1.01223 0.000116661 0)
(0.991801 -0.0245676 0)
(0.972139 -0.00789956 0)
(1.00027 0.0167843 0)
(1.02729 0.011183 0)
(1.02145 -0.0115762 0)
(1.00118 -0.0154435 0)
(0.989916 -0.0182083 0)
(0.987007 -0.00652455 0)
(0.993413 0.000268859 0)
(0.99638 0.00125345 0)
(1.00141 0.00721033 0)
(1.00889 0.00789753 0)
(1.01253 0.00727662 0)
(1.0091 0.00574298 0)
(1.00562 0.00481209 0)
(1.00232 0.00495893 0)
(0.999291 0.00638096 0)
(0.995692 0.00878735 0)
(1.00035 0.00125544 0)
(1.01107 0.000100438 0)
(0.994807 -0.0239012 0)
(0.972946 -0.00805937 0)
(0.994465 0.0159302 0)
(1.02109 0.0108723 0)
(1.01856 -0.0110521 0)
(1.00053 -0.0151076 0)
(0.990828 -0.0176446 0)
(0.987452 -0.0066663 0)
(0.991878 8.73058e-05 0)
(0.993224 0.00101749 0)
(0.996818 0.00679975 0)
(1.00361 0.00770182 0)
(1.00767 0.00712302 0)
(1.00512 0.00596241 0)
(1.00284 0.00503977 0)
(1.00064 0.00534219 0)
(0.998671 0.00677201 0)
(0.995835 0.0090308 0)
(1.00033 0.00115855 0)
(1.00986 4.57541e-05 0)
(0.996787 -0.0232271 0)
(0.974117 -0.00811714 0)
(0.990977 0.0151537 0)
(1.01678 0.0104989 0)
(1.01652 -0.0105978 0)
(0.99995 -0.0148077 0)
(0.991319 -0.0170891 0)
(0.987873 -0.00676064 0)
(0.991226 -4.30755e-05 0)
(0.991517 0.00086573 0)
(0.994034 0.00642745 0)
(1.00009 0.00752547 0)
(1.0042 0.00693498 0)
(1.00208 0.00610368 0)
(1.00063 0.00521932 0)
(0.999285 0.00561488 0)
(0.998216 0.00709297 0)
(0.996108 0.009202 0)
(1.00042 0.00107312 0)
(1.0088 -3.5544e-05 0)
(0.998017 -0.0225509 0)
(0.975292 -0.0081086 0)
(0.988969 0.0144332 0)
(1.01382 0.0100785 0)
(1.0151 -0.0101943 0)
(0.999524 -0.0145228 0)
(0.991585 -0.0165399 0)
(0.988186 -0.00682595 0)
(0.990952 -0.000152778 0)
(0.990633 0.000776525 0)
(0.992467 0.00608722 0)
(0.997902 0.00736833 0)
(1.00194 0.0067421 0)
(1.00001 0.00618519 0)
(0.999099 0.00537037 0)
(0.998393 0.00579836 0)
(0.998009 0.007336 0)
(0.99649 0.00931665 0)
(1.00053 0.000996978 0)
(1.00795 -0.000135624 0)
(0.998707 -0.021872 0)
(0.976343 -0.00805968 0)
(0.987907 0.0137506 0)
(1.01183 0.00962518 0)
(1.01408 -0.00982919 0)
(0.999256 -0.0142396 0)
(0.991759 -0.0159947 0)
(0.988436 -0.00686746 0)
(0.990809 -0.000257943 0)
(0.990174 0.000729052 0)
(0.99164 0.00576719 0)
(0.996644 0.00721951 0)
(1.0006 0.00655648 0)
(0.998764 0.0062234 0)
(0.998187 0.00550916 0)
(0.997958 0.00591815 0)
(0.998054 0.00750071 0)
(0.99696 0.00938877 0)
(1.00062 0.00092762 0)
(1.00731 -0.000248057 0)
(0.999024 -0.0211876 0)
(0.977268 -0.00798856 0)
(0.98746 0.0130952 0)
(1.01054 0.00914995 0)
(1.01332 -0.00949295 0)
(0.999113 -0.0139487 0)
(0.991909 -0.0154503 0)
(0.98869 -0.0068877 0)
(0.990717 -0.000363518 0)
(0.989942 0.000704681 0)
(0.99124 0.00545752 0)
(0.995977 0.00706745 0)
(0.999863 0.00637906 0)
(0.998122 0.0062281 0)
(0.997742 0.00564213 0)
(0.99788 0.00599983 0)
(0.998292 0.00759483 0)
(0.997483 0.00942525 0)
(1.00067 0.000862827 0)
(1.00684 -0.000368429 0)
(0.999102 -0.0204961 0)
(0.97811 -0.00790684 0)
(0.987394 0.0124544 0)
(1.00971 0.00865847 0)
(1.01269 -0.00917883 0)
(0.999054 -0.0136461 0)
(0.992053 -0.0149064 0)
(0.988994 -0.00688546 0)
(0.990669 -0.00047421 0)
(0.989854 0.000690356 0)
(0.99108 0.00515341 0)
(0.995668 0.00690437 0)
(0.999488 0.00620829 0)
(0.997872 0.00620211 0)
(0.997589 0.00576309 0)
(0.998026 0.00606348 0)
(0.998636 0.0076353 0)
(0.998013 0.00943187 0)
(1.00066 0.000801593 0)
(1.00652 -0.000494701 0)
(0.99904 -0.0197974 0)
(0.978921 -0.00782062 0)
(0.987538 0.0118183 0)
(1.00918 0.00815685 0)
(1.01212 -0.00888345 0)
(0.999044 -0.0133268 0)
(0.992194 -0.014365 0)
(0.989363 -0.00686696 0)
(0.990671 -0.000585633 0)
(0.989878 0.00067797 0)
(0.991059 0.00485317 0)
(0.995567 0.00672655 0)
(0.999302 0.00604241 0)
(0.99784 0.0061487 0)
(0.997585 0.00586808 0)
(0.998275 0.00611795 0)
(0.999008 0.00764176 0)
(0.998506 0.00942133 0)
(1.00061 0.000742957 0)
(1.00629 -0.000624957 0)
(0.998905 -0.0190915 0)
(0.979736 -0.00773361 0)
(0.987781 0.0111827 0)
(1.00879 0.00765043 0)
(1.01156 -0.00860384 0)
(0.999052 -0.0129922 0)
(0.992329 -0.0138272 0)
(0.989796 -0.00683324 0)
(0.99073 -0.000700053 0)
(0.989996 0.000662655 0)
(0.991123 0.00455658 0)
(0.995581 0.00653362 0)
(0.9992 0.00588173 0)
(0.997907 0.00607096 0)
(0.997631 0.0059615 0)
(0.998544 0.00616419 0)
(0.99936 0.00761709 0)
(0.998939 0.00940542 0)
(1.00051 0.000685979 0)
(1.00611 -0.000757271 0)
(0.99874 -0.018379 0)
(0.980574 -0.00764614 0)
(0.988063 0.0105453 0)
(1.00847 0.00714362 0)
(1.01098 -0.00833714 0)
(0.999058 -0.0126444 0)
(0.992461 -0.0132927 0)
(0.990274 -0.00678402 0)
(0.990845 -0.000815415 0)
(0.990185 0.000645695 0)
(0.991246 0.00426337 0)
(0.995656 0.00632562 0)
(0.999129 0.005731 0)
(0.998002 0.00597392 0)
(0.997677 0.00604281 0)
(0.998782 0.00620771 0)
(0.999673 0.00755395 0)
(0.999305 0.00937871 0)
(1.00038 0.000631321 0)
(1.00596 -0.00089058 0)
(0.998571 -0.0176632 0)
(0.981433 -0.0075552 0)
(0.98836 0.00990391 0)
(1.00817 0.00663913 0)
(1.01039 -0.00808498 0)
(0.999048 -0.0122811 0)
(0.992594 -0.0127591 0)
(0.99078 -0.00672641 0)
(0.991015 -0.000928 0)
(0.990421 0.000630039 0)
(0.991414 0.00397539 0)
(0.995758 0.00610038 0)
(0.999067 0.005591 0)
(0.99809 0.00586821 0)
(0.997704 0.00610758 0)
(0.998967 0.00625523 0)
(0.999945 0.00745902 0)
(0.999619 0.00931339 0)
(1.00024 0.000578019 0)
(1.00581 -0.00102334 0)
(0.998414 -0.0169472 0)
(0.982298 -0.007459 0)
(0.988672 0.00926005 0)
(1.00785 0.0061392 0)
(1.0098 -0.00784585 0)
(0.999015 -0.0119067 0)
(0.992733 -0.0122253 0)
(0.991291 -0.00666352 0)
(0.991232 -0.00104248 0)
(0.990682 0.000615339 0)
(0.991616 0.00369645 0)
(0.995871 0.00585758 0)
(0.999011 0.00545469 0)
(0.998159 0.00575442 0)
(0.997714 0.0061561 0)
(0.999097 0.00631236 0)
(1.00018 0.00734887 0)
(0.999903 0.00917976 0)
(1.00012 0.000526852 0)
(1.00565 -0.00115508 0)
(0.998279 -0.0162357 0)
(0.983154 -0.00735741 0)
(0.989003 0.00861504 0)
(1.00751 0.00564342 0)
(1.00923 -0.00762073 0)
(0.99896 -0.0115304 0)
(0.992882 -0.0116949 0)
(0.991791 -0.00659128 0)
(0.991487 -0.0011569 0)
(0.990948 0.000601426 0)
(0.991842 0.00343063 0)
(0.995985 0.00560252 0)
(0.998962 0.00532138 0)
(0.99821 0.00562538 0)
(0.99772 0.00617939 0)
(0.999179 0.00638471 0)
(1.00038 0.00724771 0)
(1.00017 0.00897462 0)
(1.00002 0.000478355 0)
(1.00546 -0.00128598 0)
(0.998171 -0.015531 0)
(0.983987 -0.0072478 0)
(0.989356 0.007971 0)
(1.00715 0.00515607 0)
(1.00868 -0.00740624 0)
(0.998886 -0.011156 0)
(0.993043 -0.0111732 0)
(0.992271 -0.0065047 0)
(0.991773 -0.0012735 0)
(0.991206 0.000590581 0)
(0.992082 0.00318439 0)
(0.996097 0.00534257 0)
(0.998922 0.00519898 0)
(0.998249 0.00549185 0)
(0.997732 0.00616214 0)
(0.999229 0.00645635 0)
(1.00056 0.00718462 0)
(1.00043 0.00873122 0)
(0.999943 0.000430904 0)
(1.00524 -0.00141157 0)
(0.998091 -0.0148373 0)
(0.984791 -0.00712978 0)
(0.989732 0.00732752 0)
(1.00677 0.0046751 0)
(1.00815 -0.00719492 0)
(0.998798 -0.0107792 0)
(0.993214 -0.0106578 0)
(0.992729 -0.00640874 0)
(0.992082 -0.00139516 0)
(0.991454 0.00057835 0)
(0.992327 0.00296215 0)
(0.996208 0.00507923 0)
(0.998891 0.00508628 0)
(0.998279 0.0053747 0)
(0.997755 0.00611298 0)
(0.999264 0.00649401 0)
(1.0007 0.00715912 0)
(1.00068 0.0085068 0)
(0.999894 0.000386438 0)
(1.005 -0.0015319 0)
(0.998035 -0.0141561 0)
(0.985565 -0.00700395 0)
(0.990125 0.00668545 0)
(1.00637 0.00419911 0)
(1.00763 -0.0069857 0)
(0.998702 -0.0104059 0)
(0.99339 -0.0101515 0)
(0.993164 -0.00630669 0)
(0.992408 -0.00151767 0)
(0.991692 0.000558955 0)
(0.992569 0.00276255 0)
(0.996319 0.00481527 0)
(0.998871 0.00497156 0)
(0.998303 0.00527232 0)
(0.997786 0.0060575 0)
(0.999294 0.0064898 0)
(1.00082 0.00712931 0)
(1.0009 0.00833263 0)
(0.999865 0.000344143 0)
(1.00475 -0.00164428 0)
(0.997999 -0.0134889 0)
(0.986313 -0.00687036 0)
(0.99053 0.0060518 0)
(1.00595 0.00372888 0)
(1.00713 -0.00678202 0)
(0.998601 -0.0100373 0)
(0.993567 -0.00966234 0)
(0.993578 -0.00619631 0)
(0.992747 -0.00164008 0)
(0.991923 0.000530179 0)
(0.992805 0.00257712 0)
(0.996432 0.00455552 0)
(0.998858 0.00485443 0)
(0.998328 0.00516956 0)
(0.99782 0.00599713 0)
(0.999319 0.0064707 0)
(1.00094 0.00706378 0)
(1.0011 0.00817613 0)
(0.99985 0.000303154 0)
(1.00449 -0.00174628 0)
(0.997977 -0.0128377 0)
(0.987039 -0.00673141 0)
(0.990939 0.00542676 0)
(1.00554 0.00325467 0)
(1.00662 -0.00658348 0)
(0.9985 -0.00966913 0)
(0.993741 -0.0091856 0)
(0.993971 -0.00606417 0)
(0.993093 -0.00175588 0)
(0.992152 0.000500418 0)
(0.99303 0.00240646 0)
(0.996547 0.0043004 0)
(0.998853 0.00474406 0)
(0.998354 0.00507134 0)
(0.99786 0.00591247 0)
(0.999337 0.0064537 0)
(1.00103 0.00698419 0)
(1.00129 0.00799142 0)
(0.999843 0.000264654 0)
(1.00423 -0.00183979 0)
(0.997966 -0.0122036 0)
(0.987744 -0.00659006 0)
(0.991348 0.00481333 0)
(1.00513 0.0027857 0)
(1.00613 -0.00638625 0)
(0.998399 -0.00930103 0)
(0.99391 -0.00872297 0)
(0.994344 -0.00592177 0)
(0.993443 -0.00186713 0)
(0.99238 0.000468436 0)
(0.993245 0.00225502 0)
(0.996667 0.0040471 0)
(0.998854 0.00463703 0)
(0.998378 0.00499317 0)
(0.997907 0.00579956 0)
(0.999354 0.00641555 0)
(1.0011 0.00692456 0)
(1.00147 0.0077788 0)
(0.999839 0.000228956 0)
(1.00397 -0.00192616 0)
(0.997963 -0.0115853 0)
(0.988432 -0.00644659 0)
(0.991752 0.00422391 0)
(1.00472 0.00231885 0)
(1.00565 -0.00620276 0)
(0.998301 -0.00893039 0)
(0.994071 -0.0082804 0)
(0.994695 -0.00577788 0)
(0.993794 -0.00197632 0)
(0.992609 0.000431736 0)
(0.993447 0.0021203 0)
(0.996791 0.00379353 0)
(0.998868 0.00452376 0)
(0.998399 0.00494039 0)
(0.997954 0.00568282 0)
(0.999378 0.00632864 0)
(1.00115 0.0068837 0)
(1.00162 0.00757985 0)
(0.999836 0.000195386 0)
(1.00371 -0.00200519 0)
(0.997966 -0.0109798 0)
(0.989103 -0.00631204 0)
(0.992147 0.00365991 0)
(1.00433 0.00184912 0)
(1.00517 -0.00602924 0)
(0.998206 -0.00855896 0)
(0.994224 -0.00785761 0)
(0.995024 -0.00562764 0)
(0.994144 -0.00207905 0)
(0.99284 0.000397493 0)
(0.993634 0.00200271 0)
(0.996917 0.0035377 0)
(0.998896 0.00439174 0)
(0.998418 0.00490181 0)
(0.997993 0.00558693 0)
(0.999409 0.00619781 0)
(1.00119 0.00682509 0)
(1.00174 0.00742865 0)
(0.999833 0.000164991 0)
(1.00346 -0.00207639 0)
(0.997972 -0.0103882 0)
(0.989757 -0.00618978 0)
(0.992534 0.00311744 0)
(1.00394 0.00139623 0)
(1.00471 -0.00586907 0)
(0.998114 -0.00818927 0)
(0.994365 -0.00744704 0)
(0.995331 -0.00547237 0)
(0.994491 -0.0021812 0)
(0.993073 0.000363906 0)
(0.993805 0.0019108 0)
(0.997042 0.00328783 0)
(0.998944 0.00423147 0)
(0.998441 0.00486143 0)
(0.998019 0.00551652 0)
(0.999439 0.00605059 0)
(1.00123 0.00671436 0)
(1.00182 0.00731695 0)
(0.999829 0.000139296 0)
(1.00322 -0.00214645 0)
(0.99798 -0.00980194 0)
(0.990394 -0.00607134 0)
(0.992911 0.00259799 0)
(1.00356 0.000960083 0)
(1.00426 -0.00573512 0)
(0.998027 -0.00782382 0)
(0.994496 -0.00703946 0)
(0.995614 -0.00530582 0)
(0.994837 -0.00228589 0)
(0.993311 0.000325998 0)
(0.993957 0.0018515 0)
(0.997158 0.00305795 0)
(0.99901 0.00404518 0)
(0.998475 0.00480909 0)
(0.99803 0.00546788 0)
(0.999459 0.00591429 0)
(1.00128 0.00655468 0)
(1.00189 0.00721488 0)
(0.999823 0.000116898 0)
(1.00298 -0.00221467 0)
(0.99799 -0.00921698 0)
(0.99101 -0.00596942 0)
(0.993278 0.00209437 0)
(1.00319 0.000548138 0)
(1.00382 -0.00561892 0)
(0.997945 -0.00746108 0)
(0.994614 -0.00663702 0)
(0.99587 -0.00513921 0)
(0.995179 -0.00239097 0)
(0.993558 0.000274311 0)
(0.994092 0.00181753 0)
(0.997258 0.00285156 0)
(0.99909 0.00383415 0)
(0.998524 0.00473487 0)
(0.998031 0.00543223 0)
(0.999459 0.005797 0)
(1.00133 0.00636401 0)
(1.00194 0.00709021 0)
(0.999816 9.93762e-05 0)
(1.00276 -0.00228149 0)
(0.998002 -0.00863983 0)
(0.991604 -0.00587773 0)
(0.993636 0.00160631 0)
(1.00283 0.000160074 0)
(1.0034 -0.00553024 0)
(0.997871 -0.00711894 0)
(0.994719 -0.00624262 0)
(0.996097 -0.00496087 0)
(0.995518 -0.00248748 0)
(0.993819 0.000208148 0)
(0.994213 0.00180584 0)
(0.997335 0.00267824 0)
(0.999181 0.00360352 0)
(0.998594 0.00463069 0)
(0.998026 0.00540441 0)
(0.999431 0.00569747 0)
(1.00138 0.00615276 0)
(1.002 0.00691418 0)
(0.999808 8.58551e-05 0)
(1.00255 -0.00234907 0)
(0.998015 -0.00806768 0)
(0.992174 -0.00578513 0)
(0.993984 0.0011326 0)
(1.00248 -0.000187166 0)
(1.003 -0.00545995 0)
(0.997808 -0.00680975 0)
(0.994814 -0.00586035 0)
(0.996292 -0.00475501 0)
(0.995847 -0.00258154 0)
(0.994098 0.000117258 0)
(0.994326 0.00180746 0)
(0.997384 0.00254484 0)
(0.999275 0.00336306 0)
(0.998689 0.00448695 0)
(0.99802 0.00538043 0)
(0.99937 0.00562778 0)
(1.0014 0.00594108 0)
(1.00208 0.00667962 0)
(0.999799 7.83122e-05 0)
(1.00235 -0.00242545 0)
(0.99803 -0.00750028 0)
(0.992717 -0.00568693 0)
(0.994325 0.000660226 0)
(1.00214 -0.00048523 0)
(1.00261 -0.00538828 0)
(0.997758 -0.00652381 0)
(0.994902 -0.00548835 0)
(0.996454 -0.00453254 0)
(0.996161 -0.00266208 0)
(0.994398 -2.58049e-06 0)
(0.99444 0.00180731 0)
(0.997402 0.00245465 0)
(0.999363 0.00312857 0)
(0.998812 0.00429574 0)
(0.998025 0.00533829 0)
(0.999274 0.00558998 0)
(1.00139 0.00575185 0)
(1.00217 0.00639376 0)
(0.999789 7.53567e-05 0)
(1.00216 -0.00250116 0)
(0.998048 -0.00696051 0)
(0.99323 -0.00556469 0)
(0.99466 0.00017859 0)
(1.00181 -0.000757129 0)
(1.00224 -0.00531138 0)
(0.997724 -0.00626491 0)
(0.994989 -0.00512537 0)
(0.996585 -0.00429288 0)
(0.996454 -0.00270783 0)
(0.994715 -0.0001414 0)
(0.994563 0.00178701 0)
(0.997389 0.00240169 0)
(0.999431 0.00291938 0)
(0.998961 0.00406273 0)
(0.998054 0.00525458 0)
(0.999151 0.0055673 0)
(1.00133 0.00560474 0)
(1.00226 0.00608278 0)
(0.999779 7.42713e-05 0)
(1.00199 -0.00257187 0)
(0.998071 -0.0064522 0)
(0.993712 -0.00541225 0)
(0.994988 -0.000302293 0)
(1.0015 -0.00101087 0)
(1.00188 -0.00521736 0)
(0.997707 -0.0060453 0)
(0.995079 -0.00478661 0)
(0.996687 -0.00402876 0)
(0.996721 -0.00271976 0)
(0.995045 -0.000291797 0)
(0.994703 0.00173497 0)
(0.997355 0.00236269 0)
(0.999472 0.00274527 0)
(0.999128 0.0038074 0)
(0.998117 0.00512513 0)
(0.999015 0.00554262 0)
(1.0012 0.00550624 0)
(1.00232 0.00579032 0)
(0.999769 7.69104e-05 0)
(1.00184 -0.00263898 0)
(0.998105 -0.00598639 0)
(0.994162 -0.00520694 0)
(0.995308 -0.000777794 0)
(1.00122 -0.00124597 0)
(1.00153 -0.00509182 0)
(0.997698 -0.00585284 0)
(0.995174 -0.00448626 0)
(0.996763 -0.00375382 0)
(0.99696 -0.00270403 0)
(0.995385 -0.000447022 0)
(0.994865 0.00165207 0)
(0.99731 0.00232177 0)
(0.999485 0.00260214 0)
(0.999306 0.0035438 0)
(0.998222 0.00494756 0)
(0.998885 0.00549849 0)
(1.00102 0.00543549 0)
(1.00233 0.00554594 0)
(0.999759 7.92504e-05 0)
(1.0017 -0.00269275 0)
(0.998152 -0.00557337 0)
(0.994577 -0.00494796 0)
(0.995617 -0.00123629 0)
(1.00096 -0.00147037 0)
(1.0012 -0.00490901 0)
(0.997705 -0.00567002 0)
(0.995283 -0.00424468 0)
(0.996822 -0.0034865 0)
(0.997168 -0.00265277 0)
(0.995727 -0.000600769 0)
(0.995048 0.00153209 0)
(0.997257 0.00226982 0)
(0.999464 0.00248103 0)
(0.999481 0.00327858 0)
(0.998367 0.00471439 0)
(0.998771 0.00542165 0)
(1.0008 0.00536968 0)
(1.00226 0.00535705 0)
(0.99975 8.00114e-05 0)
(1.00157 -0.00273224 0)
(0.998214 -0.00521371 0)
(0.994958 -0.00465973 0)
(0.995911 -0.00164279 0)
(1.00075 -0.00170433 0)
(1.00089 -0.00469505 0)
(0.997717 -0.00548692 0)
(0.995411 -0.00405573 0)
(0.996872 -0.003238 0)
(0.997346 -0.00255095 0)
(0.996065 -0.000736645 0)
(0.995252 0.00138356 0)
(0.997208 0.00220342 0)
(0.999413 0.0023798 0)
(0.999643 0.00302745 0)
(0.998556 0.00442971 0)
(0.998693 0.00530252 0)
(1.00056 0.00530514 0)
(1.00212 0.00521671 0)
(0.999743 7.81295e-05 0)
(1.00146 -0.0027512 0)
(0.998296 -0.00491552 0)
(0.995309 -0.00434785 0)
(0.996185 -0.00198803 0)
(1.00057 -0.00196428 0)
(1.0006 -0.00447042 0)
(0.997734 -0.00526805 0)
(0.995555 -0.00390554 0)
(0.996925 -0.00302139 0)
(0.997496 -0.00241997 0)
(0.996391 -0.00084858 0)
(0.995478 0.00121868 0)
(0.997168 0.00212196 0)
(0.999337 0.0022971 0)
(0.999779 0.00280844 0)
(0.998779 0.00411538 0)
(0.998668 0.00512824 0)
(1.00031 0.00523465 0)
(1.00192 0.00510394 0)
(0.999737 6.9579e-05 0)
(1.00136 -0.00274067 0)
(0.998399 -0.00467333 0)
(0.995635 -0.0040286 0)
(0.996433 -0.00225969 0)
(1.00043 -0.00225339 0)
(1.00035 -0.00424937 0)
(0.997749 -0.00499104 0)
(0.995711 -0.00376545 0)
(0.996986 -0.00284665 0)
(0.997622 -0.00228992 0)
(0.996701 -0.000928515 0)
(0.995724 0.00105111 0)
(0.997148 0.00202697 0)
(0.999244 0.00222333 0)
(0.999883 0.00262252 0)
(0.99902 0.00379759 0)
(0.998701 0.0048978 0)
(1.00008 0.00514128 0)
(1.00168 0.00499895 0)
(0.999734 5.28144e-05 0)
(1.00126 -0.00269876 0)
(0.998523 -0.00448109 0)
(0.995942 -0.00372346 0)
(0.996649 -0.00244436 0)
(1.00033 -0.00253636 0)
(1.00015 -0.00406446 0)
(0.997767 -0.00467209 0)
(0.995868 -0.00360615 0)
(0.997056 -0.00271161 0)
(0.997735 -0.00216097 0)
(0.996998 -0.000976647 0)
(0.99599 0.000895471 0)
(0.997151 0.00192885 0)
(0.999142 0.00215451 0)
(0.999954 0.00245955 0)
(0.999266 0.00348976 0)
(0.998794 0.00462317 0)
(0.999884 0.00501441 0)
(1.00143 0.00488884 0)
(0.999734 2.66682e-05 0)
(1.00117 -0.00262623 0)
(0.998664 -0.00433616 0)
(0.996238 -0.00344924 0)
(0.996834 -0.0025352 0)
(1.00025 -0.00279468 0)
(0.999996 -0.00393436 0)
(0.997795 -0.00433018 0)
(0.99602 -0.00341914 0)
(0.997136 -0.00259748 0)
(0.99784 -0.00204696 0)
(0.997278 -0.0010103 0)
(0.996272 0.000741268 0)
(0.997181 0.00182817 0)
(0.999035 0.00209781 0)
(0.999992 0.00232301 0)
(0.999505 0.0031999 0)
(0.998941 0.00431788 0)
(0.999736 0.00485432 0)
(1.00117 0.00476678 0)
(0.999736 -8.10408e-06 0)
(1.00109 -0.00251985 0)
(0.998821 -0.00423085 0)
(0.996531 -0.00322419 0)
(0.996987 -0.00252816 0)
(1.0002 -0.00300867 0)
(0.999904 -0.00387211 0)
(0.997843 -0.00399473 0)
(0.996161 -0.00318763 0)
(0.997218 -0.00247799 0)
(0.997944 -0.00195432 0)
(0.997546 -0.00102674 0)
(0.99657 0.000587426 0)
(0.997247 0.00171077 0)
(0.998934 0.00204519 0)
(0.999997 0.00221535 0)
(0.999726 0.00293529 0)
(0.999137 0.00398663 0)
(0.999646 0.00465734 0)
(1.00092 0.00463539 0)
(0.999741 -5.36621e-05 0)
(1.001 -0.00238233 0)
(0.998984 -0.00413999 0)
(0.996832 -0.00306286 0)
(0.997114 -0.00244695 0)
(1.00014 -0.00314972 0)
(0.999867 -0.00386731 0)
(0.997927 -0.00369879 0)
(0.996296 -0.00291617 0)
(0.997295 -0.00234306 0)
(0.998045 -0.00187216 0)
(0.997801 -0.00103887 0)
(0.996875 0.000445717 0)
(0.99735 0.00158066 0)
(0.998851 0.00199146 0)
(0.999974 0.00213831 0)
(0.999914 0.00271697 0)
(0.999369 0.00364737 0)
(0.999627 0.00441446 0)
(1.0007 0.00449234 0)
(0.999749 -0.000106794 0)
(1.00091 -0.00222819 0)
(0.999147 -0.00405015 0)
(0.997142 -0.00296295 0)
(0.997224 -0.00232305 0)
(1.00007 -0.00319506 0)
(0.999874 -0.00390558 0)
(0.998056 -0.00347615 0)
(0.996429 -0.00262722 0)
(0.997359 -0.0021776 0)
(0.99814 -0.00178462 0)
(0.998048 -0.00105554 0)
(0.997191 0.000308792 0)
(0.99749 0.00144072 0)
(0.998794 0.00192354 0)
(0.999936 0.00207197 0)
(1.00006 0.00254862 0)
(0.99961 0.00333175 0)
(0.99968 0.00413123 0)
(1.00051 0.00432645 0)
(0.999759 -0.000166979 0)
(1.00081 -0.00205913 0)
(0.999301 -0.00395215 0)
(0.997465 -0.00291599 0)
(0.997329 -0.00218718 0)
(0.999978 -0.00311954 0)
(0.999905 -0.00393082 0)
(0.998241 -0.00336183 0)
(0.996577 -0.00236184 0)
(0.997407 -0.00197205 0)
(0.998217 -0.00167819 0)
(0.998278 -0.00105677 0)
(0.99751 0.000173086 0)
(0.997664 0.00129282 0)
(0.998768 0.00184411 0)
(0.999895 0.00200085 0)
(1.00017 0.0024112 0)
(0.999839 0.00306144 0)
(0.999791 0.00383278 0)
(1.0004 0.00412443 0)
(0.999772 -0.000229581 0)
(1.00072 -0.00188768 0)
(0.999439 -0.00382564 0)
(0.997798 -0.002907 0)
(0.997445 -0.00206651 0)
(0.999867 -0.00295816 0)
(0.99993 -0.00388456 0)
(0.998469 -0.00333428 0)
(0.99676 -0.00216178 0)
(0.997446 -0.00174857 0)
(0.998274 -0.00155304 0)
(0.998486 -0.00104387 0)
(0.997827 4.57648e-05 0)
(0.997872 0.00112958 0)
(0.998772 0.00175809 0)
(0.999855 0.00193306 0)
(1.00025 0.00228987 0)
(1.00005 0.00283496 0)
(0.999932 0.00355104 0)
(1.00034 0.0038931 0)
(0.999785 -0.000287702 0)
(1.00062 -0.00172676 0)
(0.999553 -0.00366359 0)
(0.998134 -0.00292426 0)
(0.997578 -0.00197578 0)
(0.999744 -0.00276139 0)
(0.999933 -0.0037572 0)
(0.998723 -0.00334605 0)
(0.996988 -0.002053 0)
(0.997487 -0.00153218 0)
(0.998304 -0.00139335 0)
(0.998663 -0.00101138 0)
(0.99813 -5.09027e-05 0)
(0.998109 0.000951353 0)
(0.998816 0.00164539 0)
(0.99982 0.00186386 0)
(1.00031 0.00217532 0)
(1.00023 0.00262469 0)
(1.00009 0.00328646 0)
(1.00034 0.00364696 0)
(0.999799 -0.000339167 0)
(1.00053 -0.00157725 0)
(0.99964 -0.00346047 0)
(0.998465 -0.00295383 0)
(0.997734 -0.00193378 0)
(0.999621 -0.0025556 0)
(0.999902 -0.00354867 0)
(0.998975 -0.00333627 0)
(0.997265 -0.0020352 0)
(0.997555 -0.00135765 0)
(0.998311 -0.00121334 0)
(0.998807 -0.000954789 0)
(0.998407 -0.00012485 0)
(0.998356 0.000784322 0)
(0.9989 0.00150689 0)
(0.999799 0.00178313 0)
(1.00034 0.00207704 0)
(1.00039 0.00242983 0)
(1.00025 0.00303297 0)
(1.00037 0.00340554 0)
(0.999812 -0.000379799 0)
(1.00045 -0.0014504 0)
(0.999697 -0.00321079 0)
(0.998777 -0.0029697 0)
(0.997914 -0.00194036 0)
(0.999513 -0.00236234 0)
(0.999843 -0.00329231 0)
(0.999198 -0.00326729 0)
(0.997573 -0.00206962 0)
(0.997662 -0.00124618 0)
(0.998304 -0.00103315 0)
(0.998907 -0.000866571 0)
(0.998653 -0.000180623 0)
(0.998604 0.000638404 0)
(0.999014 0.00135697 0)
(0.999805 0.00167503 0)
(1.00035 0.00198587 0)
(1.00051 0.00226418 0)
(1.00041 0.00279086 0)
(1.00042 0.00317712 0)
(0.999823 -0.000407588 0)
(1.00037 -0.0013475 0)
(0.999727 -0.00293622 0)
(0.999057 -0.00295033 0)
(0.998114 -0.00198659 0)
(0.999428 -0.00219304 0)
(0.999759 -0.00302187 0)
(0.999379 -0.0031384 0)
(0.997893 -0.00211032 0)
(0.997815 -0.00120727 0)
(0.998304 -0.000877276 0)
(0.998968 -0.000753071 0)
(0.998858 -0.000201961 0)
(0.998841 0.000509024 0)
(0.999144 0.00121431 0)
(0.999835 0.00155016 0)
(1.00036 0.00188082 0)
(1.00059 0.00212722 0)
(1.00057 0.00256163 0)
(1.00049 0.00294822 0)
(0.999832 -0.000420449 0)
(1.00032 -0.00126789 0)
(0.999735 -0.00267099 0)
(0.999297 -0.00288233 0)
(0.998327 -0.00204826 0)
(0.999377 -0.00206186 0)
(0.999665 -0.00274796 0)
(0.999514 -0.00295363 0)
(0.998197 -0.00212169 0)
(0.998007 -0.00121883 0)
(0.998326 -0.000765515 0)
(0.999 -0.000639013 0)
(0.999014 -0.000189243 0)
(0.99906 0.000400613 0)
(0.999285 0.00107741 0)
(0.999879 0.0014299 0)
(1.00038 0.00175746 0)
(1.00064 0.00200261 0)
(1.00069 0.00235733 0)
(1.00058 0.00271173 0)
(0.99984 -0.000422855 0)
(1.00027 -0.00120678 0)
(0.999732 -0.00242198 0)
(0.999496 -0.00276285 0)
(0.998542 -0.00209708 0)
(0.999361 -0.00197127 0)
(0.999573 -0.00249044 0)
(0.999604 -0.00273735 0)
(0.998472 -0.00209362 0)
(0.998225 -0.00124749 0)
(0.998379 -0.00069743 0)
(0.99902 -0.000536839 0)
(0.999128 -0.000153641 0)
(0.999246 0.00032946 0)
(0.999432 0.000942957 0)
(0.999933 0.00131329 0)
(1.0004 0.00163136 0)
(1.00068 0.00187048 0)
(1.00078 0.0021848 0)
(1.00068 0.00247492 0)