/*--------------------------------*- C++ -*----------------------------------*\
| =========                 |                                                 |
| \\      /  F ield         | OpenFOAM: The Open Source CFD Toolbox           |
|  \\    /   O peration     | Version:  v1812                                 |
|   \\  /    A nd           | Web:      www.OpenFOAM.com                      |
|    \\/     M anipulation  |                                                 |
\*---------------------------------------------------------------------------*/
FoamFile
{
    version     2.0;
    format      ascii;
    class       volScalarField;
    location    "7.1";
    object      p;
}
// * * * * * * * * * * * * * * * * * * * * * * * * * * * * * * * * * * * * * //

dimensions      [0 2 -2 0 0 0 0];


internalField   nonuniform List<scalar> 
9600
(
2.50165e-10
-0.00440266
-0.00301632
-0.00264008
-0.00123959
0.00413924
-0.00470765
-0.00783458
-0.0067245
-0.00443349
-0.00425613
-0.00487106
-0.00432012
-0.00358852
-0.00347635
-0.00319665
-0.000702568
0.000867759
0.00532017
0.0151488
6.04786e-06
-0.00440778
-0.00303547
-0.00263019
-0.00122592
0.00409189
-0.00467489
-0.00782556
-0.00671939
-0.00440802
-0.00428512
-0.00487371
-0.00431983
-0.00359704
-0.00347229
-0.00321888
-0.000698867
0.000775812
0.00532302
0.0138887
1.38949e-05
-0.00441484
-0.00305315
-0.00261575
-0.00122056
0.00402896
-0.00461723
-0.00781254
-0.00670418
-0.00436918
-0.00432536
-0.00487078
-0.00432114
-0.0036133
-0.0034704
-0.0032541
-0.000705889
0.00068179
0.00528213
0.0127386
1.73158e-05
-0.00442221
-0.00306858
-0.00260587
-0.00122733
0.00394197
-0.00456174
-0.00779103
-0.00667993
-0.00433189
-0.00437147
-0.00487191
-0.00432569
-0.00363567
-0.00347352
-0.00329336
-0.000723008
0.000599511
0.00519219
0.0116761
1.56406e-05
-0.00442997
-0.00308432
-0.00260052
-0.0012429
0.0038273
-0.00450537
-0.00775867
-0.00664757
-0.0043016
-0.00442852
-0.00488208
-0.00433289
-0.00366296
-0.00347942
-0.00333725
-0.000740814
0.000505436
0.00506177
0.0106772
9.5611e-06
-0.00443838
-0.00310085
-0.00259814
-0.00126594
0.00368439
-0.0044436
-0.00771867
-0.00661083
-0.00428259
-0.00449737
-0.0048995
-0.00434207
-0.00369269
-0.0034874
-0.00338367
-0.000761022
0.000397948
0.00489578
0.00973569
-4.42862e-07
-0.00444767
-0.00311846
-0.00259796
-0.00129613
0.00351726
-0.00437557
-0.00767689
-0.00657514
-0.00427422
-0.00457386
-0.00492089
-0.00435243
-0.00372311
-0.00349669
-0.00343169
-0.000786956
0.000283209
0.00469031
0.00884226
-1.39188e-05
-0.00445786
-0.00313706
-0.00259957
-0.00133304
0.00333152
-0.00430349
-0.00763776
-0.0065431
-0.00427202
-0.00465384
-0.00494471
-0.004363
-0.00375472
-0.00350754
-0.00348266
-0.000819805
0.000164068
0.00444112
0.00799527
-3.02392e-05
-0.0044688
-0.00315633
-0.00260272
-0.00137611
0.00313196
-0.00422993
-0.00760214
-0.00651447
-0.00427185
-0.00473566
-0.00497063
-0.00437343
-0.00378944
-0.00352105
-0.00353744
-0.000861012
4.29876e-05
0.00414774
0.00719257
-4.87215e-05
-0.00448037
-0.00317597
-0.00260748
-0.00142476
0.00292224
-0.00415624
-0.00756889
-0.00648827
-0.00427171
-0.00481894
-0.00499904
-0.00438413
-0.00382868
-0.003538
-0.00359567
-0.000912658
-7.77377e-05
0.00381185
0.00642982
-6.87891e-05
-0.00449245
-0.00319586
-0.00261413
-0.00147836
0.00270509
-0.00408279
-0.00753671
-0.00646403
-0.00427099
-0.00490355
-0.00503082
-0.00439527
-0.00387279
-0.00355888
-0.00365623
-0.000977122
-0.000197053
0.00343599
0.0057009
-9.00298e-05
-0.00450504
-0.00321619
-0.00262295
-0.00153622
0.00248233
-0.00400964
-0.00750471
-0.00644186
-0.00426955
-0.00498948
-0.00506667
-0.00440674
-0.00392168
-0.00358408
-0.00371797
-0.00105679
-0.000315543
0.00302375
0.0049988
-0.000112183
-0.0045182
-0.00323728
-0.00263405
-0.00159759
0.00225496
-0.00393695
-0.00747233
-0.00642225
-0.0042674
-0.00507666
-0.00510696
-0.00441882
-0.00397479
-0.00361407
-0.00378045
-0.00115365
-0.000435431
0.0025808
0.00431694
-0.000135114
-0.00453202
-0.00325948
-0.00264741
-0.0016618
0.00202357
-0.00386512
-0.00743928
-0.00640584
-0.00426448
-0.00516485
-0.00515204
-0.00443189
-0.0040313
-0.00364983
-0.00384359
-0.00126897
-0.000560002
0.00211363
0.00364935
-0.000158789
-0.00454658
-0.00328311
-0.0026629
-0.0017283
0.00178858
-0.00379482
-0.00740547
-0.00639316
-0.00426054
-0.00525388
-0.00520219
-0.00444613
-0.00409072
-0.00369248
-0.00390818
-0.00140299
-0.000692078
0.00162776
0.00299081
-0.000183266
-0.00456196
-0.00330845
-0.00268042
-0.0017968
0.00155037
-0.00372683
-0.00737082
-0.0063847
-0.00425535
-0.00534357
-0.00525754
-0.0044618
-0.00415285
-0.00374259
-0.00397586
-0.00155544
-0.000834082
0.00112814
0.00233785
-0.000208667
-0.00457823
-0.00333578
-0.00269988
-0.00186723
0.00130933
-0.00366195
-0.00733511
-0.00638097
-0.00424869
-0.00543362
-0.0053184
-0.00447919
-0.00421771
-0.00380023
-0.00404827
-0.00172651
-0.000987793
0.000619662
0.00168822
-0.000235159
-0.00459545
-0.00336538
-0.0027212
-0.00193967
0.00106585
-0.00360095
-0.00729807
-0.00638243
-0.00424036
-0.00552372
-0.00538524
-0.00449839
-0.00428594
-0.00386466
-0.00412656
-0.00191691
-0.00115356
0.000106684
0.00103899
-0.000262926
-0.00461362
-0.00339757
-0.00274429
-0.00201425
0.000820359
-0.00354467
-0.00725935
-0.00638951
-0.00423033
-0.00561355
-0.00545864
-0.00451936
-0.00435819
-0.00393547
-0.00421165
-0.00212706
-0.00133137
-0.000406865
0.000386341
-0.000292163
-0.00463265
-0.00343267
-0.00276905
-0.00209112
0.000573461
-0.00349395
-0.0072187
-0.00640261
-0.0042188
-0.00570255
-0.00553943
-0.00454161
-0.00443511
-0.00401349
-0.00430329
-0.0023576
-0.00152182
-0.000915885
-0.000273801
-0.000323088
-0.00465237
-0.00347104
-0.00279535
-0.00217047
0.000325851
-0.00344968
-0.00717596
-0.00642211
-0.00420625
-0.00578987
-0.00562871
-0.00456447
-0.00451773
-0.00410002
-0.00439946
-0.00261044
-0.00172724
-0.00141308
-0.00094371
-0.000355947
-0.00467254
-0.00351304
-0.00282312
-0.00225249
7.82548e-05
-0.00341267
-0.00713111
-0.0064483
-0.00419342
-0.00587429
-0.00572771
-0.00458758
-0.0046064
-0.00419716
-0.00449778
-0.00288655
-0.0019517
-0.00188998
-0.00162225
-0.000391028
-0.00469286
-0.00355909
-0.00285228
-0.00233745
-0.000168605
-0.00338366
-0.00708422
-0.00648142
-0.00418149
-0.00595421
-0.00583768
-0.00461103
-0.00470055
-0.00430818
-0.00459584
-0.00318457
-0.00220137
-0.00233906
-0.00230375
-0.000428656
-0.00471299
-0.00360962
-0.00288278
-0.00242561
-0.00041413
-0.00336334
-0.00703538
-0.00652157
-0.00417182
-0.00602784
-0.0059601
-0.00463537
-0.00479868
-0.00443662
-0.00469182
-0.00350078
-0.00248443
-0.00275648
-0.00297746
-0.000469204
-0.00473252
-0.0036651
-0.0029146
-0.00251718
-0.000657856
-0.00335227
-0.00698488
-0.00656847
-0.00416581
-0.00609367
-0.0060963
-0.00466149
-0.00489836
-0.00458669
-0.00478579
-0.00382785
-0.00280849
-0.00314459
-0.00362849
-0.000513088
-0.00475104
-0.00372602
-0.00294767
-0.0026124
-0.000899363
-0.00335084
-0.00693327
-0.00662143
-0.00416551
-0.00615026
-0.00624665
-0.0046913
-0.00499662
-0.00476214
-0.0048804
-0.00415616
-0.00317831
-0.0035124
-0.00423917
-0.000560772
-0.0047681
-0.0037929
-0.00298204
-0.00271143
-0.00113835
-0.00335918
-0.00688129
-0.00667959
-0.00417313
-0.00619634
-0.00641095
-0.00472807
-0.00508998
-0.00496517
-0.0049811
-0.00447519
-0.00359347
-0.00387517
-0.00479287
-0.000612777
-0.00478317
-0.00386621
-0.00301779
-0.00281432
-0.00137479
-0.00337711
-0.00682978
-0.00674215
-0.00419069
-0.00623116
-0.0065885
-0.00477582
-0.00517448
-0.005196
-0.00509627
-0.00477456
-0.00404721
-0.00425358
-0.00528163
-0.000669642
-0.00479573
-0.00394649
-0.00305501
-0.00292087
-0.00160896
-0.00340422
-0.00677982
-0.0068083
-0.00421985
-0.00625465
-0.00677784
-0.00483911
-0.00524653
-0.00545208
-0.00523665
-0.0050472
-0.00452631
-0.00466884
-0.00571282
-0.00073198
-0.00480524
-0.00403411
-0.00309396
-0.00303075
-0.00184112
-0.00343982
-0.00673294
-0.00687741
-0.00426182
-0.00626722
-0.0069767
-0.00492273
-0.00530416
-0.00572899
-0.00541325
-0.00529126
-0.00501224
-0.00513462
-0.00610678
-0.000800473
-0.00481111
-0.00412943
-0.0031351
-0.00314336
-0.00206894
-0.00348303
-0.00669029
-0.00694943
-0.00431801
-0.00626953
-0.0071821
-0.00503168
-0.00534725
-0.00602037
-0.00563535
-0.0055102
-0.00548355
-0.00565165
-0.00649511
-0.000875814
-0.00481279
-0.00423269
-0.00317909
-0.00325784
-0.00230108
-0.00353274
-0.00665209
-0.00702476
-0.00438966
-0.00626275
-0.00739116
-0.00517045
-0.0053769
-0.00631782
-0.00590952
-0.00571285
-0.00592008
-0.00620749
-0.00691365
-0.000958749
-0.00480975
-0.00434394
-0.00322682
-0.00337307
-0.00253505
-0.00358774
-0.00661832
-0.00710435
-0.00447717
-0.00624856
-0.00760133
-0.00534293
-0.00539612
-0.00661082
-0.00623887
-0.00591397
-0.00630759
-0.00678102
-0.007388
-0.00105003
-0.00480155
-0.00446306
-0.00327924
-0.00348758
-0.00277224
-0.00364755
-0.00658883
-0.00718925
-0.00458072
-0.00622845
-0.00780951
-0.00555308
-0.00541057
-0.00688747
-0.00662268
-0.00613196
-0.00664029
-0.00734543
-0.00792286
-0.00115041
-0.00478788
-0.00458957
-0.00333781
-0.00359953
-0.00301394
-0.0037128
-0.00656237
-0.00728049
-0.00470135
-0.00620356
-0.00801198
-0.0058042
-0.00542824
-0.00713575
-0.00705547
-0.00638588
-0.00692144
-0.00787385
-0.00850234
-0.00126064
-0.00476856
-0.00472263
-0.00340448
-0.00370667
-0.00326095
-0.0037851
-0.00653707
-0.00737912
-0.00484079
-0.00617559
-0.00820464
-0.00609738
-0.00545895
-0.00734498
-0.00752698
-0.0066933
-0.00716159
-0.00834643
-0.00910087
-0.00138137
-0.00474365
-0.00486102
-0.00348131
-0.00380667
-0.00351336
-0.00386687
-0.00651093
-0.00748553
-0.00500139
-0.00614714
-0.00838286
-0.00643119
-0.00551476
-0.00750776
-0.00802207
-0.00706831
-0.00737657
-0.00875221
-0.0096926
-0.00151319
-0.00471346
-0.00500296
-0.00357074
-0.00389773
-0.00377038
-0.00396167
-0.0064816
-0.00759829
-0.00518638
-0.00612179
-0.00854136
-0.00680233
-0.00560951
-0.00762163
-0.00851995
-0.00752008
-0.00758846
-0.00908437
-0.0102554
-0.00165664
-0.0046787
-0.00514594
-0.00367556
-0.00397919
-0.00402973
-0.00407376
-0.00644769
-0.00771474
-0.0053991
-0.00610437
-0.00867469
-0.00720497
-0.00575704
-0.00769177
-0.00899549
-0.00804938
-0.00782713
-0.00934018
-0.0107677
-0.0018121
-0.00464055
-0.00528681
-0.00379833
-0.00405144
-0.00428759
-0.00420765
-0.00640977
-0.00783102
-0.00564206
-0.00610125
-0.00877775
-0.00763004
-0.00596996
-0.0077316
-0.00942217
-0.00864278
-0.00812742
-0.00953078
-0.0112035
-0.00197974
-0.00460069
-0.00542213
-0.0039409
-0.00411598
-0.00453938
-0.00436794
-0.00637059
-0.00794115
-0.0059155
-0.00612018
-0.00884718
-0.00806602
-0.00625744
-0.00776014
-0.00977809
-0.0092742
-0.00851749
-0.00968589
-0.011539
-0.00215948
-0.00456129
-0.00554821
-0.00410466
-0.00417574
-0.00477964
-0.00455833
-0.0063348
-0.00803784
-0.00621671
-0.00617082
-0.0088831
-0.00849963
-0.00662259
-0.00780015
-0.0100529
-0.00991106
-0.00900503
-0.00984936
-0.0117695
-0.00235101
-0.00452493
-0.00566148
-0.00429012
-0.00423516
-0.00500233
-0.00477991
-0.00630968
-0.00811482
-0.00654032
-0.00626367
-0.00889058
-0.00891673
-0.00706097
-0.00787558
-0.0102483
-0.0105194
-0.00957679
-0.010066
-0.0119201
-0.00255382
-0.00449446
-0.00575877
-0.00449677
-0.00430005
-0.00520177
-0.00503051
-0.00630576
-0.00816822
-0.00687771
-0.00640758
-0.00887986
-0.0093028
-0.00756028
-0.00800948
-0.0103772
-0.0110689
-0.0102074
-0.0103639
-0.0120317
-0.00276705
-0.0044729
-0.00583781
-0.00472287
-0.00437716
-0.0053737
-0.00530593
-0.00633521
-0.00819928
-0.00721698
-0.00660697
-0.00886497
-0.00964515
-0.00810153
-0.00821974
-0.0104621
-0.0115369
-0.0108669
-0.0107511
-0.0121492
-0.00298953
-0.00446327
-0.00589753
-0.004965
-0.00447422
-0.00551685
-0.00559781
-0.00640877
-0.00821371
-0.00754474
-0.00685978
-0.00886223
-0.009937
-0.00866158
-0.00851333
-0.0105332
-0.0119138
-0.0115227
-0.0112217
-0.0123075
-0.0032198
-0.00446852
-0.00593786
-0.00521815
-0.00459931
-0.0056332
-0.00589278
-0.00653162
-0.00822154
-0.00785111
-0.00715879
-0.00888719
-0.010179
-0.0092178
-0.00888487
-0.0106225
-0.0122061
-0.0121411
-0.0117599
-0.0125263
-0.00345594
-0.00449135
-0.00596055
-0.00547621
-0.00475862
-0.00572837
-0.00617693
-0.00670187
-0.00823755
-0.00813241
-0.00749213
-0.0089512
-0.0103787
-0.00975158
-0.00932072
-0.010756
-0.0124329
-0.0126953
-0.0123413
-0.0128173
-0.00369565
-0.00453417
-0.00596944
-0.00573184
-0.00495535
-0.00581316
-0.00644046
-0.00691265
-0.00827604
-0.0083891
-0.0078464
-0.0090608
-0.0105486
-0.0102494
-0.00980213
-0.0109479
-0.0126201
-0.0131731
-0.0129356
-0.013184
-0.00393651
-0.00459899
-0.00596988
-0.00597705
-0.00518939
-0.00590196
-0.00667773
-0.00715213
-0.00834658
-0.00862525
-0.00820989
-0.00921765
-0.0107028
-0.0107033
-0.0103095
-0.0112028
-0.0127954
-0.0135773
-0.0135104
-0.0136166
-0.00417629
-0.00468717
-0.00596855
-0.00620482
-0.00545761
-0.00600948
-0.00688878
-0.00740704
-0.00845245
-0.00884707
-0.00857344
-0.00941884
-0.010855
-0.011112
-0.0108241
-0.0115169
-0.0129821
-0.0139223
-0.0140414
-0.014091
-0.00441312
-0.00479919
-0.00597278
-0.00641053
-0.00575338
-0.00614706
-0.00707688
-0.0076659
-0.00859277
-0.00906175
-0.00893108
-0.00965807
-0.0110165
-0.0114804
-0.0113297
-0.0118778
-0.0131946
-0.0142268
-0.0145201
-0.0145781
-0.00464586
-0.00493393
-0.00598991
-0.00659314
-0.00606674
-0.00632186
-0.00725132
-0.00792049
-0.00876291
-0.00927544
-0.00927892
-0.00992718
-0.0111955
-0.0118177
-0.0118163
-0.0122711
-0.0134366
-0.0145081
-0.0149505
-0.0150548
-0.00487385
-0.0050893
-0.00602551
-0.00675326
-0.00638637
-0.00653646
-0.00742658
-0.00816806
-0.00895667
-0.00949251
-0.00961433
-0.0102177
-0.0113966
-0.0121321
-0.0122784
-0.0126843
-0.0137067
-0.014776
-0.0153395
-0.015509
-0.00509685
-0.00526278
-0.00608357
-0.00689484
-0.00670268
-0.00678905
-0.00761385
-0.00840829
-0.0091688
-0.00971579
-0.00993691
-0.0105218
-0.0116219
-0.0124321
-0.0127136
-0.0131077
-0.0140048
-0.0150373
-0.0156917
-0.015935
-0.00531515
-0.00545073
-0.00616687
-0.00702535
-0.00701093
-0.00707361
-0.00781802
-0.00864286
-0.00939426
-0.00994687
-0.0102476
-0.0108323
-0.0118684
-0.0127268
-0.0131248
-0.0135315
-0.0143289
-0.0153005
-0.016011
-0.0163285
-0.00552905
-0.00564879
-0.00627678
-0.00715637
-0.00730925
-0.00737976
-0.00804156
-0.00887514
-0.00962966
-0.0101876
-0.0105491
-0.0111433
-0.0121301
-0.0130214
-0.0135182
-0.0139481
-0.0146701
-0.0155734
-0.0163056
-0.0166879
-0.00574
-0.00585209
-0.00641349
-0.00729707
-0.00759612
-0.00769626
-0.00828236
-0.00910762
-0.0098735
-0.010441
-0.0108467
-0.0114514
-0.0124014
-0.0133148
-0.0138979
-0.014358
-0.0150206
-0.0158593
-0.0165885
-0.0170154
-0.00595156
-0.00606596
-0.00657271
-0.00744561
-0.00787096
-0.00801833
-0.00853868
-0.00934156
-0.0101237
-0.0107079
-0.0111455
-0.0117555
-0.0126771
-0.0136041
-0.0142619
-0.0147633
-0.0153798
-0.0161551
-0.0168677
-0.0173172
-0.00616504
-0.00628722
-0.00675376
-0.00760277
-0.00813281
-0.00834136
-0.00880989
-0.00957922
-0.0103781
-0.010988
-0.011451
-0.012059
-0.0129539
-0.0138898
-0.0146075
-0.0151589
-0.0157492
-0.0164593
-0.017145
-0.0176027
-0.00638177
-0.00651564
-0.00695262
-0.00776915
-0.00838341
-0.0086635
-0.00909736
-0.00982439
-0.0106349
-0.0112777
-0.0117653
-0.0123647
-0.0132282
-0.0141684
-0.0149361
-0.0155369
-0.0161243
-0.016776
-0.0174221
-0.0178795
-0.00660292
-0.0067494
-0.00716682
-0.00794768
-0.00862648
-0.00898335
-0.00939894
-0.0100785
-0.0108892
-0.0115686
-0.0120871
-0.0126769
-0.0135018
-0.014435
-0.0152479
-0.0158948
-0.0164941
-0.0171075
-0.0177047
-0.0181516
-0.00682912
-0.0069886
-0.00739465
-0.00814036
-0.00886406
-0.00929678
-0.00970981
-0.0103431
-0.0111415
-0.0118549
-0.0124123
-0.0129989
-0.0137815
-0.0146916
-0.0155381
-0.0162314
-0.0168486
-0.017446
-0.0179983
-0.0184225
-0.00706077
-0.00723137
-0.0076343
-0.00834725
-0.00909813
-0.00960201
-0.0100278
-0.0106201
-0.0113955
-0.0121329
-0.0127331
-0.0133269
-0.0140717
-0.0149474
-0.0158059
-0.0165417
-0.0171811
-0.017775
-0.0182965
-0.0186899
-0.00729828
-0.00747859
-0.00788263
-0.00856836
-0.00933218
-0.00989821
-0.0103487
-0.0109085
-0.0116526
-0.0124011
-0.0130422
-0.0136524
-0.0143693
-0.0152082
-0.0160618
-0.0168283
-0.017493
-0.0180894
-0.018593
-0.0189528
-0.00754168
-0.00772862
-0.00813883
-0.00880344
-0.00956873
-0.0101845
-0.0106673
-0.0112067
-0.0119151
-0.0126626
-0.0133378
-0.0139685
-0.0146641
-0.0154673
-0.0163078
-0.017092
-0.0177827
-0.0183897
-0.0188884
-0.0192223
-0.00779129
-0.00798382
-0.00839923
-0.00904983
-0.00981
-0.0104627
-0.0109799
-0.0115103
-0.0121839
-0.0129194
-0.0136196
-0.0142735
-0.0149559
-0.015721
-0.0165402
-0.0173304
-0.0180395
-0.018664
-0.0191713
-0.0194978
-0.00804614
-0.00824128
-0.00866324
-0.00930592
-0.0100579
-0.010735
-0.0112847
-0.0118153
-0.0124575
-0.0131719
-0.0138844
-0.0145595
-0.0152403
-0.0159725
-0.0167601
-0.0175477
-0.0182639
-0.0189006
-0.0194235
-0.0197577
-0.00830641
-0.00850267
-0.00892923
-0.00956891
-0.0103129
-0.0110031
-0.0115796
-0.0121172
-0.0127334
-0.0134214
-0.0141341
-0.0148191
-0.0155028
-0.0162157
-0.0169658
-0.0177408
-0.0184618
-0.0191022
-0.0196384
-0.0199886
-0.00857138
-0.00877066
-0.00919635
-0.0098355
-0.0105734
-0.01127
-0.0118666
-0.0124122
-0.0130084
-0.0136691
-0.0143722
-0.0150546
-0.015733
-0.0164357
-0.0171539
-0.0179011
-0.0186227
-0.0192647
-0.0198092
-0.0201783
-0.0088386
-0.00903676
-0.00946531
-0.0101046
-0.0108373
-0.0115356
-0.0121474
-0.0127011
-0.0132812
-0.0139146
-0.0145973
-0.0152684
-0.0159304
-0.0166178
-0.0173149
-0.0180272
-0.0187377
-0.019381
-0.0199258
-0.0203082
-0.00910865
-0.00930836
-0.00973511
-0.0103718
-0.0111012
-0.0117982
-0.0124191
-0.0129824
-0.0135526
-0.0141589
-0.0148102
-0.0154558
-0.0160922
-0.0167521
-0.0174298
-0.0181099
-0.0188015
-0.0194463
-0.0199897
-0.0203764
-0.00938135
-0.00958265
-0.0100061
-0.0106378
-0.0113636
-0.0120575
-0.0126824
-0.0132541
-0.0138247
-0.0144065
-0.0150152
-0.0156141
-0.0162024
-0.0168136
-0.0174612
-0.0181191
-0.0187921
-0.0194457
-0.0200034
-0.020411
-0.0096524
-0.00985419
-0.0102774
-0.0109039
-0.0116244
-0.0123124
-0.0129397
-0.0135201
-0.0141009
-0.0146777
-0.0152345
-0.0157517
-0.0162503
-0.0167566
-0.0173076
-0.0178979
-0.0185242
-0.0191823
-0.0198254
-0.0203775
-0.00991977
-0.0101231
-0.0105459
-0.0111645
-0.0118774
-0.0125631
-0.0131977
-0.0137802
-0.0143772
-0.0150126
-0.0156025
-0.0160567
-0.0164323
-0.0168087
-0.0172272
-0.0176438
-0.0180017
-0.0182823
-0.0184934
-0.0187025
-0.010203
-0.0103834
-0.0107841
-0.0113738
-0.0120738
-0.0127881
-0.0134613
-0.0140304
-0.0145135
-0.0149877
-0.0154749
-0.0159497
-0.0164102
-0.0168473
-0.017252
-0.0176086
-0.0179204
-0.0182247
-0.0185582
-0.0189616
-0.010526
-0.0107419
-0.0110628
-0.0115603
-0.0121929
-0.0128392
-0.0134492
-0.0139967
-0.01454
-0.0150933
-0.0156399
-0.0161757
-0.0166797
-0.0171247
-0.0175182
-0.0178408
-0.0180816
-0.0182547
-0.0184101
-0.0186292
-0.0107116
-0.0108511
-0.0111843
-0.011694
-0.0123007
-0.0129161
-0.0135164
-0.014081
-0.0146491
-0.0152233
-0.0157613
-0.0162399
-0.0166871
-0.0171045
-0.0175469
-0.0180561
-0.0186578
-0.019351
-0.0200889
-0.0207881
-0.0109804
-0.0111564
-0.0114112
-0.0118248
-0.0123698
-0.0129611
-0.0135622
-0.014149
-0.0147424
-0.0153271
-0.0158877
-0.0163881
-0.0168412
-0.0172458
-0.0175813
-0.0178545
-0.018062
-0.0182305
-0.0184165
-0.0187066
-0.0111585
-0.0113112
-0.0115315
-0.0119053
-0.012415
-0.01299
-0.0135939
-0.0141897
-0.0148034
-0.0154051
-0.0159752
-0.0164821
-0.0169182
-0.0172998
-0.0176299
-0.0179314
-0.018229
-0.0185476
-0.018925
-0.0194106
0.00968187
0.00255191
-0.00707788
-0.0145342
-0.0176819
-0.0179086
-0.0175565
-0.0178322
-0.0188164
-0.0200843
-0.021277
-0.0221883
-0.0227467
-0.0231544
-0.0237147
-0.0244508
-0.0251722
-0.0258004
-0.0263796
-0.0269271
-0.0274616
-0.0280559
-0.0287379
-0.0294443
-0.0300937
-0.0307199
-0.0314182
-0.0321717
-0.0328902
-0.0335859
-0.0343472
-0.0351919
-0.0360467
-0.0368808
-0.0377584
-0.038707
-0.0396361
-0.0404562
-0.0412248
-0.0420448
-0.042919
-0.0437948
-0.0446467
-0.0454736
-0.0463479
-0.0472894
-0.048281
-0.0493435
-0.0504541
-0.0515112
-0.0524905
-0.053451
-0.054456
-0.0554981
-0.056585
-0.0577266
-0.0588896
-0.060039
-0.0611867
-0.0623598
-0.0635677
-0.0648114
-0.066046
-0.0672976
-0.0685978
-0.0698984
-0.0712058
-0.0725484
-0.0739385
-0.0753299
-0.0767452
-0.0781669
-0.0796009
-0.0810742
-0.0825845
-0.0841227
-0.0856768
-0.087277
-0.0889154
-0.09061
-0.0922996
-0.0940105
-0.0957192
-0.0974903
-0.099297
-0.101168
-0.103059
-0.104972
-0.106913
-0.108875
-0.110922
-0.112929
-0.11503
-0.117156
-0.119289
-0.12147
-0.123641
-0.125759
-0.127715
-0.129716
0.00885935
0.00241826
-0.0069868
-0.0144072
-0.0175992
-0.0178644
-0.0175263
-0.0178101
-0.0188008
-0.0200734
-0.0212695
-0.0221832
-0.0227429
-0.0231508
-0.023711
-0.0244475
-0.0251693
-0.0257977
-0.0263771
-0.0269248
-0.0274593
-0.0280537
-0.0287359
-0.0294425
-0.030092
-0.0307182
-0.0314164
-0.0321702
-0.0328887
-0.0335845
-0.0343457
-0.0351905
-0.0360454
-0.0368796
-0.0377571
-0.0387059
-0.0396351
-0.0404553
-0.0412239
-0.0420439
-0.0429182
-0.043794
-0.044646
-0.045473
-0.0463473
-0.0472888
-0.0482805
-0.0493429
-0.0504537
-0.0515108
-0.0524901
-0.0534506
-0.0544556
-0.0554977
-0.0565846
-0.0577263
-0.0588893
-0.0600387
-0.0611864
-0.0623595
-0.0635674
-0.0648112
-0.0660457
-0.0672973
-0.0685976
-0.0698982
-0.0712056
-0.0725482
-0.0739383
-0.0753297
-0.076745
-0.0781667
-0.0796007
-0.081074
-0.0825844
-0.0841225
-0.0856766
-0.0872768
-0.0889152
-0.0906099
-0.0922995
-0.0940104
-0.0957191
-0.0974902
-0.0992969
-0.101168
-0.103059
-0.104972
-0.106913
-0.108875
-0.110922
-0.112929
-0.11503
-0.117156
-0.119289
-0.12147
-0.123641
-0.125759
-0.127715
-0.129716
0.0081627
0.00236131
-0.00676927
-0.014163
-0.0174628
-0.0178137
-0.0175029
-0.0177908
-0.0187831
-0.0200577
-0.0212563
-0.0221734
-0.0227363
-0.0231464
-0.0237078
-0.0244447
-0.0251666
-0.0257951
-0.0263748
-0.0269227
-0.0274572
-0.0280516
-0.028734
-0.0294409
-0.0300905
-0.0307166
-0.0314149
-0.0321688
-0.0328874
-0.0335832
-0.0343444
-0.0351893
-0.0360443
-0.0368785
-0.0377561
-0.038705
-0.0396344
-0.0404545
-0.041223
-0.0420431
-0.0429174
-0.0437934
-0.0446454
-0.0454724
-0.0463467
-0.0472882
-0.0482799
-0.0493424
-0.0504533
-0.0515105
-0.0524898
-0.0534503
-0.0544553
-0.0554974
-0.0565843
-0.057726
-0.058889
-0.0600384
-0.0611861
-0.0623592
-0.0635672
-0.064811
-0.0660455
-0.0672971
-0.0685974
-0.069898
-0.0712054
-0.072548
-0.0739381
-0.0753295
-0.0767448
-0.0781665
-0.0796006
-0.0810739
-0.0825842
-0.0841224
-0.0856765
-0.0872767
-0.0889151
-0.0906097
-0.0922994
-0.0940103
-0.095719
-0.0974901
-0.0992968
-0.101168
-0.103059
-0.104971
-0.106913
-0.108875
-0.110922
-0.112929
-0.11503
-0.117156
-0.119289
-0.12147
-0.123641
-0.125759
-0.127715
-0.129716
0.00750463
0.00229296
-0.00651884
-0.013873
-0.0172898
-0.0177511
-0.0174757
-0.0177666
-0.0187592
-0.0200349
-0.0212339
-0.0221531
-0.0227215
-0.0231379
-0.0237033
-0.0244415
-0.0251632
-0.0257917
-0.0263719
-0.0269203
-0.027455
-0.0280494
-0.0287319
-0.0294392
-0.0300891
-0.0307153
-0.0314134
-0.0321673
-0.0328861
-0.0335819
-0.0343432
-0.0351881
-0.0360431
-0.0368773
-0.037755
-0.0387041
-0.0396336
-0.0404537
-0.0412221
-0.0420423
-0.0429167
-0.0437927
-0.0446448
-0.0454717
-0.046346
-0.0472876
-0.0482793
-0.0493419
-0.0504529
-0.0515103
-0.0524895
-0.0534499
-0.0544549
-0.055497
-0.0565839
-0.0577257
-0.0588888
-0.0600382
-0.0611859
-0.062359
-0.0635669
-0.0648107
-0.0660453
-0.0672969
-0.0685972
-0.0698978
-0.0712052
-0.0725478
-0.0739379
-0.0753294
-0.0767446
-0.0781664
-0.0796004
-0.0810737
-0.082584
-0.0841223
-0.0856764
-0.0872765
-0.0889149
-0.0906096
-0.0922993
-0.0940102
-0.0957189
-0.09749
-0.0992966
-0.101167
-0.103059
-0.104971
-0.106913
-0.108875
-0.110922
-0.112929
-0.11503
-0.117156
-0.119289
-0.121469
-0.12364
-0.125759
-0.127715
-0.129716
0.00681572
0.00216268
-0.00627676
-0.013572
-0.0171044
-0.0176842
-0.0174479
-0.0177395
-0.0187301
-0.0200051
-0.0212017
-0.022121
-0.0226963
-0.0231232
-0.0236958
-0.0244362
-0.0251579
-0.0257865
-0.0263677
-0.0269173
-0.0274526
-0.0280469
-0.0287292
-0.0294369
-0.0300877
-0.0307143
-0.031412
-0.0321655
-0.0328845
-0.0335808
-0.0343421
-0.0351867
-0.0360415
-0.0368758
-0.0377539
-0.0387032
-0.0396327
-0.0404527
-0.0412211
-0.0420414
-0.0429158
-0.0437918
-0.044644
-0.045471
-0.0463452
-0.0472868
-0.0482785
-0.0493412
-0.0504525
-0.0515099
-0.0524891
-0.0534494
-0.0544544
-0.0554966
-0.0565835
-0.0577253
-0.0588885
-0.0600379
-0.0611856
-0.0623587
-0.0635666
-0.0648105
-0.0660451
-0.0672967
-0.068597
-0.0698976
-0.071205
-0.0725476
-0.0739377
-0.0753292
-0.0767445
-0.0781662
-0.0796002
-0.0810735
-0.0825839
-0.0841221
-0.0856762
-0.0872764
-0.0889147
-0.0906095
-0.0922991
-0.0940101
-0.0957187
-0.0974898
-0.0992965
-0.101167
-0.103059
-0.104971
-0.106913
-0.108875
-0.110922
-0.112929
-0.11503
-0.117156
-0.119289
-0.121469
-0.12364
-0.125759
-0.127715
-0.129716
0.00609825
0.00197211
-0.00604119
-0.0132612
-0.0169098
-0.0176148
-0.0174218
-0.017712
-0.018698
-0.0199711
-0.0211635
-0.0220807
-0.0226632
-0.0231029
-0.0236847
-0.0244278
-0.0251496
-0.0257789
-0.0263618
-0.0269133
-0.0274499
-0.0280441
-0.0287257
-0.0294338
-0.0300863
-0.0307139
-0.031411
-0.0321634
-0.0328826
-0.03358
-0.0343414
-0.0351852
-0.0360394
-0.0368741
-0.0377528
-0.0387021
-0.0396313
-0.0404513
-0.04122
-0.0420404
-0.0429148
-0.0437907
-0.044643
-0.04547
-0.0463442
-0.0472857
-0.0482775
-0.0493404
-0.050452
-0.0515095
-0.0524886
-0.0534489
-0.0544539
-0.055496
-0.056583
-0.0577249
-0.0588881
-0.0600375
-0.0611852
-0.0623584
-0.0635663
-0.0648102
-0.0660448
-0.0672964
-0.0685968
-0.0698974
-0.0712048
-0.0725474
-0.0739375
-0.075329
-0.0767443
-0.0781661
-0.0796
-0.0810733
-0.0825837
-0.0841219
-0.085676
-0.0872762
-0.0889146
-0.0906093
-0.092299
-0.09401
-0.0957186
-0.0974897
-0.0992964
-0.101167
-0.103059
-0.104971
-0.106913
-0.108875
-0.110922
-0.112929
-0.11503
-0.117156
-0.119289
-0.121469
-0.12364
-0.125759
-0.127716
-0.129717
0.00536401
0.00173255
-0.00580955
-0.0129407
-0.016706
-0.0175421
-0.017397
-0.0176847
-0.0186638
-0.0199345
-0.0211223
-0.0220366
-0.0226262
-0.0230797
-0.0236712
-0.0244166
-0.0251381
-0.0257686
-0.0263541
-0.0269085
-0.0274469
-0.028041
-0.0287215
-0.0294299
-0.0300847
-0.0307141
-0.0314103
-0.0321611
-0.0328806
-0.0335795
-0.0343413
-0.0351837
-0.036037
-0.0368722
-0.0377516
-0.0387007
-0.0396293
-0.0404492
-0.0412185
-0.0420393
-0.0429136
-0.0437894
-0.0446418
-0.045469
-0.046343
-0.0472844
-0.0482762
-0.0493394
-0.0504512
-0.0515088
-0.0524879
-0.0534482
-0.0544532
-0.0554954
-0.0565824
-0.0577244
-0.0588877
-0.0600371
-0.0611848
-0.0623579
-0.0635659
-0.0648098
-0.0660445
-0.0672961
-0.0685965
-0.0698972
-0.0712045
-0.0725471
-0.0739373
-0.0753288
-0.0767441
-0.0781659
-0.0795998
-0.0810731
-0.0825835
-0.0841218
-0.0856758
-0.087276
-0.0889144
-0.0906092
-0.0922989
-0.0940098
-0.0957184
-0.0974895
-0.0992962
-0.101167
-0.103058
-0.104971
-0.106913
-0.108875
-0.110921
-0.112929
-0.11503
-0.117156
-0.119289
-0.121469
-0.12364
-0.125759
-0.127716
-0.129718
0.00462544
0.00144671
-0.00558862
-0.0126139
-0.0164931
-0.0174649
-0.0173732
-0.017658
-0.0186278
-0.0198957
-0.0210793
-0.0219908
-0.0225874
-0.0230549
-0.0236561
-0.0244033
-0.0251242
-0.0257561
-0.0263447
-0.0269028
-0.0274436
-0.0280377
-0.0287167
-0.0294252
-0.0300828
-0.0307146
-0.03141
-0.0321588
-0.0328786
-0.0335795
-0.0343416
-0.0351824
-0.0360345
-0.0368703
-0.0377507
-0.0386992
-0.0396265
-0.0404462
-0.0412164
-0.0420379
-0.042912
-0.0437877
-0.0446405
-0.0454682
-0.0463419
-0.0472829
-0.0482747
-0.0493382
-0.0504502
-0.0515079
-0.0524871
-0.0534474
-0.0544523
-0.0554946
-0.0565817
-0.0577237
-0.0588871
-0.0600365
-0.0611842
-0.0623574
-0.0635654
-0.0648093
-0.0660441
-0.0672957
-0.0685962
-0.0698968
-0.0712042
-0.0725469
-0.0739371
-0.0753286
-0.0767439
-0.0781657
-0.0795996
-0.0810729
-0.0825833
-0.0841216
-0.0856756
-0.0872758
-0.0889142
-0.090609
-0.0922987
-0.0940097
-0.0957183
-0.0974893
-0.099296
-0.101167
-0.103058
-0.104971
-0.106913
-0.108875
-0.110921
-0.112929
-0.11503
-0.117156
-0.119289
-0.121469
-0.12364
-0.12576
-0.127717
-0.129719
0.00389293
0.00111378
-0.0053872
-0.0122836
-0.0162701
-0.0173811
-0.0173497
-0.0176324
-0.0185905
-0.0198549
-0.0210348
-0.0219435
-0.0225472
-0.023029
-0.0236402
-0.0243889
-0.0251086
-0.0257418
-0.0263341
-0.0268964
-0.02744
-0.0280342
-0.0287117
-0.0294201
-0.0300805
-0.0307149
-0.0314097
-0.0321566
-0.0328768
-0.0335798
-0.0343423
-0.0351811
-0.0360319
-0.0368688
-0.0377504
-0.0386979
-0.0396232
-0.0404423
-0.0412135
-0.0420357
-0.0429098
-0.0437855
-0.0446391
-0.0454675
-0.0463411
-0.0472815
-0.0482733
-0.049337
-0.0504489
-0.0515066
-0.052486
-0.0534464
-0.0544513
-0.0554936
-0.0565808
-0.057723
-0.0588863
-0.0600357
-0.0611835
-0.0623568
-0.0635647
-0.0648087
-0.0660435
-0.0672953
-0.0685958
-0.0698964
-0.0712038
-0.0725466
-0.0739368
-0.0753283
-0.0767437
-0.0781655
-0.0795993
-0.0810726
-0.0825831
-0.0841214
-0.0856754
-0.0872756
-0.088914
-0.0906089
-0.0922985
-0.0940095
-0.0957181
-0.0974891
-0.0992958
-0.101167
-0.103058
-0.104971
-0.106912
-0.108875
-0.110921
-0.112928
-0.115029
-0.117156
-0.119289
-0.121469
-0.12364
-0.12576
-0.127718
-0.12972
0.00317518
0.000734348
-0.00521299
-0.0119516
-0.0160357
-0.0172888
-0.0173255
-0.0176083
-0.0185522
-0.0198121
-0.020989
-0.0218951
-0.0225056
-0.023002
-0.0236236
-0.0243737
-0.0250919
-0.0257262
-0.0263225
-0.0268893
-0.0274361
-0.0280306
-0.0287064
-0.0294146
-0.0300779
-0.0307151
-0.0314094
-0.0321545
-0.0328752
-0.0335806
-0.0343433
-0.0351798
-0.0360293
-0.0368677
-0.0377509
-0.038697
-0.0396196
-0.0404378
-0.0412099
-0.0420329
-0.0429068
-0.0437825
-0.0446372
-0.0454669
-0.0463406
-0.0472804
-0.0482722
-0.0493359
-0.0504476
-0.051505
-0.0524846
-0.0534451
-0.0544501
-0.0554925
-0.0565798
-0.0577221
-0.0588853
-0.0600347
-0.0611826
-0.0623559
-0.0635638
-0.0648077
-0.0660428
-0.0672947
-0.0685952
-0.0698958
-0.0712033
-0.0725461
-0.0739364
-0.075328
-0.0767435
-0.0781653
-0.079599
-0.0810724
-0.0825828
-0.0841211
-0.0856751
-0.0872753
-0.0889138
-0.0906087
-0.0922984
-0.0940093
-0.0957178
-0.0974889