/*--------------------------------*- C++ -*----------------------------------*\
| =========                 |                                                 |
| \\      /  F ield         | OpenFOAM: The Open Source CFD Toolbox           |
|  \\    /   O peration     | Version:  v1906                                 |
|   \\  /    A nd           | Web:      www.OpenFOAM.com                      |
|    \\/     M anipulation  |                                                 |
\*---------------------------------------------------------------------------*/
FoamFile
{
    version     2.0;
    format      ascii;
    class       surfaceScalarField;
    location    "7.1";
    object      phi;
}
// * * * * * * * * * * * * * * * * * * * * * * * * * * * * * * * * * * * * * //

dimensions      [0 3 -1 0 0 0 0];
oriented        oriented;


internalField   nonuniform List<scalar> 
19000
(
1.22229e-06
1.39106e-06
1.16953e-06
-3.55983e-07
1.11312e-06
-1.08162e-07
1.17878e-06
4.52729e-07
1.22198e-06
1.26686e-06
1.04106e-06
-1.42969e-06
1.13771e-06
6.1378e-07
1.12365e-06
7.33497e-07
1.13351e-06
9.28848e-08
1.17027e-06
9.31362e-07
1.11793e-06
2.30588e-07
1.1398e-06
5.89732e-07
1.12934e-06
2.11488e-07
1.13239e-06
4.52004e-07
1.13512e-06
5.01476e-07
1.11956e-06
3.20399e-07
1.13459e-06
5.78449e-07
1.1095e-06
9.5558e-08
1.12882e-06
3.69696e-07
6.65231e-08
1.07912e-06
1.27498e-06
1.34034e-06
1.22306e-06
-3.04058e-07
1.16426e-06
-4.93692e-08
1.23433e-06
3.82661e-07
1.27782e-06
1.22337e-06
1.08925e-06
-1.24112e-06
1.19183e-06
5.11192e-07
1.17892e-06
7.46405e-07
1.18599e-06
8.5818e-08
1.2394e-06
8.77949e-07
1.17965e-06
2.9034e-07
1.20468e-06
5.64707e-07
1.18884e-06
2.27329e-07
1.19927e-06
4.41567e-07
1.18793e-06
5.12816e-07
1.18742e-06
3.2091e-07
1.17991e-06
5.85964e-07
1.17904e-06
9.64262e-08
1.16764e-06
3.81096e-07
6.67376e-08
1.16742e-06
1.3289e-06
1.29423e-06
1.28043e-06
-2.55587e-07
1.21876e-06
1.2292e-08
1.28675e-06
3.14679e-07
1.33489e-06
1.17523e-06
1.14546e-06
-1.05168e-06
1.2427e-06
4.13946e-07
1.24636e-06
7.42752e-07
1.24298e-06
8.91984e-08
1.31466e-06
8.06264e-07
1.2474e-06
3.57603e-07
1.27284e-06
5.39267e-07
1.25081e-06
2.49356e-07
1.26613e-06
4.26252e-07
1.24929e-06
5.29655e-07
1.25012e-06
3.2008e-07
1.24542e-06
5.9066e-07
1.24166e-06
1.00185e-07
1.24253e-06
3.80223e-07
7.75338e-08
1.23174e-06
1.38361e-06
1.25473e-06
1.34406e-06
-2.16033e-07
1.27712e-06
7.92232e-08
1.33762e-06
2.54184e-07
1.39273e-06
1.12012e-06
1.21447e-06
-8.73423e-07
1.29489e-06
3.33521e-07
1.32413e-06
7.13513e-07
1.30295e-06
1.10375e-07
1.38207e-06
7.27147e-07
1.3179e-06
4.21777e-07
1.33145e-06
5.25716e-07
1.31066e-06
2.70144e-07
1.32281e-06
4.141e-07
1.31149e-06
5.40976e-07
1.3078e-06
3.23773e-07
1.30911e-06
5.89351e-07
1.30138e-06
1.07914e-07
1.30785e-06
3.73751e-07
9.23075e-08
1.29308e-06
1.43977e-06
1.2233e-06
1.41327e-06
-1.89532e-07
1.34114e-06
1.51354e-07
1.38946e-06
2.05869e-07
1.45155e-06
1.05803e-06
1.29848e-06
-7.20353e-07
1.35133e-06
2.80673e-07
1.4034e-06
6.61442e-07
1.36635e-06
1.47422e-07
1.43547e-06
6.58024e-07
1.38912e-06
4.6813e-07
1.38636e-06
5.28481e-07
1.36823e-06
2.88275e-07
1.37473e-06
4.07597e-07
1.36942e-06
5.46283e-07
1.36391e-06
3.29286e-07
1.3688e-06
5.84458e-07
1.36072e-06
1.15996e-07
1.37066e-06
3.63808e-07
1.06562e-07
1.35641e-06
1.49865e-06
1.20033e-06
1.48618e-06
-1.77061e-07
1.41257e-06
2.24965e-07
1.44585e-06
1.72588e-07
1.51198e-06
9.91894e-07
1.39404e-06
-6.02414e-07
1.41474e-06
2.59973e-07
1.47614e-06
6.00039e-07
1.43408e-06
1.89485e-07
1.48315e-06
6.08954e-07
1.4605e-06
4.9078e-07
1.44746e-06
5.41523e-07
1.42858e-06
3.07154e-07
1.4292e-06
4.06977e-07
1.42721e-06
5.48271e-07
1.42279e-06
3.33704e-07
1.43134e-06
5.75911e-07
1.42487e-06
1.22462e-07
1.43864e-06
3.50043e-07
1.19292e-07
1.42591e-06
1.56177e-06
1.18478e-06
1.56097e-06
-1.76258e-07
1.49223e-06
2.9371e-07
1.5099e-06
1.54911e-07
1.57513e-06
9.2667e-07
1.49407e-06
-5.21361e-07
1.48588e-06
2.68163e-07
1.54226e-06
5.43662e-07
1.50679e-06
2.24958e-07
1.53668e-06
5.79061e-07
1.53276e-06
4.94698e-07
1.518e-06
5.56286e-07
1.49672e-06
3.28433e-07
1.4917e-06
4.11997e-07
1.49083e-06
5.49139e-07
1.48882e-06
3.35717e-07
1.5014e-06
5.6333e-07
1.49685e-06
1.27012e-07
1.5139e-06
3.32998e-07
1.30971e-07
1.50222e-06
1.63038e-06
1.17453e-06
1.6369e-06
-1.82778e-07
1.5792e-06
3.51412e-07
1.58309e-06
1.51021e-07
1.6423e-06
8.67455e-07
1.59218e-06
-4.71236e-07
1.56361e-06
2.96731e-07
1.60742e-06
4.99848e-07
1.58401e-06
2.48375e-07
1.60123e-06
5.61839e-07
1.60728e-06
4.88644e-07
1.59578e-06
5.67785e-07
1.57355e-06
3.50663e-07
1.56464e-06
4.20909e-07
1.56379e-06
5.49986e-07
1.56403e-06
3.35479e-07
1.58018e-06
5.47186e-07
1.57672e-06
1.30471e-07
1.59585e-06
3.13867e-07
1.42413e-07
1.58441e-06
1.70495e-06
1.16715e-06
1.71432e-06
-1.9215e-07
1.67108e-06
3.94647e-07
1.665e-06
1.571e-07
1.71452e-06
8.17938e-07
1.68535e-06
-4.42067e-07
1.64645e-06
3.35632e-07
1.67779e-06
4.68512e-07
1.66523e-06
2.60934e-07
1.67573e-06
5.51339e-07
1.68513e-06
4.79245e-07
1.67795e-06
5.74962e-07
1.65711e-06
3.71499e-07
1.64727e-06
4.30754e-07
1.64667e-06
5.5058e-07
1.64836e-06
3.33794e-07
1.66693e-06
5.28617e-07
1.66327e-06
1.3413e-07
1.68316e-06
2.93971e-07
1.54124e-07
1.67145e-06
1.78527e-06
1.16061e-06
1.79421e-06
-2.01087e-07
1.76536e-06
4.23494e-07
1.75405e-06
1.6841e-07
1.79222e-06
7.79769e-07
1.77417e-06
-4.24021e-07
1.73373e-06
3.76072e-07
1.75667e-06
4.45571e-07
1.75081e-06
2.66799e-07
1.75753e-06
5.44613e-07
1.76695e-06
4.6983e-07
1.76334e-06
5.78567e-07
1.74551e-06
3.8933e-07
1.73744e-06
4.38829e-07
1.73809e-06
5.49928e-07
1.74053e-06
3.31359e-07
1.76029e-06
5.08856e-07
1.75521e-06
1.39205e-07
1.77462e-06
2.74565e-07
1.66168e-07
1.76257e-06
1.87084e-06
1.15352e-06
1.87757e-06
-2.07815e-07
1.86055e-06
4.40512e-07
1.84825e-06
1.80707e-07
1.87537e-06
7.52651e-07
1.86142e-06
-4.10065e-07
1.82543e-06
4.1206e-07
1.84408e-06
4.26915e-07
1.84134e-06
2.69547e-07
1.84517e-06
5.40773e-07
1.85338e-06
4.61623e-07
1.85229e-06
5.79654e-07
1.83806e-06
4.03567e-07
1.83326e-06
4.43623e-07
1.836e-06
5.47194e-07
1.8387e-06
3.28656e-07
1.85863e-06
4.88921e-07
1.85136e-06
1.4648e-07
1.86921e-06
2.5671e-07
1.78285e-07
1.8571e-06
1.96125e-06
1.14511e-06
1.96507e-06
-2.11636e-07
1.95647e-06
4.4911e-07
1.94593e-06
1.91251e-07
1.96383e-06
7.34752e-07
1.95026e-06
-3.96504e-07
1.92146e-06
4.40867e-07
1.93813e-06
4.10238e-07
1.93683e-06
2.70848e-07
1.93821e-06
5.39397e-07
1.94496e-06
4.54869e-07
1.94551e-06
5.79107e-07
1.93468e-06
4.14401e-07
1.93343e-06
4.4487e-07
1.93847e-06
5.42154e-07
1.941e-06
3.26129e-07
1.96033e-06
4.69586e-07
1.95064e-06
1.56169e-07
1.96619e-06
2.41169e-07
1.89996e-07
1.95447e-06
2.05631e-06
1.13499e-06
2.05699e-06
-2.12323e-07
2.05382e-06
4.5229e-07
2.04607e-06
1.98998e-07
2.05749e-06
7.23328e-07
2.04298e-06
-3.81992e-07
2.02137e-06
4.62481e-07
2.03685e-06
3.94755e-07
2.03673e-06
2.70968e-07
2.03619e-06
5.39934e-07
2.04171e-06
4.49347e-07
2.04326e-06
5.77557e-07
2.03524e-06
4.22421e-07
2.03699e-06
4.43127e-07
2.04402e-06
5.35117e-07
2.04599e-06
3.24164e-07
2.0642e-06
4.51375e-07
2.05242e-06
1.67949e-07
2.06524e-06
2.2835e-07
2.0074e-07
2.05449e-06
2.15601e-06
1.12299e-06
2.15348e-06
-2.09796e-07
2.15369e-06
4.52078e-07
2.14857e-06
2.04115e-07
2.15634e-06
7.15559e-07
2.14055e-06
-3.662e-07
2.12471e-06
4.78319e-07
2.13918e-06
3.80282e-07
2.14038e-06
2.69772e-07
2.13839e-06
5.41929e-07
2.14313e-06
4.44605e-07
2.14532e-06
5.75366e-07
2.13944e-06
4.28299e-07
2.14333e-06
4.39237e-07
2.15184e-06
5.26608e-07
2.15308e-06
3.22928e-07
2.1699e-06
4.34555e-07
2.15673e-06
1.81119e-07
2.16674e-06
2.18332e-07
2.10042e-07
2.15744e-06
2.26037e-06
1.10911e-06
2.25474e-06
-2.04171e-07
2.25726e-06
4.49559e-07
2.25405e-06
2.07322e-07
2.26029e-06
7.09319e-07
2.24315e-06
-3.49053e-07
2.23166e-06
4.89804e-07
2.24509e-06
3.66852e-07
2.24752e-06
2.67344e-07
2.24425e-06
5.452e-07
2.24872e-06
4.40138e-07
2.25144e-06
5.72641e-07
2.24713e-06
4.32611e-07
2.25242e-06
4.33944e-07
2.26189e-06
5.17138e-07
2.26251e-06
3.2231e-07
2.27789e-06
4.19179e-07
2.26419e-06
1.94816e-07
2.2716e-06
2.10922e-07
2.17665e-07
2.26398e-06
2.36943e-06
1.09355e-06
2.36116e-06
-1.95906e-07
2.36547e-06
4.45254e-07
2.36334e-06
2.09448e-07
2.3692e-06
7.03463e-07
2.35078e-06
-3.30631e-07
2.34304e-06
4.97544e-07
2.355e-06
3.54893e-07
2.35828e-06
2.64055e-07
2.35386e-06
5.49624e-07
2.35848e-06
4.35513e-07
2.36182e-06
5.69301e-07
2.3586e-06
4.35834e-07
2.36478e-06
4.27763e-07
2.37476e-06
5.07163e-07
2.37501e-06
3.22054e-07
2.38902e-06
4.05168e-07
2.37552e-06
2.08316e-07
2.38072e-06
2.05728e-07
2.23568e-07
2.37481e-06
2.4833e-06
1.07665e-06
2.47316e-06
-1.85767e-07
2.4789e-06
4.39512e-07
2.47703e-06
2.11318e-07
2.48302e-06
6.97478e-07
2.46363e-06
-3.11245e-07
2.4597e-06
5.0148e-07
2.46929e-06
3.45303e-07
2.47299e-06
2.60347e-07
2.46777e-06
5.54847e-07
2.47287e-06
4.30411e-07
2.477e-06
5.65174e-07
2.47442e-06
4.38409e-07
2.48114e-06
4.21049e-07
2.49115e-06
4.97149e-07
2.49126e-06
3.21949e-07
2.50406e-06
3.92365e-07
2.49119e-06
2.21191e-07
2.49465e-06
2.02267e-07
2.27784e-07
2.49043e-06
2.60222e-06
1.05872e-06
2.591e-06
-1.74546e-07
2.59784e-06
4.3267e-07
2.59539e-06
2.13772e-07
2.60194e-06
6.90925e-07
2.58202e-06
-2.91321e-07
2.58192e-06
5.01584e-07
2.58816e-06
3.39057e-07
2.592e-06
2.56505e-07
2.58655e-06
5.60297e-07
2.59233e-06
4.24637e-07
2.59744e-06
5.60061e-07
2.59507e-06
4.40777e-07
2.60207e-06
4.14047e-07
2.61163e-06
4.8759e-07
2.61165e-06
3.21936e-07
2.62347e-06
3.80537e-07
2.61137e-06
2.3329e-07
2.61355e-06
2.00091e-07
2.30255e-07
2.61108e-06
2.72656e-06
1.03999e-06
2.71478e-06
-1.62765e-07
2.72246e-06
4.24988e-07
2.71863e-06
2.17604e-07
2.72636e-06
6.83192e-07
2.70616e-06
-2.71119e-07
2.70943e-06
4.98318e-07
2.71182e-06
3.3666e-07
2.71576e-06
2.52572e-07
2.71057e-06
5.65481e-07
2.71706e-06
4.18156e-07
2.72337e-06
5.53748e-07
2.72079e-06
4.43354e-07
2.72795e-06
4.06891e-07
2.73668e-06
4.78856e-07
2.73647e-06
3.22152e-07
2.74769e-06
3.69312e-07
2.73634e-06
2.44636e-07
2.73753e-06
1.98903e-07
2.30844e-07
2.73694e-06
2.85674e-06
1.02051e-06
2.84454e-06
-1.50561e-07
2.85299e-06
4.16541e-07
2.84719e-06
2.23403e-07
2.85673e-06
6.73652e-07
2.83618e-06
-2.50573e-07
2.84199e-06
4.92512e-07
2.84069e-06
3.37955e-07
2.84487e-06
2.48394e-07
2.84015e-06
5.70196e-07
2.84715e-06
4.11162e-07
2.8549e-06
5.45994e-07
2.85179e-06
4.46468e-07
2.85909e-06
3.9959e-07
2.86689e-06
4.7106e-07
2.8662e-06
3.22838e-07
2.87725e-06
3.58261e-07
2.86663e-06
2.55252e-07
2.8669e-06
1.9864e-07
2.29451e-07
2.86829e-06
2.99317e-06
1.00024e-06
2.98039e-06
-1.37786e-07
2.98973e-06
4.07206e-07
2.98168e-06
2.31447e-07
2.99342e-06
6.61918e-07
2.97221e-06
-2.29363e-07
2.97977e-06
4.84949e-07
2.97538e-06
3.4235e-07
2.98002e-06
2.43749e-07
2.97576e-06
5.74455e-07
2.98284e-06
4.04084e-07
2.99227e-06
5.36561e-07
2.98844e-06
4.50301e-07
2.9959e-06
3.92128e-07
3.003e-06
4.63963e-07
3.00155e-06
3.24294e-07
3.01275e-06
3.47053e-07
3.00304e-06
2.64964e-07
3.00214e-06
1.99543e-07
2.26112e-07
3.00548e-06
3.1362e-06
9.79045e-07
3.12258e-06
-1.24167e-07
3.13304e-06
3.96747e-07
3.12274e-06
2.41745e-07
3.13675e-06
6.47913e-07
3.11448e-06
-2.07098e-07
3.12334e-06
4.76094e-07
3.11654e-06
3.4915e-07
3.12181e-06
2.38481e-07
3.118e-06
5.78263e-07
3.12458e-06
3.97503e-07
3.13588e-06
5.25262e-07
3.13128e-06
4.54897e-07
3.13888e-06
3.84535e-07
3.14575e-06
4.57086e-07
3.14324e-06
3.26807e-07
3.15474e-06
3.35551e-07
3.14633e-06
2.73379e-07
3.14384e-06
2.0203e-07
2.21104e-07
3.14885e-06
3.28616e-06
9.56794e-07
3.27142e-06
-1.09429e-07
3.28326e-06
3.84913e-07
3.27085e-06
2.54155e-07
3.28698e-06
6.31774e-07
3.26336e-06
-1.83473e-07
3.27332e-06
4.66129e-07
3.26473e-06
3.57744e-07
3.27063e-06
2.32585e-07
3.26742e-06
5.81465e-07
3.2729e-06
3.92025e-07
3.28615e-06
5.12017e-07
3.28089e-06
4.60157e-07
3.28844e-06
3.76985e-07
3.2957e-06
4.49825e-07
3.29193e-06
3.30576e-07
3.30356e-06
3.2392e-07
3.29702e-06
2.79923e-07
3.29267e-06
2.06375e-07
2.15099e-07
3.29868e-06
3.44336e-06
9.33369e-07
3.42726e-06
-9.3332e-08
3.44068e-06
3.71491e-07
3.42633e-06
2.68505e-07
3.44439e-06
6.13718e-07
3.41926e-06
-1.58343e-07
3.43025e-06
4.55138e-07
3.42039e-06
3.67605e-07
3.42674e-06
2.26237e-07
3.42446e-06
5.8374e-07
3.42831e-06
3.88173e-07
3.44346e-06
4.96873e-07
3.43776e-06
4.65852e-07
3.44493e-06
3.69823e-07
3.45315e-06
4.41601e-07
3.44814e-06
3.35581e-07
3.45944e-06
3.12628e-07
3.45536e-06
2.84002e-07
3.44923e-06
2.12504e-07
2.09103e-07
3.45522e-06
3.60811e-06
9.08666e-07
3.59045e-06
-7.56724e-08
3.60562e-06
3.56324e-07
3.58949e-06
2.84639e-07
3.60924e-06
5.93967e-07
3.58264e-06
-1.31745e-07
3.59451e-06
4.43265e-07
3.58389e-06
3.78232e-07
3.59037e-06
2.19754e-07
3.58942e-06
5.84685e-07
3.59126e-06
3.8634e-07
3.60812e-06
4.80011e-07
3.60235e-06
4.7162e-07
3.60861e-06
3.6356e-07
3.61831e-06
4.31901e-07
3.61234e-06
3.41556e-07
3.62255e-06
3.02423e-07
3.62143e-06
2.85115e-07
3.61405e-06
2.19882e-07
2.0429e-07
3.61887e-06
3.78078e-06
8.82596e-07
3.76137e-06
-5.6269e-08
3.77839e-06
3.39311e-07
3.76061e-06
3.02409e-07
3.78182e-06
5.72758e-07
3.75397e-06
-1.03892e-07
3.76644e-06
4.30792e-07
3.75558e-06
3.89101e-07
3.76179e-06
2.13543e-07
3.76256e-06
5.83915e-07
3.76215e-06
3.86747e-07
3.78041e-06
4.61754e-07
3.77505e-06
4.76975e-07
3.77983e-06
3.58782e-07
3.79134e-06
4.20388e-07
3.7849e-06
3.48002e-07
3.7932e-06
2.94121e-07
3.79524e-06
2.83068e-07
3.78753e-06
2.27594e-07
2.01628e-07
3.79019e-06
3.9617e-06
8.55085e-07
3.94039e-06
-3.49644e-08
3.9593e-06
3.20409e-07
3.94007e-06
3.21638e-07
3.96246e-06
5.50366e-07
3.93372e-06
-7.51547e-08
3.94638e-06
4.18137e-07
3.93583e-06
3.99652e-07
3.94132e-06
2.08047e-07
3.9441e-06
5.81133e-07
3.94142e-06
3.89433e-07
3.96062e-06
4.42557e-07
3.95623e-06
4.81358e-07
3.95901e-06
3.56007e-07
3.97239e-06
4.07003e-07
3.96617e-06
3.54226e-07
3.97188e-06
2.88407e-07
3.97678e-06
2.78175e-07
3.96992e-06
2.34445e-07
2.01621e-07
3.96993e-06
4.15126e-06
8.26076e-07
4.12793e-06
-1.164e-08
4.1487e-06
2.99642e-07
4.12826e-06
3.42082e-07
4.15149e-06
5.27137e-07
4.12237e-06
-4.60329e-08
4.13469e-06
4.05816e-07
4.12501e-06
4.09327e-07
4.12938e-06
2.03681e-07
4.13434e-06
5.76173e-07
4.12952e-06
3.94253e-07
4.1491e-06
4.22979e-07
4.14626e-06
4.8419e-07
4.1467e-06
3.55571e-07
4.16167e-06
3.92028e-07
4.15647e-06
3.59434e-07
4.15922e-06
2.85652e-07
4.16615e-06
2.71245e-07
4.16133e-06
2.39271e-07
2.04073e-07
4.15887e-06
4.34984e-06
7.95536e-07
4.32444e-06
1.37615e-08
4.34697e-06
2.77115e-07
4.32563e-06
3.63418e-07
4.34928e-06
5.03489e-07
4.32037e-06
-1.71211e-08
4.33179e-06
3.94392e-07
4.3235e-06
4.17616e-07
4.32639e-06
2.00789e-07
4.33357e-06
5.69e-07
4.32691e-06
4.00913e-07
4.34628e-06
4.03608e-07
4.3455e-06
4.8497e-07
4.34348e-06
3.57584e-07
4.35949e-06
3.76018e-07
4.35608e-06
3.62849e-07
4.3559e-06
2.85835e-07
4.36368e-06
2.63462e-07
4.36175e-06
2.41199e-07
2.08152e-07
4.35767e-06
4.55785e-06
7.63462e-07
4.5304e-06
4.12137e-08
4.55448e-06
2.53027e-07
4.53266e-06
3.85237e-07
4.55623e-06
4.79924e-07
4.5282e-06
1.09061e-08
4.53815e-06
3.84445e-07
4.53164e-06
4.2413e-07
4.53286e-06
1.99561e-07
4.54211e-06
5.59754e-07
4.53406e-06
4.08961e-07
4.55263e-06
3.85036e-07
4.5543e-06
4.83303e-07
4.54995e-06
3.61935e-07
4.56623e-06
3.59737e-07
4.56528e-06
3.63796e-07
4.56253e-06
2.88585e-07
4.56994e-06
2.56057e-07
4.57116e-06
2.39977e-07
2.12527e-07
4.56679e-06
4.77569e-06
7.29889e-07
4.74631e-06
7.05941e-08
4.77167e-06
2.27667e-07
4.74985e-06
4.0705e-07
4.77276e-06
4.5702e-07
4.74635e-06
3.73187e-08
4.75428e-06
3.76512e-07
4.74976e-06
4.28647e-07
4.7493e-06
2.0002e-07
4.76034e-06
5.48713e-07
4.75144e-06
4.17866e-07
4.76868e-06
3.67797e-07
4.77304e-06
4.78936e-07
4.76667e-06
3.68306e-07
4.78234e-06
3.44067e-07
4.78433e-06
3.61806e-07
4.77978e-06
2.93135e-07
4.78567e-06
2.50173e-07
4.78961e-06
2.36033e-07
2.15763e-07
4.78637e-06
5.00379e-06
6.94893e-07
4.9727e-06
1.01686e-07
4.99896e-06
2.01408e-07
4.9777e-06
4.28308e-07
4.99931e-06
4.35411e-07
4.97524e-06
6.13951e-08
4.98074e-06
3.71012e-07
4.97822e-06
4.31167e-07
4.97626e-06
2.01977e-07
4.98871e-06
5.36263e-07
4.9795e-06
4.27074e-07
4.99493e-06
3.52366e-07
5.00213e-06
4.71739e-07
4.99423e-06
3.76206e-07
5.00834e-06
3.29958e-07
5.01362e-06
3.56522e-07
5.00812e-06
2.98642e-07
5.01176e-06
2.46531e-07
5.01746e-06
2.30326e-07
2.16788e-07
5.01644e-06
5.24262e-06
6.58588e-07
5.21012e-06
1.34188e-07
5.23683e-06
1.74697e-07
5.21675e-06
4.4839e-07
5.23634e-06
4.15814e-07
5.21527e-06
8.24676e-08
5.21813e-06
3.68152e-07
5.21737e-06
4.31927e-07
5.21428e-06
2.05069e-07
5.22773e-06
5.22814e-07
5.21869e-06
4.36116e-07
5.23196e-06
3.39095e-07
5.24198e-06
4.61719e-07
5.23314e-06
3.85048e-07
5.24486e-06
3.18232e-07
5.2535e-06
3.47886e-07
5.24798e-06
3.04166e-07
5.24908e-06
2.45424e-07
5.25537e-06
2.2404e-07
2.15198e-07
5.25696e-06
5.49265e-06
6.21126e-07
5.4591e-06
1.67736e-07
5.48575e-06
1.48051e-07
5.46753e-06
4.66609e-07
5.48435e-06
3.98992e-07
5.46681e-06
1.00014e-07
5.46711e-06
3.67845e-07
5.46763e-06
4.31407e-07
5.46391e-06
2.08789e-07
5.47798e-06
5.08748e-07
5.46945e-06
4.44642e-07
5.48037e-06
3.28178e-07
5.49301e-06
4.49076e-07
5.48398e-06
3.94079e-07
5.49262e-06
3.09593e-07
5.50434e-06
3.36167e-07
5.49975e-06
3.0876e-07
5.49841e-06
2.46758e-07
5.50426e-06
2.18196e-07
2.11415e-07
5.50804e-06
5.75439e-06
5.82694e-07
5.72022e-06
2.01904e-07
5.74621e-06
1.22061e-07
5.73064e-06
4.82183e-07
5.74389e-06
3.85744e-07
5.7302e-06
1.13698e-07
5.72836e-06
3.69683e-07
5.72949e-06
4.30277e-07
5.72565e-06
2.1263e-07
5.74009e-06
4.94314e-07
5.7323e-06
4.52425e-07
5.74074e-06
3.19736e-07
5.7557e-06
4.3412e-07
5.74733e-06
4.02454e-07
5.75245e-06
3.04469e-07
5.76645e-06
3.2217e-07
5.76385e-06
3.11354e-07
5.7604e-06
2.50214e-07
5.76501e-06
2.13579e-07
2.06217e-07
5.77021e-06
6.02838e-06
5.43511e-07
5.99407e-06
2.36214e-07
6.01873e-06
9.73993e-08
6.00668e-06
4.94234e-07
6.01557e-06
3.76846e-07
6.00584e-06
1.23429e-07
6.00255e-06
3.72981e-07
6.00353e-06
4.29296e-07
5.99999e-06
2.16168e-07
6.01467e-06
4.79632e-07
6.00779e-06
4.59309e-07
6.01367e-06
3.13858e-07
6.03057e-06
4.17213e-07
6.02371e-06
4.09315e-07
6.02512e-06
3.03059e-07
6.04028e-06
3.07014e-07
6.04066e-06
3.10969e-07
6.03563e-06
2.55245e-07
6.03849e-06
2.10717e-07
2.00462e-07
6.04425e-06
6.31517e-06
5.03827e-07
6.28126e-06
2.70129e-07
6.30383e-06
7.48305e-08
6.29627e-06
5.01791e-07
6.30019e-06
3.72928e-07
6.29414e-06
1.29476e-07
6.29032e-06
3.76797e-07
6.29043e-06
4.29195e-07
6.28738e-06
2.19212e-07
6.3024e-06
4.64618e-07
6.29649e-06
4.65212e-07
6.29977e-06
3.10584e-07
6.31816e-06
3.98814e-07
6.31363e-06
4.13854e-07
6.3115e-06
3.05185e-07
6.32642e-06
2.9209e-07
6.33048e-06
3.06914e-07
6.32469e-06
2.61034e-07
6.32548e-06
2.09923e-07
1.94779e-07
6.33117e-06
6.61537e-06
4.63927e-07
6.58244e-06
3.0306e-07
6.60207e-06
5.52015e-08
6.60004e-06
5.0382e-07
6.5986e-06
3.74372e-07
6.59558e-06
1.32489e-07
6.59234e-06
3.80038e-07
6.59093e-06
4.30604e-07
6.58834e-06
2.21806e-07
6.60388e-06
4.49073e-07
6.59905e-06
4.70043e-07
6.5997e-06
3.09932e-07
6.6191e-06
3.79421e-07
6.61749e-06
4.15457e-07
6.61241e-06
3.1027e-07
6.62565e-06
2.78848e-07
6.63353e-06
2.99033e-07
6.62819e-06
2.66371e-07
6.62671e-06
2.11408e-07
1.89707e-07
6.63178e-06
6.92959e-06
4.24129e-07
6.89828e-06
3.34364e-07
6.91407e-06
3.94202e-08
6.91841e-06
4.99476e-07
6.91175e-06
3.81035e-07
6.91074e-06
1.335e-07
6.90928e-06
3.81494e-07
6.9059e-06
4.33984e-07
6.90338e-06
2.2433e-07
6.91971e-06
4.32734e-07
6.91614e-06
4.73622e-07
6.91422e-06
3.11847e-07
6.93395e-06
3.59693e-07
6.93576e-06
4.13648e-07
6.92859e-06
3.17436e-07
6.93888e-06
2.68556e-07
6.95013e-06
2.87787e-07
6.94657e-06
2.6993e-07
6.94303e-06
2.1495e-07
1.85888e-07
6.94685e-06
7.25848e-06
3.84781e-07
7.22948e-06
3.63371e-07
7.24051e-06
2.83865e-08
7.25161e-06
4.88377e-07
7.24057e-06
3.92075e-07
7.24027e-06
1.33795e-07
7.24165e-06
3.80122e-07
7.23624e-06
4.39388e-07
7.23311e-06
2.27467e-07
7.25044e-06
4.15405e-07
7.24845e-06
4.75606e-07
7.24405e-06
3.16251e-07
7.26334e-06
3.40398e-07
7.2688e-06
4.0819e-07
7.26064e-06
3.25593e-07
7.26722e-06
2.6198e-07
7.28064e-06
2.74371e-07
7.28008e-06
2.70484e-07
7.2753e-06
2.19736e-07
1.83956e-07
7.27723e-06
7.60275e-06
3.46256e-07
7.57672e-06
3.89406e-07
7.5823e-06
2.28064e-08
7.59997e-06
4.70706e-07
7.58596e-06
4.06082e-07
7.58482e-06
1.34934e-07
7.58988e-06
3.75067e-07
7.58286e-06
4.46402e-07
7.57823e-06
2.32097e-07
7.59658e-06
3.97062e-07
7.59669e-06
4.75495e-07
7.58994e-06
3.23e-07
7.60791e-06
3.22423e-07
7.61703e-06
3.99073e-07
7.60908e-06
3.33537e-07
7.61173e-06
2.59332e-07
7.62579e-06
2.60318e-07
7.62892e-06
2.67349e-07
7.62413e-06
2.24529e-07
1.84192e-07
7.62389e-06
7.96313e-06
3.0894e-07
7.94071e-06
4.11818e-07
7.94049e-06
2.30275e-08
7.96398e-06
4.47221e-07
7.94876e-06
4.21301e-07
7.94515e-06
1.38541e-07
7.95436e-06
3.65855e-07
7.9466e-06
4.54166e-07
7.93961e-06
2.39087e-07
7.95869e-06
3.77984e-07
7.96141e-06
4.72773e-07
7.95269e-06
3.31722e-07
7.96831e-06
3.068e-07
7.98086e-06
3.86522e-07
7.97436e-06
3.40043e-07
7.97351e-06
2.60181e-07
7.98662e-06
2.47209e-07
7.99336e-06
2.60602e-07
7.98984e-06
2.28055e-07
1.86123e-07
7.98791e-06
8.34039e-06
2.73232e-07
8.3222e-06
4.30003e-07
8.3162e-06
2.90278e-08
8.34429e-06
4.19134e-07
8.32974e-06
4.35853e-07
8.32221e-06
1.46073e-07
8.33552e-06
3.52541e-07
8.32827e-06
4.61423e-07
8.31821e-06
2.49144e-07
8.33736e-06
3.58833e-07
8.34311e-06
4.67021e-07
8.33306e-06
3.41772e-07
8.34535e-06
2.94512e-07
8.3608e-06
3.7107e-07
8.35696e-06
3.43882e-07
8.35357e-06
2.63576e-07
8.36439e-06
2.36382e-07
8.37399e-06
2.51004e-07
8.37275e-06
2.29294e-07
1.88878e-07
8.37e-06
8.73537e-06
2.39528e-07
8.72195e-06
4.43415e-07
8.7105e-06
4.04804e-08
8.74176e-06
3.8788e-07
8.72953e-06
4.4808e-07
8.71712e-06
1.58484e-07
8.73382e-06
3.35836e-07
8.72852e-06
4.66729e-07
8.71515e-06
2.62508e-07
8.7332e-06
3.40789e-07
8.74219e-06
4.58022e-07
8.73185e-06
3.52119e-07
8.74016e-06
2.86202e-07
8.75768e-06
3.53546e-07
8.75751e-06
3.44052e-07
8.75276e-06
2.68327e-07
8.76052e-06
2.28619e-07
8.77178e-06
2.3975e-07
8.77325e-06
2.27824e-07
1.91429e-07
8.7707e-06
9.14894e-06
2.08205e-07
9.14078e-06
4.51574e-07
9.12443e-06
5.68342e-08
9.15725e-06
3.55063e-07
9.14879e-06
4.5654e-07
9.13103e-06
1.76241e-07
9.14975e-06
3.1711e-07
9.14786e-06
4.68623e-07
9.13151e-06
2.78863e-07
9.14712e-06
3.25177e-07
9.15943e-06
4.45711e-07
9.15e-06
3.6155e-07
9.15427e-06
2.81928e-07
9.17267e-06
3.35151e-07
9.17659e-06
3.40132e-07
9.17181e-06
2.73106e-07
9.17628e-06
2.24145e-07
9.18791e-06
2.28122e-07
9.19205e-06
2.23683e-07
1.93069e-07
9.19041e-06
9.58205e-06
1.79613e-07
9.57956e-06
4.54067e-07
9.55896e-06
7.74341e-08
9.59169e-06
3.22327e-07
9.58813e-06
4.60102e-07
9.56494e-06
1.99438e-07
9.58388e-06
2.98162e-07
9.58665e-06
4.65853e-07
9.56848e-06
2.97037e-07
9.58044e-06
3.1322e-07
9.59587e-06
4.30278e-07
9.58868e-06
3.6874e-07
9.58942e-06
2.81192e-07
9.60708e-06
3.17483e-07
9.61486e-06
3.32356e-07
9.61128e-06
2.76689e-07
9.61296e-06
2.22466e-07
9.62364e-06
2.17437e-07
9.63008e-06
2.17248e-07
1.93336e-07
9.62981e-06
1.00357e-05
1.54045e-07
1.00392e-05
4.5059e-07
1.00151e-05
1.01562e-07
1.00461e-05
2.91301e-07
1.00483e-05
4.57916e-07
1.00208e-05
2.26886e-07
1.0037e-05
2.82e-07
1.00453e-05
4.57557e-07
1.00274e-05
3.14889e-07
1.00348e-05
3.05876e-07
1.00525e-05
4.12514e-07
1.00486e-05
3.7268e-07
1.00468e-05
2.82982e-07
1.00624e-05
3.01835e-07
1.00732e-05
3.21557e-07
1.00717e-05
2.78202e-07
1.00716e-05
2.22634e-07
1.00803e-05
2.087e-07
1.00884e-05
2.09186e-07
1.91972e-07
1.00897e-05
1.0511e-05
1.31718e-07
1.05205e-05
4.41042e-07
1.04938e-05
1.28266e-07
1.05215e-05
2.63633e-07
1.053e-05
4.49371e-07
1.05005e-05
2.56392e-07
1.05111e-05
2.71414e-07
1.05246e-05
4.44071e-07
1.05091e-05
3.3039e-07
1.0512e-05
3.03013e-07
1.05306e-05
3.93877e-07
1.05303e-05
3.72961e-07
1.05272e-05
2.86051e-07
1.05402e-05
2.88903e-07
1.05529e-05
3.08871e-07
1.05539e-05
2.77178e-07
1.05529e-05
2.23603e-07
1.05593e-05
2.02324e-07
1.0568e-05
2.00472e-07
1.88772e-07
1.05712e-05
1.1009e-05
1.12731e-07
1.10243e-05
4.25762e-07
1.09964e-05
1.56185e-07
1.10191e-05
2.40866e-07
1.10341e-05
4.34383e-07
1.1005e-05
2.85531e-07
1.10093e-05
2.67121e-07
1.1026e-05
4.27395e-07
1.1014e-05
3.42369e-07
1.10134e-05
3.03621e-07
1.10314e-05
3.75818e-07
1.10346e-05
3.69747e-07
1.10315e-05
2.8921e-07
1.10415e-05
2.78837e-07
1.1055e-05
2.95456e-07
1.10585e-05
2.73593e-07
1.10577e-05
2.24467e-07
1.1062e-05
1.97988e-07
1.10703e-05
1.92183e-07
1.83853e-07
1.10752e-05
1.1531e-05
9.70538e-08
1.15512e-05
4.05606e-07
1.15238e-05
1.83556e-07
1.15404e-05
2.24252e-07
1.15612e-05
4.13618e-07
1.15346e-05
3.12097e-07
1.15332e-05
2.68595e-07
1.15507e-05
4.09843e-07
1.15429e-05
3.50211e-07
1.154e-05
3.06513e-07
1.15564e-05
3.5943e-07
1.15626e-05
3.63535e-07
1.15602e-05
2.91591e-07
1.15678e-05
2.71264e-07
1.1581e-05
2.82257e-07
1.15867e-05
2.67845e-07
1.15867e-05
2.24533e-07
1.15896e-05
1.95029e-07
1.15967e-05
1.85052e-07
1.77793e-07
1.16028e-05
1.20784e-05
8.45175e-08
1.21022e-05
3.8174e-07
1.20771e-05
2.08633e-07
1.2087e-05
2.14372e-07
1.2112e-05
3.88628e-07
1.20901e-05
3.3398e-07
1.20838e-05
2.74948e-07
1.21004e-05
3.93268e-07
1.20967e-05
3.53865e-07
1.20927e-05
3.10514e-07
1.21069e-05
3.45278e-07
1.21153e-05
3.55088e-07
1.21143e-05
2.92629e-07
1.212e-05
2.65567e-07
1.21323e-05
2.69922e-07
1.21396e-05
2.60524e-07
1.21408e-05
2.23382e-07
1.2143e-05
1.92844e-07
1.21488e-05
1.79189e-07
1.7137e-07
1.21552e-05
1.26523e-05
7.48171e-08
1.26786e-05
3.55479e-07
1.26572e-05
2.29946e-07
1.26607e-05
2.10882e-07
1.26877e-05
3.6164e-07
1.26721e-05
3.49558e-07
1.26622e-05
2.84932e-07
1.26764e-05
3.78983e-07
1.26765e-05
3.53854e-07
1.26724e-05
3.14518e-07
1.26843e-05
3.33461e-07
1.26941e-05
3.45255e-07
1.26947e-05
2.92051e-07
1.26992e-05
2.61089e-07
1.27103e-05
2.58811e-07
1.27186e-05
2.52157e-07
1.27211e-05
2.20901e-07
1.2723e-05
1.90908e-07
1.27278e-05
1.74399e-07
1.65244e-07
1.2734e-05
1.32542e-05
6.7555e-08
1.32814e-05
3.28262e-07
1.32651e-05
2.46274e-07
1.32632e-05
2.12768e-07
1.32899e-05
3.34925e-07
1.32812e-05
3.58309e-07
1.32693e-05
2.96757e-07
1.32805e-05
3.67871e-07
1.32833e-05
3.51042e-07
1.32802e-05
3.17594e-07
1.32899e-05
3.23743e-07
1.33004e-05
3.34758e-07
1.33027e-05
2.898e-07
1.33065e-05
2.57285e-07
1.33162e-05
2.49043e-07
1.33252e-05
2.4321e-07
1.33289e-05
2.17173e-07
1.3331e-05
1.88821e-07
1.3335e-05
1.70352e-07
1.59729e-07
1.33405e-05
1.38854e-05
6.22824e-08
1.39124e-05
3.01265e-07
1.39017e-05
2.57032e-07
1.3896e-05
2.18451e-07
1.39203e-05
3.10666e-07
1.39178e-05
3.60739e-07
1.3906e-05
3.08572e-07
1.39138e-05
3.60061e-07
1.39185e-05
3.46334e-07
1.39169e-05
3.19171e-07
1.39251e-05
3.156e-07
1.39357e-05
3.24197e-07
1.39395e-05
2.85975e-07
1.3943e-05
2.5374e-07
1.39516e-05
2.40488e-07
1.39606e-05
2.3415e-07
1.39655e-05
2.12323e-07
1.3968e-05
1.86341e-07
1.39716e-05
1.66716e-07
1.54844e-07
1.39765e-05
1.45474e-05
5.85342e-08
1.45729e-05
2.75756e-07
1.4568e-05
2.61975e-07
1.45603e-05
2.26113e-07
1.45801e-05
2.9086e-07
1.45826e-05
3.58302e-07
1.45725e-05
3.18593e-07
1.4578e-05
3.54553e-07
1.45838e-05
3.40576e-07
1.4584e-05
3.19007e-07
1.45911e-05
3.0849e-07
1.46014e-05
3.13911e-07
1.46064e-05
2.80898e-07
1.46101e-05
2.5003e-07
1.46177e-05
2.32975e-07
1.46265e-05
2.25329e-07
1.46323e-05
2.06544e-07
1.46353e-05
1.8327e-07
1.46388e-05
1.63263e-07
1.50445e-07
1.46432e-05
1.52415e-05
5.5907e-08
1.5265e-05
2.52304e-07
1.5266e-05
2.60918e-07
1.52566e-05
2.35552e-07
1.527e-05
2.77418e-07
1.52758e-05
3.52565e-07
1.52698e-05
3.2458e-07
1.52743e-05
3.50008e-07
1.52807e-05
3.34166e-07
1.52826e-05
3.17127e-07
1.52891e-05
3.01951e-07
1.52991e-05
3.03965e-07
1.53051e-05
2.74913e-07
1.53092e-05
2.45907e-07
1.5316e-05
2.26196e-07
1.53243e-05
2.16989e-07
1.53307e-05
2.0015e-07
1.53345e-05
1.79486e-07
1.53379e-05
1.5988e-07
1.46324e-07
1.5342e-05
1.59692e-05
5.40169e-08
1.59939e-05
2.27617e-07
1.59965e-05
2.5835e-07
1.59839e-05
2.48102e-07
1.59926e-05
2.68755e-07
1.60012e-05
3.43953e-07
1.59996e-05
3.26132e-07
1.60041e-05
3.45544e-07
1.6011e-05
3.27269e-07
1.60143e-05
3.13827e-07
1.60207e-05
2.95583e-07
1.60302e-05
2.94446e-07
1.60369e-05
2.68163e-07
1.60415e-05
2.41324e-07
1.60479e-05
2.19852e-07
1.60557e-05
2.09152e-07
1.60623e-05
1.93522e-07
1.60669e-05
1.74954e-07
1.60704e-05
1.56321e-07
1.42408e-07
1.60743e-05
1.67316e-05
5.30428e-08
1.6744e-05
2.15157e-07
1.67507e-05
2.51713e-07
1.67449e-05
2.53848e-07
1.67521e-05
2.61534e-07
1.67624e-05
3.3373e-07
1.67642e-05
3.243e-07
1.6769e-05
3.40761e-07
1.67762e-05
3.20019e-07
1.67809e-05
3.09199e-07
1.67873e-05
2.89109e-07
1.67964e-05
2.85381e-07
1.68038e-05
2.60739e-07
1.68089e-05
2.36284e-07
1.68149e-05
2.13796e-07
1.68224e-05
2.01665e-07
1.68291e-05
1.86876e-07
1.68341e-05
1.69939e-07
1.6838e-05
1.52348e-07
1.3861e-07
1.68418e-05
1.7531e-05
5.24067e-08
1.75458e-05
2.00356e-07
1.75511e-05
2.46401e-07
1.75452e-05
2.59772e-07
1.75503e-05
2.56426e-07
1.75607e-05
3.23297e-07
1.75651e-05
3.19897e-07
1.75706e-05
3.35293e-07
1.75779e-05
3.12686e-07
1.75837e-05
3.03429e-07
1.75904e-05
2.82402e-07
1.75991e-05
2.76651e-07
1.76068e-05
2.53034e-07
1.76127e-05
2.30459e-07
1.76185e-05
2.07938e-07
1.76257e-05
1.94455e-07
1.76325e-05
1.80155e-07
1.76377e-05
1.64716e-07
1.7642e-05
1.47989e-07
1.34641e-07
1.7646e-05
1.83687e-05
5.20401e-08
1.83794e-05
1.89683e-07
1.83876e-05
2.38232e-07
1.83842e-05
2.63083e-07
1.83879e-05
2.52738e-07
1.83979e-05
3.13351e-07
1.84041e-05
3.1368e-07
1.84103e-05
3.29066e-07
1.84179e-05
3.05138e-07
1.84246e-05
2.96684e-07
1.84318e-05
2.75246e-07
1.84404e-05
2.68029e-07
1.84482e-05
2.45258e-07
1.84545e-05
2.24093e-07
1.84606e-05
2.01901e-07
1.84674e-05
1.87651e-07
1.84742e-05
1.73306e-07
1.84797e-05
1.59283e-07
1.84841e-05
1.4351e-07
1.30249e-07
1.84885e-05
1.92468e-05
5.16687e-08
1.92561e-05
1.80334e-07
1.92647e-05
2.29675e-07
1.92635e-05
2.64252e-07
1.92664e-05
2.49845e-07
1.92758e-05
3.03978e-07
1.92833e-05
3.06156e-07
1.92903e-05
3.22054e-07
1.9298e-05
2.97484e-07
1.93054e-05
2.89239e-07
1.93131e-05
2.6751e-07
1.93217e-05
2.5949e-07
1.93296e-05
2.37331e-07
1.93363e-05
2.17439e-07
1.93427e-05
1.95442e-07
1.93492e-05
1.81126e-07
1.9356e-05
1.6651e-07
1.93619e-05
1.53413e-07
1.93664e-05
1.38997e-07
1.25616e-07
1.9371e-05
2.01669e-05
5.12145e-08
2.01738e-05
1.73383e-07
2.01837e-05