/*--------------------------------*- C++ -*----------------------------------*\
| =========                 |                                                 |
| \\      /  F ield         | OpenFOAM: The Open Source CFD Toolbox           |
|  \\    /   O peration     | Version:  v1906                                 |
|   \\  /    A nd           | Web:      www.OpenFOAM.com                      |
|    \\/     M anipulation  |                                                 |
\*---------------------------------------------------------------------------*/
FoamFile
{
    version     2.0;
    format      ascii;
    class       volVectorField;
    location    "7.1";
    object      U;
}
// * * * * * * * * * * * * * * * * * * * * * * * * * * * * * * * * * * * * * //

dimensions      [0 1 -1 0 0 0 0];


internalField   nonuniform List<vector> 
9600
(
(0.86798 0.0142981 0)
(1.20577 -0.00429753 0)
(0.814868 -0.00180693 0)
(1.07607 0.00639551 0)
(0.949859 0.0183943 0)
(1.14025 -0.0240618 0)
(0.654825 0.0110566 0)
(1.27302 0.013136 0)
(0.674315 0.00186207 0)
(1.23894 0.0205715 0)
(0.783588 0.00448135 0)
(1.11688 0.015217 0)
(0.842671 0.00570184 0)
(1.08132 0.0135929 0)
(0.863362 0.0165155 0)
(1.07096 0.0111444 0)
(0.855579 0.0228614 0)
(1.07334 0.00343709 0)
(0.832989 0.0172386 0)
(1.08561 0.00214364 0)
(0.871475 0.013815 0)
(1.19507 -0.00363985 0)
(0.820165 -0.000922442 0)
(1.06977 0.005589 0)
(0.952352 0.0175558 0)
(1.13389 -0.0203817 0)
(0.658303 0.00988281 0)
(1.2641 0.0134575 0)
(0.686872 0.00183557 0)
(1.2282 0.0195658 0)
(0.812935 0.00597104 0)
(1.10309 0.0149847 0)
(0.874338 0.00601282 0)
(1.06002 0.0136222 0)
(0.904652 0.0166654 0)
(1.02982 0.0115073 0)
(0.916655 0.022721 0)
(1.00388 0.00394028 0)
(0.926554 0.0181451 0)
(0.976333 0.00266419 0)
(0.879076 0.0132323 0)
(1.17739 -0.00303032 0)
(0.834879 -0.000208036 0)
(1.05442 0.00449796 0)
(0.956741 0.0168968 0)
(1.12398 -0.0175093 0)
(0.67343 0.00778423 0)
(1.24113 0.0136232 0)
(0.724606 0.00168282 0)
(1.19385 0.0182248 0)
(0.868331 0.00768847 0)
(1.06944 0.0141644 0)
(0.920894 0.00661196 0)
(1.02503 0.0132049 0)
(0.9509 0.0171637 0)
(0.994271 0.0115394 0)
(0.958211 0.0228154 0)
(0.978941 0.0043517 0)
(0.960303 0.0172111 0)
(0.972117 0.00394544 0)
(0.890656 0.012768 0)
(1.15398 -0.00253583 0)
(0.859979 0.000543164 0)
(1.03138 0.0036139 0)
(0.962865 0.016182 0)
(1.10992 -0.0146491 0)
(0.706562 0.00603961 0)
(1.20043 0.0133405 0)
(0.788048 0.00187999 0)
(1.13621 0.0166006 0)
(0.927722 0.00930138 0)
(1.03063 0.0134503 0)
(0.953177 0.00723006 0)
(0.995578 0.0126335 0)
(0.972292 0.0176266 0)
(0.978324 0.0114578 0)
(0.969885 0.0230161 0)
(0.973865 0.00437974 0)
(0.966586 0.0172453 0)
(0.97363 0.00437766 0)
(0.905488 0.0124135 0)
(1.12656 -0.00217812 0)
(0.892104 0.00136749 0)
(1.00579 0.00291606 0)
(0.97005 0.0153522 0)
(1.09279 -0.0121293 0)
(0.757557 0.00491144 0)
(1.14616 0.0125923 0)
(0.859754 0.00253887 0)
(1.07166 0.0148725 0)
(0.969718 0.0105661 0)
(1.00347 0.013285 0)
(0.966054 0.00772656 0)
(0.97696 0.0123027 0)
(0.973781 0.0178664 0)
(0.970626 0.0116493 0)
(0.968265 0.0229092 0)
(0.971081 0.00471248 0)
(0.966317 0.0171101 0)
(0.973425 0.0050868 0)
(0.922212 0.0121445 0)
(1.09804 -0.00197845 0)
(0.92545 0.0022533 0)
(0.984526 0.00238784 0)
(0.976709 0.0144328 0)
(1.07501 -0.0100627 0)
(0.817395 0.00435967 0)
(1.08966 0.0114963 0)
(0.919149 0.00338861 0)
(1.02 0.0135034 0)
(0.989925 0.0113263 0)
(0.991564 0.0135628 0)
(0.970109 0.008223 0)
(0.966813 0.0122388 0)
(0.968293 0.0179994 0)
(0.965825 0.0118803 0)
(0.964553 0.0226455 0)
(0.970337 0.00505979 0)
(0.966907 0.0165256 0)
(0.975441 0.00575251 0)
(0.939093 0.0119545 0)
(1.07174 -0.00192129 0)
(0.954499 0.00311752 0)
(0.972752 0.00205911 0)
(0.981432 0.0134921 0)
(1.05927 -0.00854762 0)
(0.873321 0.00429442 0)
(1.04263 0.0103436 0)
(0.957016 0.00417043 0)
(0.990082 0.0126657 0)
(0.995874 0.0115962 0)
(0.989302 0.0139895 0)
(0.973715 0.00881124 0)
(0.963457 0.0123506 0)
(0.963998 0.018061 0)
(0.964149 0.0120002 0)
(0.96378 0.0222432 0)
(0.972672 0.00529862 0)
(0.970538 0.0157579 0)
(0.979764 0.00635023 0)
(0.954519 0.0118313 0)
(1.05015 -0.00196714 0)
(0.976142 0.00387956 0)
(0.971231 0.00193327 0)
(0.984222 0.0126056 0)
(1.04696 -0.00756304 0)
(0.916324 0.00463065 0)
(1.01099 0.00939941 0)
(0.976156 0.00474412 0)
(0.978316 0.0122117 0)
(0.996189 0.0115384 0)
(0.990626 0.0143627 0)
(0.97855 0.00944721 0)
(0.965389 0.0125795 0)
(0.964052 0.0180942 0)
(0.966133 0.0120156 0)
(0.966975 0.0216806 0)
(0.977626 0.00546034 0)
(0.976661 0.0148916 0)
(0.985387 0.00693053 0)
(0.967426 0.011751 0)
(1.03423 -0.00206472 0)
(0.99013 0.00448471 0)
(0.976734 0.00196953 0)
(0.986435 0.0118336 0)
(1.03762 -0.00698366 0)
(0.94434 0.00523082 0)
(0.994307 0.00872818 0)
(0.984435 0.00508501 0)
(0.97656 0.0119498 0)
(0.995591 0.0113409 0)
(0.992426 0.0146107 0)
(0.983443 0.0100574 0)
(0.970391 0.0128765 0)
(0.968273 0.0181258 0)
(0.971389 0.0119742 0)
(0.973245 0.0209913 0)
(0.984168 0.00560677 0)
(0.983914 0.0139662 0)
(0.991391 0.0075089 0)
(0.97743 0.0116883 0)
(1.0235 -0.00216939 0)
(0.998099 0.00491212 0)
(0.984744 0.00210265 0)
(0.989509 0.0112148 0)
(1.02996 -0.00664649 0)
(0.960512 0.00593072 0)
(0.988557 0.00826108 0)
(0.988624 0.00525473 0)
(0.978753 0.0117808 0)
(0.99554 0.0111146 0)
(0.993918 0.0147446 0)
(0.987592 0.0106005 0)
(0.976506 0.0131604 0)
(0.975034 0.0181321 0)
(0.97876 0.0119091 0)
(0.981228 0.0202278 0)
(0.991295 0.00579327 0)
(0.99118 0.0130392 0)
(0.997075 0.00809247 0)
(0.984701 0.0116249 0)
(1.01679 -0.00225463 0)
(1.00216 0.00517766 0)
(0.991917 0.00226833 0)
(0.993838 0.0107597 0)
(1.02309 -0.00641627 0)
(0.969615 0.00659681 0)
(0.989078 0.00790707 0)
(0.992073 0.00533309 0)
(0.982189 0.0116762 0)
(0.996274 0.0109045 0)
(0.995325 0.0148005 0)
(0.991056 0.0110529 0)
(0.982643 0.0133531 0)
(0.982686 0.0180864 0)
(0.986821 0.0118258 0)
(0.989565 0.0194341 0)
(0.998096 0.00606055 0)
(0.997687 0.0121679 0)
(1.00192 0.00870685 0)
(0.989726 0.0115504 0)
(1.01284 -0.00230969 0)
(1.00397 0.00532042 0)
(0.996881 0.00242072 0)
(0.99871 0.0104526 0)
(1.01709 -0.00621134 0)
(0.975351 0.00715407 0)
(0.99217 0.0076003 0)
(0.995474 0.00536912 0)
(0.985956 0.0116246 0)
(0.997728 0.0107291 0)
(0.996959 0.0148036 0)
(0.994138 0.0114005 0)
(0.988296 0.0134406 0)
(0.990028 0.0179587 0)
(0.994337 0.0117343 0)
(0.99709 0.0186541 0)
(1.00382 0.00642248 0)
(1.00292 0.0113979 0)
(1.00561 0.00931339 0)
(0.993105 0.0114593 0)
(1.01068 -0.00233162 0)
(1.0045 0.00538248 0)
(0.999718 0.00253827 0)
(1.00307 0.0102594 0)
(1.01248 -0.00599455 0)
(0.979515 0.00758137 0)
(0.995584 0.00731268 0)
(0.998522 0.00537816 0)
(0.989544 0.0116181 0)
(0.999602 0.0105886 0)
(0.998803 0.014769 0)
(0.996918 0.0116551 0)
(0.993147 0.0134368 0)
(0.996279 0.0177426 0)
(1.00051 0.0116545 0)
(1.00305 0.0179064 0)
(1.00808 0.00688231 0)
(1.00668 0.010756 0)
(1.00807 0.00986821 0)
(0.995397 0.0113492 0)
(1.00953 -0.00231977 0)
(1.00434 0.00539585 0)
(1.00111 0.00261829 0)
(1.00631 0.0101363 0)
(1.00951 -0.0057556 0)
(0.982637 0.00789231 0)
(0.998352 0.00704083 0)
(1.00096 0.00536102 0)
(0.992469 0.0116479 0)
(1.00143 0.0104721 0)
(1.00057 0.0147129 0)
(0.999254 0.0118416 0)
(0.996978 0.0133505 0)
(1.00106 0.0174683 0)
(1.00505 0.0116003 0)
(1.00726 0.017209 0)
(1.01088 0.00741087 0)
(1.00914 0.010244 0)
(1.00952 0.0103594 0)
(0.997003 0.0112191 0)
(1.00886 -0.00227388 0)
(1.00397 0.00537773 0)
(1.00168 0.00266922 0)
(1.00846 0.0100448 0)
(1.00779 -0.0054963 0)
(0.984964 0.00811606 0)
(1.00038 0.00678481 0)
(1.00278 0.00532006 0)
(0.994469 0.0117042 0)
(1.00284 0.0103683 0)
(1.00199 0.0146477 0)
(1.00103 0.0119716 0)
(0.999768 0.0132109 0)
(1.0044 0.0171585 0)
(1.00811 0.0115705 0)
(1.00996 0.0165892 0)
(1.01257 0.00796867 0)
(1.01071 0.00985361 0)
(1.01032 0.010781 0)
(0.998117 0.0110705 0)
(1.00837 -0.00219648 0)
(1.00378 0.00533584 0)
(1.00181 0.00270123 0)
(1.00992 0.00996228 0)
(1.00664 -0.00521945 0)
(0.986907 0.00827318 0)
(1.00193 0.0065491 0)
(1.00403 0.00525887 0)
(0.995616 0.0117896 0)
(1.00379 0.0102648 0)
(1.00303 0.0145713 0)
(1.00233 0.0120637 0)
(1.00171 0.0130399 0)
(1.0066 0.0168231 0)
(1.01004 0.0115596 0)
(1.01158 0.0160326 0)
(1.01351 0.00854411 0)
(1.01175 0.0095844 0)
(1.0108 0.0111284 0)
(0.998784 0.0109066 0)
(1.00793 -0.00209389 0)
(1.00397 0.0052743 0)
(1.00161 0.00272415 0)
(1.01098 0.00988022 0)
(1.00559 -0.00492817 0)
(0.988837 0.00836726 0)
(1.00327 0.0063484 0)
(1.00471 0.00518573 0)
(0.996157 0.0119009 0)
(1.00442 0.0101501 0)
(1.00383 0.0144788 0)
(1.00334 0.0121352 0)
(1.00308 0.0128462 0)
(1.008 0.0164881 0)
(1.01117 0.0115436 0)
(1.01247 0.0155296 0)
(1.01392 0.00910938 0)
(1.01244 0.0093964 0)
(1.01111 0.0113919 0)
(0.999036 0.010731 0)
(1.00757 -0.0019747 0)
(1.00448 0.00519687 0)
(1.00117 0.00274962 0)
(1.01165 0.0097929 0)
(1.00461 -0.00462677 0)
(0.990795 0.00839648 0)
(1.00438 0.00620246 0)
(1.00485 0.00510803 0)
(0.996297 0.0120233 0)
(1.00488 0.0100184 0)
(1.00449 0.0143669 0)
(1.00416 0.0121939 0)
(1.00407 0.012642 0)
(1.0088 0.0161733 0)
(1.0117 0.0115131 0)
(1.01278 0.0150677 0)
(1.0139 0.00964457 0)
(1.0128 0.00926316 0)
(1.01127 0.0115712 0)
(0.998975 0.0105467 0)
(1.0073 -0.00184716 0)
(1.00512 0.0051086 0)
(1.0006 0.00278792 0)
(1.01188 0.00969434 0)
(1.00391 -0.00431899 0)
(0.992553 0.00836507 0)
(1.00513 0.00612634 0)
(1.00461 0.00502767 0)
(0.996157 0.0121434 0)
(1.00518 0.00986847 0)
(1.00502 0.0142299 0)
(1.00478 0.0122544 0)
(1.00476 0.0124332 0)
(1.00913 0.0158737 0)
(1.01177 0.0114991 0)
(1.01265 0.0146307 0)
(1.01352 0.0101425 0)
(1.01284 0.00917012 0)
(1.01128 0.011658 0)
(0.998757 0.0103549 0)
(1.00712 -0.0017151 0)
(1.00571 0.00501206 0)
(1.00005 0.00284858 0)
(1.01171 0.0095745 0)
(1.00358 -0.0040044 0)
(0.99389 0.00828288 0)
(1.00545 0.00612319 0)
(1.00423 0.00494373 0)
(0.995854 0.0122531 0)
(1.00527 0.00970272 0)
(1.00539 0.0140593 0)
(1.00514 0.0123315 0)
(1.0052 0.0122069 0)
(1.0091 0.0156172 0)
(1.01155 0.0115019 0)
(1.01222 0.0141969 0)
(1.01292 0.0106168 0)
(1.01263 0.00911669 0)
(1.0112 0.0116355 0)
(0.998521 0.0101555 0)
(1.00699 -0.00157826 0)
(1.00616 0.00490653 0)
(0.999611 0.00293802 0)
(1.01132 0.00942455 0)
(1.00354 -0.00368172 0)
(0.994768 0.0081661 0)
(1.00543 0.00618234 0)
(1.0039 0.00485261 0)
(0.99554 0.0123512 0)
(1.00517 0.0095296 0)
(1.00561 0.0138447 0)
(1.00525 0.0124301 0)
(1.00547 0.0119715 0)
(1.00888 0.0153984 0)
(1.01121 0.0115273 0)
(1.01169 0.013749 0)
(1.01228 0.0110736 0)
(1.0123 0.00912449 0)
(1.01112 0.0115007 0)
(0.998341 0.00994729 0)
(1.00688 -0.00143411 0)
(1.00648 0.00478959 0)
(0.999336 0.00305736 0)
(1.01087 0.00924203 0)
(1.00366 -0.00334621 0)
(0.995293 0.00802567 0)
(1.00524 0.00628951 0)
(1.00368 0.00475305 0)
(0.995345 0.0124387 0)
(1.00494 0.00936475 0)
(1.00575 0.0135795 0)
(1.00519 0.0125522 0)
(1.00566 0.0117294 0)
(1.00859 0.0151874 0)
(1.01091 0.0116059 0)
(1.01122 0.013286 0)
(1.01172 0.0114864 0)
(1.01195 0.00920768 0)
(1.01111 0.0112554 0)
(0.998228 0.00972904 0)
(1.00677 -0.00127916 0)
(1.00669 0.00465723 0)
(0.999218 0.00320588 0)
(1.01045 0.00902665 0)
(1.00382 -0.00299052 0)
(0.995593 0.00786347 0)
(1.00505 0.00643465 0)
(1.00356 0.00463713 0)
(0.995326 0.0125178 0)
(1.00468 0.00922505 0)
(1.00588 0.0132575 0)
(1.00502 0.0126961 0)
(1.00583 0.0114862 0)
(1.00832 0.0149685 0)
(1.01069 0.0117309 0)
(1.01087 0.0128063 0)
(1.01132 0.0118251 0)
(1.01164 0.00939138 0)
(1.0112 0.010929 0)
(0.998164 0.00949969 0)
(1.00667 -0.00111093 0)
(1.0068 0.00450755 0)
(0.999233 0.00337964 0)
(1.01007 0.00878416 0)
(1.004 -0.00261636 0)
(0.995759 0.00768743 0)
(1.00493 0.00660722 0)
(1.00351 0.00451133 0)
(0.995469 0.0125825 0)
(1.00444 0.00911439 0)
(1.00603 0.0128863 0)
(1.00479 0.0128602 0)
(1.006 0.0112516 0)
(1.00811 0.0147173 0)
(1.01054 0.0119022 0)
(1.01064 0.0123292 0)
(1.01106 0.0120505 0)
(1.01137 0.00967655 0)
(1.01136 0.010573 0)
(0.998129 0.00925777 0)
(1.00659 -0.00092608 0)
(1.00682 0.00433716 0)
(0.999351 0.00357823 0)
(1.00968 0.0085152 0)
(1.00419 -0.00221797 0)
(0.995846 0.00749409 0)
(1.00489 0.0067992 0)
(1.00348 0.00438229 0)
(0.995718 0.0126186 0)
(1.00422 0.00905069 0)
(1.00622 0.0124694 0)
(1.00455 0.0130341 0)
(1.00616 0.0110311 0)
(1.00797 0.0144204 0)
(1.01042 0.0121233 0)
(1.0105 0.011889 0)
(1.01091 0.0121341 0)
(1.01113 0.0100395 0)
(1.01154 0.0102636 0)
(0.998116 0.00900273 0)
(1.00652 -0.000723832 0)
(1.00677 0.00414584 0)
(0.999546 0.00379967 0)
(1.00927 0.00822347 0)
(1.0044 -0.00179717 0)
(0.995894 0.00728438 0)
(1.0049 0.00700147 0)
(1.00349 0.00425369 0)
(0.996017 0.0126149 0)
(1.00404 0.00904723 0)
(1.00642 0.0120081 0)
(1.0043 0.0131986 0)
(1.00626 0.0108535 0)
(1.00789 0.0140621 0)
(1.01029 0.0123713 0)
(1.0104 0.0115186 0)
(1.01084 0.0120803 0)
(1.01092 0.0104434 0)
(1.01169 0.0100692 0)
(0.998125 0.00873319 0)
(1.00646 -0.000500709 0)
(1.00665 0.00393116 0)
(0.99979 0.00404167 0)
(1.00883 0.00791489 0)
(1.00462 -0.00135756 0)
(0.995943 0.00706905 0)
(1.00493 0.00720113 0)
(1.00354 0.00413835 0)
(0.996325 0.0125681 0)
(1.00388 0.00909778 0)
(1.00663 0.0115173 0)
(1.00406 0.0133437 0)
(1.0063 0.0107345 0)
(1.00787 0.0136383 0)
(1.01013 0.0126298 0)
(1.01033 0.0112484 0)
(1.01081 0.0118911 0)
(1.01074 0.0108181 0)
(1.01177 0.0100278 0)
(0.998159 0.00844877 0)
(1.00639 -0.000256379 0)
(1.00649 0.00369293 0)
(1.00005 0.004302 0)
(1.00838 0.00759093 0)
(1.00483 -0.000909711 0)
(0.996028 0.00685776 0)
(1.00495 0.00738746 0)
(1.00364 0.00404169 0)
(0.996617 0.0124748 0)
(1.00374 0.00919909 0)
(1.00683 0.0110182 0)
(1.00385 0.0134515 0)
(1.00627 0.0106937 0)
(1.0079 0.0131487 0)
(1.00996 0.0128609 0)
(1.01023 0.0111021 0)
(1.01082 0.011593 0)
(1.0106 0.0110988 0)
(1.01176 0.0101601 0)
(0.998219 0.00814978 0)
(1.0063 8.52378e-06 0)
(1.00631 0.00343425 0)
(1.00031 0.00457585 0)
(1.00795 0.00725567 0)
(1.005 -0.000463252 0)
(0.996172 0.00665733 0)
(1.00493 0.00755073 0)
(1.0038 0.00397753 0)
(0.996889 0.0123332 0)
(1.00361 0.00933937 0)
(1.00703 0.0105229 0)
(1.00368 0.0135056 0)
(1.00617 0.0107287 0)
(1.00796 0.0126092 0)
(1.00979 0.0130257 0)
(1.01011 0.0110851 0)
(1.01085 0.0112401 0)
(1.01051 0.0112354 0)
(1.01168 0.0104271 0)
(0.998303 0.00783445 0)
(1.00619 0.000298731 0)
(1.00614 0.00315327 0)
(1.00053 0.00485821 0)
(1.00756 0.00691952 0)
(1.00512 -2.69176e-05 0)
(0.996378 0.00647128 0)
(1.00488 0.00768075 0)
(1.004 0.00395462 0)
(0.997145 0.0121455 0)
(1.00347 0.00951381 0)
(1.00722 0.0100401 0)
(1.00356 0.0134911 0)
(1.00602 0.0108343 0)
(1.00807 0.0120553 0)
(1.00965 0.0131042 0)
(1.00995 0.0111843 0)
(1.01087 0.0108928 0)
(1.0105 0.0112042 0)
(1.01155 0.0107299 0)
(0.998404 0.00750417 0)
(1.00606 0.000610642 0)
(1.00599 0.00285427 0)
(1.00071 0.00514536 0)
(1.00722 0.00658805 0)
(1.00519 0.000389706 0)
(0.996636 0.00632228 0)
(1.0048 0.00777468 0)
(1.00423 0.00396068 0)
(0.997397 0.0119223 0)
(1.00333 0.00971964 0)
(1.00743 0.00958686 0)
(1.00351 0.0134057 0)
(1.00583 0.0110093 0)
(1.00818 0.0115132 0)
(1.00957 0.0130807 0)
(1.00975 0.0113721 0)
(1.01088 0.0106043 0)
(1.01056 0.0110157 0)
(1.01142 0.0109638 0)
(0.998513 0.00715865 0)
(1.00589 0.000942627 0)
(1.00588 0.00254243 0)
(1.00085 0.00542686 0)
(1.00692 0.00627525 0)
(1.00522 0.000777974 0)
(0.996925 0.00622178 0)
(1.00469 0.00782546 0)
(1.00446 0.00399406 0)
(0.997658 0.011671 0)
(1.00318 0.00993242 0)
(1.00763 0.00917921 0)
(1.00352 0.0132508 0)
(1.00561 0.0112386 0)
(1.0083 0.0110097 0)
(1.00956 0.0129385 0)
(1.00952 0.0116081 0)
(1.01083 0.0104162 0)
(1.01066 0.0107189 0)
(1.01134 0.0110579 0)
(0.998625 0.00679932 0)
(1.00571 0.00129344 0)
(1.00581 0.00222091 0)
(1.00095 0.00569897 0)
(1.00666 0.00598259 0)
(1.00522 0.00112794 0)
(0.997224 0.00616314 0)
(1.00458 0.0078329 0)
(1.00468 0.00405315 0)
(0.997935 0.0113937 0)
(1.00301 0.0101343 0)
(1.00783 0.00881882 0)
(1.0036 0.0130166 0)
(1.00537 0.0115094 0)
(1.0084 0.0105706 0)
(1.00962 0.0126658 0)
(1.00929 0.0118528 0)
(1.01073 0.0103491 0)
(1.01079 0.0103876 0)
(1.01134 0.0109853 0)
(0.998734 0.00642823 0)
(1.00549 0.00165687 0)
(1.00577 0.00190034 0)
(1.00101 0.00595184 0)
(1.00642 0.0057186 0)
(1.00521 0.00142986 0)
(0.997517 0.0061518 0)
(1.00445 0.00781727 0)
(1.0049 0.00412874 0)
(0.998233 0.011104 0)
(1.00283 0.0103238 0)
(1.00801 0.00850394 0)
(1.00376 0.0126994 0)
(1.00512 0.011803 0)
(1.00846 0.0102243 0)
(1.00975 0.0122749 0)
(1.00908 0.0120699 0)
(1.01056 0.0103993 0)
(1.0109 0.0100838 0)
(1.01143 0.0107647 0)
(0.99884 0.0060455 0)
(1.00526 0.00203055 0)
(1.00576 0.00158339 0)
(1.00107 0.00617309 0)
(1.00618 0.00550871 0)
(1.00519 0.00166917 0)
(0.997801 0.00618148 0)
(1.00432 0.00779764 0)
(1.0051 0.00420209 0)
(0.998555 0.0108132 0)
(1.00264 0.0105026 0)
(1.00818 0.00824447 0)
(1.004 0.0123116 0)
(1.00486 0.0120945 0)
(1.00846 0.00999541 0)
(1.00994 0.0117846 0)
(1.00892 0.0122172 0)
(1.01032 0.0105473 0)
(1.01097 0.00985062 0)
(1.01158 0.0104565 0)
(0.998943 0.00565343 0)
(1.00501 0.0024086 0)
(1.00575 0.00127945 0)
(1.00111 0.00635606 0)
(1.00592 0.00535279 0)
(1.00518 0.00184246 0)
(0.998074 0.00623702 0)
(1.00417 0.00777236 0)
(1.00528 0.00426953 0)
(0.998902 0.0105179 0)
(1.00245 0.0106698 0)
(1.00831 0.00804869 0)
(1.0043 0.0118635 0)
(1.00463 0.0123468 0)
(1.0084 0.00989242 0)
(1.01018 0.0112245 0)
(1.00883 0.0122591 0)
(1.01003 0.0107659 0)
(1.01096 0.00970213 0)
(1.01176 0.0101381 0)
(0.999042 0.00525632 0)
(1.00473 0.00278344 0)
(1.00575 0.000997163 0)
(1.00116 0.00648738 0)
(1.00566 0.00526238 0)
(1.00518 0.00194897 0)
(0.998342 0.00630767 0)
(1.00402 0.0077589 0)
(1.00545 0.00431798 0)
(0.999276 0.0102134 0)
(1.00225 0.0108226 0)
(1.0084 0.00792226 0)
(1.00467 0.0113613 0)
(1.00442 0.0125368 0)
(1.00825 0.00992423 0)
(1.01043 0.0106447 0)
(1.00883 0.0121632 0)
(1.00972 0.0110308 0)
(1.01088 0.00963342 0)
(1.01192 0.0098471 0)
(0.999139 0.00485536 0)
(1.00444 0.00315109 0)
(1.00575 0.000744577 0)
(1.00122 0.00655271 0)
(1.00537 0.00525018 0)
(1.00518 0.00200266 0)
(0.998611 0.00637849 0)
(1.00386 0.00777863 0)
(1.0056 0.00434761 0)
(0.999681 0.00989075 0)
(1.00206 0.0109598 0)
(1.00843 0.00786255 0)
(1.00508 0.0108187 0)
(1.00428 0.0126447 0)
(1.00801 0.0100784 0)
(1.01068 0.0101028 0)
(1.00893 0.0119021 0)
(1.0094 0.0113112 0)
(1.0107 0.00966422 0)
(1.01206 0.00957887 0)
(0.999234 0.00445273 0)
(1.00414 0.00350626 0)
(1.00573 0.000534008 0)
(1.00128 0.00653607 0)
(1.00507 0.005321 0)
(1.00518 0.00202277 0)
(0.998888 0.00642222 0)
(1.00368 0.00783704 0)
(1.00574 0.00437379 0)
(1.00012 0.00954208 0)
(1.00188 0.011077 0)
(1.00841 0.00787015 0)
(1.00554 0.0102505 0)
(1.0042 0.0126444 0)
(1.0077 0.0103236 0)
(1.01088 0.00965871 0)
(1.00914 0.0114768 0)
(1.00912 0.0115413 0)
(1.01044 0.00982279 0)
(1.01215 0.0093387 0)
(0.999326 0.00405374 0)
(1.00382 0.00383991 0)
(1.00569 0.000375469 0)
(1.00136 0.00643242 0)
(1.00474 0.00545758 0)
(1.00518 0.00202526 0)
(0.999179 0.00642422 0)
(1.0035 0.007937 0)
(1.00585 0.00441032 0)
(1.00058 0.00916695 0)
(1.00172 0.0111672 0)
(1.00832 0.00795115 0)
(1.00602 0.00968083 0)
(1.00422 0.0125242 0)
(1.00734 0.0106232 0)
(1.01099 0.00935953 0)
(1.00945 0.0109238 0)
(1.00893 0.0116321 0)
(1.01009 0.0100928 0)
(1.01214 0.00918132 0)
(0.999415 0.00366126 0)
(1.00349 0.00414391 0)
(1.00563 0.000278593 0)
(1.00146 0.00623854 0)
(1.00441 0.00564265 0)
(1.00516 0.00202938 0)
(0.99949 0.00636546 0)
(1.0033 0.00807911 0)
(1.00592 0.00448434 0)
(1.00108 0.00876285 0)
(1.0016 0.0112125 0)
(1.00816 0.00810384 0)
(1.00649 0.00913534 0)
(1.00435 0.0122831 0)
(1.00696 0.010927 0)
(1.01099 0.00922248 0)
(1.00981 0.0103251 0)
(1.00888 0.0115381 0)
(1.0097 0.0103933 0)
(1.012 0.00916939 0)
(0.999501 0.00327911 0)
(1.00316 0.0044106 0)
(1.00554 0.000249169 0)
(1.00157 0.00595941 0)
(1.00407 0.00585999 0)
(1.00513 0.00205988 0)
(0.999824 0.00623159 0)
(1.00311 0.00824283 0)
(1.00596 0.0045996 0)
(1.0016 0.00832752 0)
(1.00153 0.0111921 0)
(1.00793 0.00832262 0)
(1.00694 0.00864535 0)
(1.00459 0.011927 0)
(1.00658 0.011189 0)
(1.01086 0.00922996 0)
(1.01017 0.00976184 0)
(1.00896 0.0112679 0)
(1.00933 0.0106204 0)
(1.01173 0.00930432 0)
(0.999583 0.00291117 0)
(1.00283 0.00463408 0)
(1.00542 0.000288995 0)
(1.00171 0.00561167 0)
(1.00372 0.00608017 0)
(1.00506 0.00214542 0)
(1.00018 0.0060162 0)
(1.00293 0.00840001 0)
(1.00594 0.00477876 0)
(1.00214 0.00787979 0)
(1.00153 0.0110899 0)
(1.00764 0.00858863 0)
(1.00734 0.00824297 0)
(1.00492 0.0114669 0)
(1.00626 0.0113729 0)
(1.01061 0.00935362 0)
(1.01049 0.00928755 0)
(1.00917 0.010862 0)
(1.00904 0.0107157 0)
(1.01137 0.00951205 0)
(0.999662 0.00256098 0)
(1.00249 0.00480852 0)
(1.00526 0.000397284 0)
(1.00185 0.00520952 0)
(1.00339 0.0062815 0)
(1.00496 0.00230118 0)
(1.00056 0.00572727 0)
(1.00278 0.00852628 0)
(1.00587 0.00503664 0)
(1.00268 0.00745005 0)
(1.0016 0.0108975 0)
(1.00732 0.00887666 0)
(1.00767 0.00795637 0)
(1.00534 0.0109244 0)
(1.00602 0.011438 0)
(1.01027 0.0095553 0)
(1.01073 0.00893664 0)
(1.00947 0.0103689 0)
(1.00886 0.0106704 0)
(1.01095 0.00969147 0)
(0.999737 0.00223369 0)
(1.00217 0.00492585 0)
(1.00505 0.000569689 0)
(1.00201 0.00477897 0)
(1.00308 0.00643721 0)
(1.00481 0.00254164 0)
(1.00094 0.00539439 0)
(1.00266 0.008584 0)
(1.00574 0.00536891 0)
(1.00319 0.00707814 0)
(1.00175 0.0106175 0)
(1.00697 0.00915072 0)
(1.0079 0.00779885 0)
(1.00582 0.0103434 0)
(1.00588 0.0113559 0)
(1.00986 0.00977714 0)
(1.01085 0.00872653 0)
(1.00983 0.00984218 0)
(1.00881 0.0104998 0)
(1.01056 0.00979505 0)
(0.999807 0.00193168 0)
(1.00185 0.00498392 0)
(1.00481 0.000797434 0)
(1.00217 0.00434406 0)
(1.00279 0.00652261 0)
(1.00462 0.00287939 0)
(1.00133 0.00505695 0)
(1.0026 0.00855218 0)
(1.00557 0.00575077 0)
(1.00365 0.00679232 0)
(1.00198 0.0102573 0)
(1.00663 0.00937428 0)
(1.00804 0.00775957 0)
(1.00631 0.00978015 0)
(1.00585 0.0111308 0)
(1.00943 0.0099581 0)
(1.01083 0.00865473 0)
(1.01018 0.00934362 0)
(1.00888 0.0102167 0)
(1.01021 0.00982323 0)
(0.999872 0.00165864 0)
(1.00155 0.00497657 0)
(1.00453 0.00107363 0)
(1.00233 0.00392189 0)
(1.00255 0.00652484 0)
(1.00439 0.0032987 0)
(1.0017 0.00476127 0)
(1.0026 0.00841468 0)
(1.00537 0.00612735 0)
(1.00406 0.00660474 0)
(1.00226 0.00984339 0)
(1.00632 0.00951999 0)
(1.00807 0.00780572 0)
(1.00678 0.00926999 0)
(1.00594 0.0107873 0)
(1.00903 0.0100536 0)
(1.01069 0.00868334 0)
(1.01049 0.00893187 0)
(1.00906 0.00983631 0)
(1.00995 0.00977611 0)
(0.999931 0.00141869 0)
(1.00127 0.00490028 0)
(1.00421 0.0013838 0)
(1.00249 0.00353731 0)
(1.00235 0.00643733 0)
(1.00412 0.00375999 0)
(1.00203 0.0045463 0)
(1.00266 0.0081747 0)
(1.00516 0.00645938 0)
(1.0044 0.00652016 0)
(1.0026 0.00940747 0)
(1.00606 0.00956701 0)
(1.00802 0.00789862 0)
(1.00721 0.00884153 0)
(1.00612 0.010367 0)
(1.00868 0.0100471 0)
(1.01046 0.00875077 0)
(1.01071 0.00863494 0)
(1.00931 0.00940586 0)
(1.00978 0.00964133 0)
(0.999984 0.0012123 0)
(1.00101 0.00475541 0)
(1.00387 0.00171849 0)
(1.00262 0.00320974 0)
(1.00221 0.00625078 0)
(1.00383 0.00422516 0)
(1.0023 0.00444077 0)
(1.00276 0.00787034 0)
(1.00497 0.00671703 0)
(1.00466 0.00651862 0)
(1.00295 0.00897712 0)
(1.00585 0.00951969 0)
(1.0079 0.00800802 0)
(1.00756 0.00850719 0)
(1.00636 0.00990705 0)
(1.00841 0.00993765 0)
(1.01018 0.00880743 0)
(1.01081 0.00844413 0)
(1.00959 0.00899019 0)
(1.00973 0.00940698 0)
(1.00003 0.00104034 0)
(1.00079 0.00455062 0)
(1.00351 0.00205449 0)
(1.00273 0.00295963 0)
(1.00213 0.00597038 0)
(1.00354 0.00465861 0)
(1.00252 0.00445045 0)
(1.0029 0.00754613 0)
(1.00479 0.00688568 0)
(1.00486 0.00657245 0)
(1.00332 0.00857584 0)
(1.00571 0.00938758 0)
(1.00773 0.00810189 0)
(1.00783 0.00825816 0)
(1.00664 0.00944443 0)
(1.00823 0.00974155 0)
(1.00988 0.00883183 0)
(1.01082 0.00833328 0)
(1.00984 0.00863996 0)
(1.00978 0.00909354 0)
(1.00007 0.000901411 0)
(1.0006 0.00429768 0)
(1.00314 0.00237251 0)
(1.00279 0.00280017 0)
(1.0021 0.00562108 0)
(1.00327 0.00502599 0)
(1.00268 0.00455308 0)
(1.00305 0.00723912 0)
(1.00465 0.00697308 0)
(1.005 0.00665162 0)
(1.00366 0.00822222 0)
(1.00562 0.0091898 0)
(1.00755 0.00816154 0)
(1.00802 0.00808006 0)
(1.00693 0.00901318 0)
(1.00814 0.00947381 0)
(1.00959 0.00880196 0)
(1.01075 0.00825846 0)
(1.01004 0.00836848 0)
(1.00989 0.00875468 0)
(1.00011 0.000793416 0)
(1.00045 0.00401203 0)
(1.00278 0.00265187 0)
(1.00282 0.00273194 0)
(1.00212 0.00523954 0)
(1.00304 0.00530342 0)
(1.00278 0.0047174 0)
(1.00321 0.00697301 0)
(1.00455 0.00698923 0)
(1.0051 0.00673152 0)
(1.00399 0.00792216 0)
(1.0056 0.00894715 0)
(1.00737 0.00817148 0)
(1.00813 0.00794977 0)
(1.00721 0.00863489 0)
(1.00811 0.00916357 0)
(1.00935 0.00870865 0)
(1.01062 0.00818132 0)
(1.01017 0.00815277 0)
(1.01003 0.00843594 0)
(1.00013 0.000711566 0)
(1.00033 0.00371511 0)
(1.00243 0.0028694 0)
(1.0028 0.00274418 0)
(1.00217 0.00485695 0)
(1.00285 0.00547032 0)
(1.00284 0.00491407 0)
(1.00335 0.00677254 0)
(1.00449 0.00695538 0)
(1.00516 0.00680225 0)
(1.00428 0.00766918 0)
(1.00562 0.00867512 0)
(1.00721 0.00812544 0)
(1.00818 0.00784445 0)
(1.00746 0.00830883 0)
(1.00814 0.00884191 0)
(1.00914 0.0085638 0)
(1.01047 0.00808554 0)
(1.01023 0.00796161 0)
(1.01015 0.00815235 0)
(1.00015 0.000651492 0)
(1.00024 0.00341562 0)
(1.00211 0.00302873 0)
(1.00274 0.00280863 0)
(1.00224 0.00449818 0)
(1.00272 0.0055178 0)
(1.00287 0.00510144 0)
(1.00348 0.00662584 0)
(1.00445 0.00689649 0)
(1.00519 0.00686362 0)
(1.00453 0.00746963 0)
(1.00566 0.00839959 0)
(1.00707 0.00803816 0)
(1.00818 0.00775596 0)
(1.00767 0.00802827 0)
(1.00821 0.0085194 0)
(1.00899 0.00838382 0)
(1.0103 0.00797445 0)
(1.01025 0.00777933 0)
(1.01025 0.00789755 0)
(1.00017 0.000606843 0)
(1.00018 0.00312557 0)
(1.00182 0.00311982 0)
(1.00265 0.00291018 0)
(1.00232 0.00420278 0)
(1.00264 0.00549157 0)
(1.00288 0.00525829 0)
(1.00358 0.00650541 0)
(1.00444 0.00680226 0)
(1.00521 0.00688041 0)
(1.00474 0.00728902 0)
(1.00573 0.00811444 0)
(1.00697 0.00789655 0)
(1.00815 0.0076543 0)
(1.00783 0.00778511 0)
(1.0083 0.00820286 0)
(1.00888 0.00817392 0)
(1.01012 0.00785786 0)
(1.01023 0.00761111 0)
(1.01032 0.00766372 0)
(1.00018 0.000576066 0)
(1.00014 0.00285642 0)
(1.00157 0.00313351 0)
(1.00253 0.0030246 0)
(1.0024 0.00397134 0)
(1.00261 0.00541978 0)
(1.00289 0.00537536 0)
(1.00366 0.00642706 0)
(1.00444 0.00670348 0)
(1.00523 0.00688225 0)
(1.00492 0.00714242 0)
(1.00581 0.00785018 0)
(1.00689 0.00772182 0)
(1.00811 0.00752776 0)
(1.00796 0.00756986 0)
(1.0084 0.00790971 0)
(1.00882 0.0079305 0)
(1.00996 0.00771536 0)
(1.01017 0.00745003 0)
(1.01035 0.00743425 0)
(1.00019 0.000558303 0)
(1.00013 0.00260943 0)
(1.00136 0.00308218 0)
(1.0024 0.00314278 0)
(1.00247 0.00382401 0)
(1.00262 0.00531677 0)
(1.00292 0.0054248 0)
(1.00372 0.00633955 0)
(1.00446 0.00657138 0)
(1.00524 0.0068379 0)
(1.00506 0.00700735 0)
(1.00588 0.00760243 0)
(1.00683 0.00752937 0)
(1.00806 0.00738271 0)
(1.00805 0.00736493 0)
(1.00848 0.0076479 0)
(1.00879 0.00768214 0)
(1.00982 0.00754179 0)
(1.01008 0.00730482 0)
(1.01035 0.00722858 0)
(1.00019 0.000542223 0)
(1.00012 0.00241229 0)
(1.0012 0.00301869 0)
(1.00228 0.00324896 0)
(1.00253 0.0037317 0)
(1.00266 0.00519273 0)
(1.00294 0.00543015 0)
(1.00376 0.00624235 0)
(1.00448 0.00642391 0)
(1.00526 0.00675075 0)
(1.00518 0.00687738 0)
(1.00596 0.00737514 0)
(1.0068 0.00732142 0)
(1.00801 0.00721614 0)
(1.00813 0.00714503 0)
(1.00857 0.00738055 0)
(1.00879 0.00743586 0)
(1.00971 0.00733806 0)
(1.00999 0.00714717 0)
(1.01032 0.00704112 0)
(1.00019 0.000532315 0)
(1.00013 0.00225343 0)
(1.00107 0.00295797 0)
(1.00215 0.00334026 0)
(1.00257 0.0036625 0)
(1.00271 0.00505539 0)
(1.00297 0.00539325 0)
(1.00379 0.00613839 0)
(1.00451 0.0062615 0)
(1.00527 0.00662652 0)
(1.00527 0.00672936 0)
(1.006 0.00716279 0)
(1.00676 0.0071063 0)
(1.00795 0.00703611 0)
(1.00818 0.00692821 0)
(1.00865 0.00710035 0)
(1.0088 0.00718084 0)
(1.00962 0.00712258 0)
(1.00989 0.00695569 0)
(1.01026 0.00685254 0)
(1.00019 0.00052752 0)
(1.00014 0.00211892 0)
(1.00097 0.00288063 0)
(1.00202 0.00340556 0)
(1.00259 0.00360027 0)
(1.00276 0.00489372 0)
(1.00301 0.00529428 0)
(1.00379 0.00601627 0)
(1.00452 0.00608025 0)
(1.00529 0.00646844 0)
(1.00535 0.0065619 0)
(1.00605 0.00696067 0)
(1.00673 0.00690085 0)
(1.00789 0.00684841 0)
(1.00819 0.00672881 0)
(1.00872 0.00683797 0)
(1.00883 0.0069152 0)
(1.00954 0.00691528 0)
(1.0098 0.00676285 0)
(1.01018 0.00666801 0)
(1.00019 0.000524425 0)
(1.00015 0.00201204 0)
(1.00089 0.00278162 0)
(1.0019 0.0034271 0)
(1.00258 0.00353834 0)
(1.00282 0.00473476 0)
(1.00306 0.00518555 0)
(1.0038 0.00591611 0)
(1.00453 0.00593716 0)
(1.00532 0.00631114 0)
(1.00542 0.00639508 0)
(1.00608 0.00676742 0)
(1.00668 0.0067107 0)
(1.00781 0.0066531 0)
(1.00818 0.00651587 0)
(1.00875 0.00658874 0)
(1.00887 0.00662653 0)
(1.00949 0.00667146 0)
(1.00971 0.00655758 0)
(1.0101 0.00645096 0)
(1.00019 0.00051898 0)
(1.00017 0.00192242 0)
(1.00084 0.00266995 0)
(1.00178 0.00343075 0)
(1.00256 0.00350892 0)
(1.00287 0.00460241 0)
(1.00311 0.00506511 0)
(1.00379 0.00579368 0)
(1.00452 0.00579064 0)
(1.00533 0.00611806 0)
(1.00549 0.0061806 0)
(1.0061 0.00653895 0)
(1.00664 0.00650344 0)
(1.00772 0.00645673 0)
(1.00815 0.00628844 0)
(1.00876 0.00634055 0)
(1.00889 0.00634829 0)
(1.00946 0.00639424 0)
(1.00961 0.00634799 0)
(1.01002 0.00623133 0)
(1.00018 0.000513406 0)
(1.00018 0.00184553 0)
(1.0008 0.00255907 0)
(1.00168 0.00340712 0)
(1.00252 0.00347636 0)
(1.00291 0.00446252 0)
(1.00317 0.00491171 0)
(1.00378 0.00564815 0)
(1.00449 0.00564793 0)
(1.00531 0.00594081 0)
(1.00554 0.00596173 0)
(1.00613 0.00630797 0)
(1.00659 0.00628548 0)
(1.00761 0.00627028 0)
(1.00808 0.00607874 0)
(1.00875 0.00608365 0)
(1.00889 0.00607949 0)
(1.00945 0.00609113 0)
(1.00954 0.00609068 0)
(1.00992 0.00599205 0)
(1.00018 0.000504958 0)
(1.00019 0.00178185 0)
(1.00078 0.00244378 0)
(1.0016 0.00335622 0)
(1.00247 0.00343852 0)
(1.00294 0.00433686 0)
(1.00322 0.00475339 0)
(1.00378 0.0054953 0)
(1.00446 0.0055031 0)
(1.00528 0.0057692 0)
(1.00557 0.00573904 0)
(1.00616 0.00605426 0)
(1.00655 0.006047 0)
(1.0075 0.00606642 0)
(1.00798 0.00589184 0)
(1.0087 0.0058471 0)
(1.00887 0.00583062 0)
(1.00942 0.00581669 0)
(1.00949 0.00581216 0)