/*--------------------------------*- C++ -*----------------------------------*\
| =========                 |                                                 |
| \\      /  F ield         | OpenFOAM: The Open Source CFD Toolbox           |
|  \\    /   O peration     | Version:  v1906                                 |
|   \\  /    A nd           | Web:      www.OpenFOAM.com                      |
|    \\/     M anipulation  |                                                 |
\*---------------------------------------------------------------------------*/
FoamFile
{
    version     2.0;
    format      ascii;
    class       volScalarField;
    location    "7.9";
    object      p;
}
// * * * * * * * * * * * * * * * * * * * * * * * * * * * * * * * * * * * * * //

dimensions      [0 2 -2 0 0 0 0];


internalField   nonuniform List<scalar> 
9600
(
-5.76654e-11
-0.00108407
0.00115113
-0.00136297
-0.000298106
-0.00229107
-0.00129552
-0.00232573
-0.00301223
-0.00252018
0.00184448
-0.00142334
-0.00200361
-0.00388161
-0.00730489
-0.00650321
-0.0103618
-0.0109394
-0.0122257
-0.0128965
-1.69006e-06
-0.00108729
0.00115549
-0.00136686
-0.000293638
-0.00228972
-0.00130561
-0.00232805
-0.0030124
-0.00253569
0.00195222
-0.00144524
-0.001939
-0.00390025
-0.00726985
-0.00658379
-0.0103162
-0.0109385
-0.0122103
-0.0128804
-4.39674e-06
-0.00109072
0.00116119
-0.00137164
-0.000285099
-0.00229077
-0.00132343
-0.00232859
-0.00301394
-0.00255158
0.00194961
-0.00148112
-0.00187444
-0.00393643
-0.00722274
-0.00667154
-0.010225
-0.0109499
-0.0121921
-0.0128318
-7.02384e-06
-0.00109417
0.0011653
-0.00137818
-0.00027879
-0.00229297
-0.00134166
-0.00232623
-0.00301167
-0.00257349
0.00192777
-0.00154123
-0.00182856
-0.00399431
-0.00717561
-0.00676032
-0.0101296
-0.0109641
-0.0121766
-0.0128019
-9.56023e-06
-0.00109812
0.00116752
-0.00138659
-0.00027402
-0.00229541
-0.00135907
-0.00231999
-0.00300388
-0.00259698
0.00189011
-0.00162149
-0.00180693
-0.00407082
-0.00712536
-0.00685163
-0.0100452
-0.0109651
-0.0121767
-0.0127875
-1.21158e-05
-0.00110275
0.0011673
-0.0013959
-0.00026741
-0.00229766
-0.00137533
-0.00230923
-0.00298899
-0.00262034
0.0018396
-0.00171363
-0.00177024
-0.00415809
-0.00706981
-0.00694455
-0.00996339
-0.0109535
-0.0121979
-0.0127574
-1.47114e-05
-0.0011082
0.00116405
-0.00140459
-0.000257012
-0.0022995
-0.00139015
-0.00229381
-0.00296641
-0.00264255
0.001779
-0.00180838
-0.00173671
-0.00424718
-0.00701193
-0.0070305
-0.00988218
-0.0109376
-0.0122283
-0.0127096
-1.74142e-05
-0.0011146
0.00115762
-0.00141147
-0.000242425
-0.00230078
-0.0014036
-0.00227402
-0.00293641
-0.00266361
0.00171067
-0.0018998
-0.00170679
-0.00433244
-0.00695499
-0.00710313
-0.00981135
-0.0109157
-0.0122606
-0.0126633
-2.03341e-05
-0.00112194
0.00114831
-0.00141612
-0.000223924
-0.00230143
-0.00141597
-0.00225023
-0.00289995
-0.00268406
0.00163635
-0.00198458
-0.00168145
-0.00441039
-0.00690068
-0.007162
-0.009756
-0.0108815
-0.0122983
-0.0126296
-2.35681e-05
-0.00113003
0.00113675
-0.00141884
-0.00020229
-0.00230145
-0.0014277
-0.00222286
-0.00285857
-0.00270456
0.0015574
-0.00206165
-0.00166244
-0.00447795
-0.00685181
-0.00720705
-0.00971486
-0.0108345
-0.012343
-0.0126093
-2.71736e-05
-0.00113858
0.00112369
-0.00142039
-0.000178772
-0.00230083
-0.00143945
-0.00219236
-0.00281421
-0.00272543
0.00147485
-0.00213157
-0.00165175
-0.00453261
-0.00681167
-0.00723591
-0.00968721
-0.0107781
-0.0123895
-0.0126038
-3.11707e-05
-0.00114732
0.00110986
-0.00142162
-0.000154763
-0.00229945
-0.00145206
-0.00215927
-0.00276905
-0.00274647
0.00138945
-0.00219588
-0.00165154
-0.00457268
-0.00678248
-0.00724628
-0.00967343
-0.0107155
-0.0124299
-0.0126171
-3.55605e-05
-0.00115598
0.00109587
-0.00142312
-0.000131503
-0.00229711
-0.00146638
-0.00212409
-0.00272502
-0.00276715
0.0013015
-0.00225631
-0.00166373
-0.00459725
-0.00676579
-0.00723719
-0.00967178
-0.01065
-0.0124561
-0.0126511
-4.03533e-05
-0.00116436
0.00108213
-0.00142501
-0.000109948
-0.00229359
-0.0014831
-0.00208725
-0.00268339
-0.00278671
0.00121072
-0.00231405
-0.00168953
-0.00460623
-0.00676311
-0.00720889
-0.00967731
-0.0105863
-0.0124608
-0.0127044
-4.55755e-05
-0.00117235
0.0010688
-0.00142703
-9.07425e-05
-0.00228864
-0.0015026
-0.00204908
-0.00264489
-0.00280435
0.00111631
-0.00236939
-0.00172954
-0.0046001
-0.00677704
-0.00716314
-0.00968343
-0.0105309
-0.0124386
-0.0127716
-5.12648e-05
-0.00117995
0.00105585
-0.00142881
-7.42482e-05
-0.00228194
-0.00152506
-0.00200968
-0.0026101
-0.00281958
0.00101723
-0.002422
-0.00178401
-0.00457984
-0.00680553
-0.00710349
-0.00968406
-0.0104915
-0.0123861
-0.0128445
-5.74711e-05
-0.00118721
0.00104313
-0.00143006
-6.07151e-05
-0.00227315
-0.00155063
-0.00196907
-0.0025795
-0.00283216
0.000912424
-0.00247104
-0.0018532
-0.00454658
-0.00684635
-0.00703587
-0.00967369
-0.0104738
-0.0123031
-0.012914
-6.42397e-05
-0.00119418
0.00103045
-0.00143069
-5.03926e-05
-0.00226184
-0.00157947
-0.00192716
-0.00255356
-0.00284206
0.000801011
-0.00251584
-0.00193697
-0.00450149
-0.00689821
-0.00696735
-0.0096469
-0.0104812
-0.012194
-0.0129706
-7.15962e-05
-0.00120089
0.00101759
-0.00143067
-4.34992e-05
-0.00224754
-0.00161178
-0.00188387
-0.00253269
-0.00284944
0.000682612
-0.0025568
-0.00203489
-0.00444627
-0.00695733
-0.00690382
-0.00959906
-0.0105143
-0.012066
-0.0130034
-7.95517e-05
-0.00120739
0.00100432
-0.00142999
-4.02139e-05
-0.00222982
-0.00164788
-0.00183906
-0.00251727
-0.00285447
0.000557236
-0.00259468
-0.00214643
-0.00438327
-0.00701891
-0.00685105
-0.00952711
-0.0105692
-0.0119278
-0.0130022
-8.81037e-05
-0.00121372
0.000990404
-0.0014286
-4.07282e-05
-0.00220833
-0.00168803
-0.00179256
-0.00250765
-0.00285753
0.000425193
-0.00263006
-0.00227016
-0.00431551
-0.00707809
-0.00681532
-0.00943033
-0.0106387
-0.0117894
-0.0129592
-9.723e-05
-0.00121994
0.000975589
-0.00142641
-4.53011e-05
-0.00218275
-0.00173251
-0.00174439
-0.00250381
-0.0028596
0.000287673
-0.00266415
-0.00240404
-0.00424569
-0.00713098
-0.00680112
-0.00930956
-0.0107156
-0.0116614
-0.0128691
-0.000106891
-0.00122614
0.000959634
-0.0014233
-5.42552e-05
-0.00215273
-0.00178154
-0.00169478
-0.00250536
-0.00286183
0.00014634
-0.00269869
-0.00254607
-0.00417579
-0.00717453
-0.00681046
-0.0091674
-0.0107937
-0.0115535
-0.012729
-0.000117023
-0.00123243
0.000942305
-0.00141907
-6.80509e-05
-0.00211788
-0.00183525
-0.00164414
-0.00251174
-0.00286567
3.29427e-06
-0.0027349
-0.00269492
-0.00410806
-0.00720595
-0.00684478
-0.00900776
-0.0108641
-0.0114739
-0.0125418
-0.00012755
-0.00123892
0.000923355
-0.00141346
-8.72525e-05
-0.00207789
-0.0018936
-0.00159306
-0.00252207
-0.00287319
-0.000138891
-0.00277317
-0.0028495
-0.00404486
-0.00722277
-0.00690494
-0.00883635
-0.0109158
-0.0114284
-0.0123173
-0.000138384
-0.00124569
0.00090253
-0.00140617
-0.00011233
-0.00203247
-0.00195648
-0.00154244
-0.00253479
-0.00288686
-0.000277899
-0.00281316
-0.00300935
-0.00398775
-0.00722272
-0.00699077
-0.00866033
-0.0109383
-0.0114196
-0.0120703
-0.000149437
-0.00125285
0.000879554
-0.00139684
-0.000143815
-0.00198154
-0.00202344
-0.00149368
-0.00254788
-0.0029092
-0.000411914
-0.00285321
-0.00317496
-0.00393813
-0.00720395
-0.00710161
-0.00848741
-0.0109205
-0.011445
-0.0118215
-0.000160617
-0.00126052
0.000854127
-0.00138495
-0.000182381
-0.00192513
-0.00209349
-0.00144846
-0.00255942
-0.00294217
-0.00054011
-0.00289062
-0.00334644
-0.00389836
-0.00716409
-0.00723567
-0.0083276
-0.0108518
-0.0114957
-0.0115957
-0.000171778
-0.00126881
0.000825796
-0.00136993
-0.000228475
-0.00186355
-0.00216564
-0.00140878
-0.00256694
-0.00298728
-0.000662962
-0.00292228
-0.00352355
-0.00387158
-0.00709987
-0.00738758
-0.00819308
-0.0107268
-0.0115559
-0.0114164
-0.000182765
-0.00127778
0.000794018
-0.00135119
-0.000282446
-0.00179723
-0.00223856
-0.00137691
-0.00256766
-0.00304543
-0.000782285
-0.0029446
-0.00370675
-0.00386142
-0.00700765
-0.00754965
-0.00809649
-0.0105472
-0.0116049
-0.0113003
-0.000193498
-0.00128743
0.000758261
-0.00132819
-0.000344634
-0.00172677
-0.00231029
-0.0013554
-0.00255949
-0.00311582
-0.000901655
-0.00295437
-0.00389422
-0.00387186
-0.00688633
-0.00771366
-0.00804857
-0.0103228
-0.0116175
-0.0112516
-0.000203908
-0.00129766
0.000717862
-0.00130053
-0.000414906
-0.00165324
-0.00237861
-0.00134679
-0.00254134
-0.00319634
-0.00102542
-0.00294917
-0.00408163
-0.00390873
-0.00673823
-0.00786734
-0.00805439
-0.0100709
-0.0115707
-0.0112568
-0.000213915
-0.00130833
0.000672072
-0.00126788
-0.00049286
-0.0015782
-0.00244093
-0.00135363
-0.00251295
-0.00328387
-0.00115783
-0.00292743
-0.00426453
-0.00397846
-0.00656823
-0.00799407
-0.00811105
-0.00981562
-0.0114512
-0.0112875
-0.000223461
-0.00131917
0.000620082
-0.00123005
-0.000577873
-0.00150342
-0.00249438
-0.00137801
-0.00247512
-0.00337451
-0.00130324
-0.00288972
-0.00443652
-0.0040843
-0.00638518
-0.00807908
-0.00820849
-0.00958238
-0.0112602
-0.0113104
-0.000232546
-0.00132986
0.000561101
-0.00118707
-0.00066878
-0.00143127
-0.00253632
-0.00142066
-0.00242974
-0.00346364
-0.00146547
-0.00283944
-0.00458955
-0.00422576
-0.00620113
-0.00811094
-0.00833275
-0.00939087
-0.0110122
-0.0112914
-0.000241239
-0.00134002
0.000494551
-0.00113915
-0.00076416
-0.00136456
-0.00256423
-0.0014814
-0.00237973
-0.00354619
-0.00164707
-0.00278245
-0.00471511
-0.00439917
-0.00602928
-0.00808121
-0.00846647
-0.00925315
-0.0107294
-0.0112055
-0.000249684
-0.00134928
0.000419947
-0.00108664
-0.000862151
-0.00130626
-0.00257612
-0.00155911
-0.0023288
-0.00361714
-0.00184797
-0.00272641
-0.00480588
-0.00459804
-0.00579615
-0.00798879
-0.00859022
-0.00917109
-0.010438
-0.011046
-0.000258047
-0.00135728
0.000336861
-0.0010302
-0.000960289
-0.00125962
-0.00257077
-0.00165097
-0.00228211
-0.00367236
-0.00206564
-0.00268055
-0.00485765
-0.00481685
-0.00568683
-0.00784447
-0.00868461
-0.00913628
-0.0101631
-0.0108251
-0.000266463
-0.00136364
0.000245164
-0.000970911
-0.00105579
-0.00122763
-0.00254798
-0.00175294
-0.00224476
-0.00370962
-0.00229614
-0.002654
-0.00486916
-0.00504262
-0.00562989
-0.00766079
-0.00873343
-0.00913485
-0.00992214
-0.0105635
-0.000275083
-0.00136802
0.000145094
-0.00091017
-0.0011459
-0.00121253
-0.00250868
-0.0018601
-0.00222088
-0.00372872
-0.00253348
-0.00265357
-0.00484277
-0.00526084
-0.00562692
-0.00745563
-0.00872663
-0.00915146
-0.00972269
-0.0102811
-0.000284249
-0.00136998
3.7215e-05
-0.000849634
-0.00122788
-0.00121602
-0.00245539
-0.00196677
-0.00218952
-0.00373164
-0.00277028
-0.00268434
-0.00478545
-0.00545743
-0.00567406
-0.0072488
-0.00865966
-0.00916874
-0.00956628
-0.00999755
-0.000294301
-0.00136905
-7.77194e-05
-0.000791367
-0.00129861
-0.00123904
-0.00239254
-0.00206779
-0.0022134
-0.0037222
-0.00299982
-0.00274949
-0.00470689
-0.00561921
-0.00576182
-0.00706063
-0.00853629
-0.00916805
-0.00945099
-0.00973077
-0.000305669
-0.0013646
-0.000198674
-0.000738063
-0.00135485
-0.00128137
-0.00232588
-0.00215804
-0.00225767
-0.00370458
-0.00321686
-0.00284931
-0.00461843
-0.0057375
-0.00587822
-0.00690673
-0.0083682
-0.00913275
-0.00936891
-0.00949681
-0.000319159
-0.00135577
-0.000324086
-0.000693075
-0.00139381
-0.00134099
-0.00226236
-0.00223385
-0.00231668
-0.00368333
-0.00341713
-0.00298154
-0.00453096
-0.00580799
-0.00600779
-0.0067945
-0.00817148
-0.00905193
-0.00930325
-0.00930646
-0.000335475
-0.00134208
-0.000451991
-0.000659824
-0.00141454
-0.00141385
-0.00220908
-0.00229403
-0.00238537
-0.00366292
-0.00359799
-0.00314048
-0.00445388
-0.00583036
-0.00613357
-0.00672454
-0.00796541
-0.00892467
-0.00923305
-0.00915882
-0.000355307
-0.00132323
-0.000579799
-0.000641971
-0.00141541
-0.00149376
-0.00217164
-0.00233988
-0.00245957
-0.00364723
-0.00375825
-0.00331709
-0.00439489
-0.00580976
-0.00624049
-0.00669093
-0.00776771
-0.00876086
-0.00914178
-0.00903897
-0.000379323
-0.00129902
-0.000707272
-0.00064286
-0.00139888
-0.00157395
-0.00215325
-0.00237541
-0.0025351
-0.00363848
-0.00389701
-0.00350127
-0.00435855
-0.00575567
-0.00631768
-0.00668405
-0.00758924
-0.00857213
-0.0090236
-0.00892824
-0.000407703
-0.00127002
-0.000825258
-0.000664342
-0.00137407
-0.00164849
-0.00215372
-0.0024057
-0.00260927
-0.00363614
-0.00401336
-0.00368407
-0.00434599
-0.00567979
-0.00636013
-0.0066937
-0.00743579
-0.00836729
-0.0088804
-0.00881599
-0.00044018
-0.0012381
-0.000932562
-0.000707896
-0.00134881
-0.001713
-0.00216969
-0.00243494
-0.00268079
-0.00363889
-0.00410709
-0.00385871
-0.00435638
-0.0055916
-0.00636662
-0.00670841
-0.00731092
-0.00815718
-0.00871448
-0.00869806
-0.000476179
-0.00120548
-0.00102697
-0.000770314
-0.00133088
-0.00176601
-0.00219628
-0.00246581
-0.00274933
-0.00364648
-0.00417945
-0.00401932
-0.004387
-0.00549809
-0.00633927
-0.00671758
-0.00721451
-0.00795481
-0.00852575
-0.0085698
-0.000514986
-0.0011743
-0.00110719
-0.000847615
-0.00132562
-0.00180848
-0.00222922
-0.00250017
-0.00281354
-0.0036575
-0.00423353
-0.0041612
-0.00443788
-0.00541187
-0.00628447
-0.00671362
-0.00714145
-0.00777201
-0.00831824
-0.00842166
-0.000555742
-0.00114653
-0.00117338
-0.000933563
-0.00133492
-0.00184441
-0.00226594
-0.00253771
-0.00287264
-0.00367072
-0.00427316
-0.00428209
-0.00449168
-0.00533406
-0.00620859
-0.00669303
-0.00708263
-0.00761386
-0.00810489
-0.00824724
-0.000597566
-0.00112348
-0.00122705
-0.00102292
-0.00135979
-0.00187952
-0.00230539
-0.0025771
-0.00292581
-0.00368395
-0.00430135
-0.00438257
-0.00454708
-0.00526469
-0.00611629
-0.00665379
-0.00702783
-0.00747871
-0.00790341
-0.00805054
-0.000640111
-0.0011026
-0.00127009
-0.00111117
-0.00139875
-0.00191813
-0.0023479
-0.00261742
-0.00297144
-0.00369497
-0.00432092
-0.00446527
-0.00459986
-0.00520295
-0.00601112
-0.00659296
-0.00697144
-0.0073617
-0.00772319
-0.00784521
-0.000681736
-0.00108955
-0.00130666
-0.00119938
-0.00144982
-0.0019632
-0.00239531
-0.00265753
-0.00300731
-0.00370005
-0.00433314
-0.00452759
-0.00464829
-0.00514732
-0.00589585
-0.00650927
-0.00691092
-0.00725729
-0.00756229
-0.00764881
-0.000724064
-0.00108043
-0.00133579
-0.00128316
-0.00151107
-0.00201674
-0.00244969
-0.00269769
-0.00303243
-0.00369697
-0.00433816
-0.00458395
-0.00469355
-0.00509856
-0.00577524
-0.00640218
-0.00683828
-0.00716003
-0.00741626
-0.00747129
-0.000765524
-0.00108316
-0.00135441
-0.00135633
-0.00157971
-0.00207485
-0.00250866
-0.00273857
-0.00304742
-0.00368244
-0.00433327
-0.00462883
-0.00473845
-0.00506028
-0.00565486
-0.00627365
-0.00674455
-0.00706511
-0.00728106
-0.00731049
-0.000797261
-0.00107491
-0.00140234
-0.00145885
-0.00165336
-0.0021293
-0.00256879
-0.00278382
-0.00305538
-0.00365482
-0.00431433
-0.0046602
-0.004782
-0.00503503
-0.00554159
-0.00613034
-0.00662504
-0.00696467
-0.00715344
-0.00715878
-0.000835902
-0.00108623
-0.00142943
-0.00154055
-0.00172574
-0.00217873
-0.00263113
-0.0028412
-0.00306638
-0.00361565
-0.00427741
-0.00467416
-0.00482148
-0.00502236
-0.00544264
-0.0059821
-0.00648053
-0.00684737
-0.00703019
-0.00701143
-0.00087581
-0.00109504
-0.00146148
-0.00162485
-0.00179966
-0.00222291
-0.00269089
-0.00291017
-0.0030877
-0.00356843
-0.00422006
-0.00466591
-0.00485102
-0.00501942
-0.00536098
-0.00583966
-0.00631929
-0.00670458
-0.00690348
-0.00686876
-0.000915899
-0.00111398
-0.00149204
-0.00170624
-0.00187663
-0.00226116
-0.0027392
-0.00298441
-0.00312344
-0.00352292
-0.00414389
-0.0046309
-0.0048639
-0.00502149
-0.00529592
-0.00571039
-0.00615579
-0.00653921
-0.00676224
-0.00673017
-0.000961511
-0.0011389
-0.00152051
-0.00178117
-0.00195692
-0.00229796
-0.00277392
-0.00305655
-0.00317499
-0.00348872
-0.0040553
-0.00456877
-0.00485287
-0.00502032
-0.00524526
-0.00559522
-0.00599998
-0.00636299
-0.00659968
-0.00658756
-0.00100966
-0.00117156
-0.00154799
-0.00185062
-0.00204089
-0.00233817
-0.0027948
-0.00311511
-0.0032379
-0.00347288
-0.00396335
-0.00448166
-0.00481509
-0.00500676
-0.00520371
-0.00549465
-0.00585442
-0.0061888
-0.00641989
-0.0064314
-0.00105905
-0.00120659
-0.00158048
-0.00191596
-0.00212607
-0.00238377
-0.00280556
-0.00315443
-0.00330163
-0.00347691
-0.00387876
-0.00437454
-0.00474854
-0.00497401
-0.00516335
-0.00540727
-0.00571828
-0.00602287
-0.00623471
-0.00625785
-0.00111215
-0.00125443
-0.00161479
-0.00197269
-0.00220862
-0.00243593
-0.00281338
-0.00317484
-0.00335437
-0.00349675
-0.00381149
-0.00425683
-0.00465305
-0.00491726
-0.0051146
-0.00532853
-0.00559347
-0.00586633
-0.00605399
-0.00607199
-0.00116788
-0.00130043
-0.00165404
-0.00202644
-0.00228863
-0.00249532
-0.00282392
-0.00317874
-0.00338891
-0.00352194
-0.00376278
-0.0041421
-0.00453464
-0.0048316
-0.00504814
-0.00524946
-0.00547809
-0.00571755
-0.00588225
-0.00588581
-0.00122752
-0.00136034
-0.00169909
-0.00207315
-0.00236023
-0.00255778
-0.00284034
-0.00317292
-0.00340383
-0.00354139
-0.00372796
-0.00403899
-0.00440428
-0.00471862
-0.00495876
-0.00515961
-0.0053625
-0.00557169
-0.00571639
-0.00570493
-0.00128997
-0.00141844
-0.00175161
-0.00212344
-0.00242667
-0.00262195
-0.00286359
-0.0031626
-0.0034002
-0.00354788
-0.00369914
-0.00394577
-0.00427073
-0.00458359
-0.00484246
-0.00505275
-0.00524029
-0.00542534
-0.00555267
-0.00552923
-0.00135676
-0.00148142
-0.00180971
-0.00217466
-0.00248652
-0.0026844
-0.00289402
-0.00315506
-0.00338274
-0.00353698
-0.00366872
-0.00386063
-0.00413811
-0.00443445
-0.00469809
-0.0049201
-0.00510327
-0.00526954
-0.00538232
-0.00535057
-0.00143136
-0.00155797
-0.00187369
-0.00222354
-0.0025379
-0.00274121
-0.00292874
-0.00315462
-0.00336327
-0.00351258
-0.00362674
-0.00377356
-0.00400044
-0.00427149
-0.00452945
-0.0047609
-0.00494998
-0.00510503
-0.00520457
-0.00516606
-0.00150871
-0.00162701
-0.00194319
-0.00228727
-0.00259448
-0.00279832
-0.00296432
-0.0031534
-0.00334015
-0.0034834
-0.00358297
-0.00368627
-0.00385116
-0.00407943
-0.00432068
-0.00455828
-0.00476428
-0.004926
-0.00502808
-0.00499031
-0.00159292
-0.00170751
-0.00201934
-0.00235344
-0.00264974
-0.00285466
-0.00300812
-0.00315901
-0.0033087
-0.00343738
-0.00353335
-0.00360993
-0.00371237
-0.00387368
-0.00406056
-0.00426317
-0.00446173
-0.00463279
-0.00476506
-0.00478405
-0.00168785
-0.00179912
-0.00210105
-0.00241772
-0.00269923
-0.00290396
-0.00305955
-0.00319138
-0.00330094
-0.00338453
-0.00345339
-0.00351496
-0.00358998
-0.00371351
-0.00385984
-0.00401327
-0.00415286
-0.00424673
-0.00430368
-0.00429193
-0.00178735
-0.00189692
-0.00219218
-0.00249731
-0.00276193
-0.00294707
-0.00308939
-0.00322005
-0.00333316
-0.00337915
-0.00335579
-0.0032968
-0.00325691
-0.003303
-0.00341431
-0.00358867
-0.00382978
-0.00405812
-0.00420023
-0.00423203
-0.00189211
-0.00200589
-0.00230024
-0.00258973
-0.00283731
-0.00300839
-0.00312553
-0.00324303
-0.00339762
-0.00355486
-0.00360977
-0.00347828
-0.00324385
-0.00308355
-0.00298286
-0.00284699
-0.00266961
-0.00248073
-0.00231652
-0.00219045
-0.00201184
-0.00210214
-0.00237439
-0.0026412
-0.00288785
-0.00309081
-0.00321775
-0.0032503
-0.00321996
-0.00313343
-0.00304694
-0.00301554
-0.00299003
-0.00297186
-0.00298672
-0.0029826
-0.00293617
-0.00282857
-0.00267365
-0.00255275
-0.00222735
-0.00234436
-0.00252197
-0.00267124
-0.00281235
-0.00290732
-0.0029807
-0.00307273
-0.00317539
-0.00326379
-0.00330345
-0.00326852
-0.00315101
-0.00295046
-0.00270913
-0.00243492
-0.00213771
-0.0018779
-0.00167728
-0.00158258
-0.00226335
-0.00230652
-0.00250511
-0.00267552
-0.00279898
-0.00289204
-0.00297537
-0.00306058
-0.00311727
-0.00309032
-0.00300808
-0.00291882
-0.00287382
-0.00289539
-0.00298824
-0.00314196
-0.00330542
-0.00349878
-0.00370999
-0.00389119
-0.00245649
-0.00254188
-0.00265648
-0.00271162
-0.00276188
-0.00281235
-0.00287802
-0.00298084
-0.00310218
-0.0031647
-0.00315477
-0.00309673
-0.00299298
-0.00284012
-0.00263323
-0.00238782
-0.00213343
-0.00187954
-0.00167973
-0.0016022
-0.00254914
-0.00261593
-0.00269508
-0.00270008
-0.00270721
-0.00274967
-0.00284127
-0.00297799
-0.00309968
-0.00312284
-0.00304273
-0.00294265
-0.00284963
-0.0027648
-0.00270086
-0.0026632
-0.00262668
-0.00256501
-0.00250874
-0.00253742
-0.0147645
-0.014571
-0.0175605
-0.0205164
-0.0202637
-0.018167
-0.0157905
-0.0136309
-0.011894
-0.0106358
-0.00976173
-0.00915894
-0.00860062
-0.00780933
-0.00685394
-0.00604315
-0.0054539
-0.00495125
-0.00446286
-0.00395338
-0.00340806
-0.00292698
-0.00261873
-0.00238611
-0.00202451
-0.00149902
-0.000928076
-0.000386686
0.00011818
0.000598872
0.00109249
0.00160167
0.00210035
0.00256762
0.00299685
0.00340654
0.00382866
0.0042283
0.00463828
0.00516889
0.00579859
0.00640708
0.00698975
0.00759196
0.00819653
0.00876923
0.00934071
0.00993067
0.010539
0.0111588
0.01178
0.0124111
0.0130589
0.0137066
0.0143512
0.0149912
0.0156553
0.0163878
0.0171385
0.0179087
0.0187033
0.0194979
0.0202504
0.021022
0.0218433
0.0226739
0.0234975
0.024358
0.0252363
0.0261228
0.0270398
0.0279779
0.0289429
0.0298854
0.0307998
0.0317503
0.0327557
0.0338105
0.0348623
0.0359508
0.0370291
0.0381181
0.0392281
0.0403621
0.0415213
0.0426969
0.0439119
0.0451131
0.0463631
0.0476244
0.0489429
0.0502439
0.0516165
0.0529789
0.0544095
0.055894
0.0573864
0.0589701
0.0604449
0.0620991
-0.0146494
-0.0145949
-0.0174429
-0.020378
-0.0201929
-0.0181332
-0.0157699
-0.0136167
-0.0118832
-0.0106264
-0.00975291
-0.00915119
-0.00859466
-0.00780468
-0.0068496
-0.00603878
-0.00544969
-0.00494726
-0.00445919
-0.00395008
-0.00340491
-0.00292379
-0.00261571
-0.00238358
-0.00202237
-0.00149699
-0.000926063
-0.000384749
0.000119989
0.00060049
0.00109393
0.00160301
0.00210161
0.00256881
0.00299796
0.00340753
0.00382957
0.00422916
0.00463899
0.00516949
0.00579921
0.0064077
0.00699032
0.00759248
0.00819705
0.00876973
0.00934117
0.00993111
0.0105394
0.0111592
0.0117804
0.0124115
0.0130592
0.013707
0.0143516
0.0149916
0.0156556
0.0163881
0.0171388
0.017909
0.0187036
0.0194982
0.0202507
0.0210223
0.0218435
0.0226741
0.0234978
0.0243583
0.0252365
0.026123
0.02704
0.0279781
0.0289431
0.0298856
0.0308
0.0317505
0.0327558
0.0338107
0.0348625
0.035951
0.0370292
0.0381182
0.0392282
0.0403622
0.0415215
0.042697
0.043912
0.0451132
0.0463632
0.0476245
0.048943
0.050244
0.0516166
0.052979
0.0544096
0.0558941
0.0573865
0.0589702
0.0604451
0.0620994
-0.0146978
-0.0147167
-0.0172329
-0.0200992
-0.0200593
-0.0180822
-0.015741
-0.0135959
-0.0118687
-0.0106168
-0.00974541
-0.00914362
-0.00858708
-0.00779806
-0.00684444
-0.00603496
-0.00544649
-0.00494398
-0.00445582
-0.00394694
-0.00340199
-0.00292094
-0.0026131
-0.0023814
-0.0020205
-0.00149519
-0.000924272
-0.000382988
0.000121681
0.000602017
0.00109528
0.00160425
0.00210278
0.00256994
0.00299902
0.00340845
0.00383041
0.0042299
0.00463955
0.00516999
0.00579978
0.00640829
0.00699083
0.00759296
0.00819753
0.00877018
0.00934158
0.00993149
0.0105398
0.0111596
0.0117807
0.0124118
0.0130596
0.0137073
0.0143519
0.0149918
0.0156559
0.0163884
0.0171391
0.0179092
0.0187038
0.0194984
0.020251
0.0210225
0.0218438
0.0226744
0.023498
0.0243585
0.0252367
0.0261232
0.0270402
0.0279783
0.0289433
0.0298857
0.0308001
0.0317506
0.032756
0.0338108
0.0348626
0.0359511
0.0370294
0.0381183
0.0392283
0.0403623
0.0415216
0.0426971
0.0439121
0.0451133
0.0463633
0.0476246
0.0489431
0.0502441
0.0516167
0.0529791
0.0544096
0.0558941
0.0573866
0.0589704
0.0604452
0.0620997
-0.0147981
-0.0148248
-0.0169337
-0.0197103
-0.01986
-0.0180055
-0.0156968
-0.0135632
-0.0118463
-0.0106037
-0.00973727
-0.00913503
-0.00857613
-0.0077873
-0.00683688
-0.00603086
-0.00544391
-0.00494101
-0.00445213
-0.00394333
-0.00339899
-0.00291833
-0.0026105
-0.00237882
-0.00201816
-0.00149316
-0.000922435
-0.000381136
0.000123619
0.000603869
0.00109692
0.00160571
0.00210414
0.00257129
0.00300032
0.00340957
0.00383136
0.0042307
0.00464015
0.00517055
0.00580044
0.00640894
0.0069914
0.00759351
0.00819807
0.00877066
0.009342
0.00993189
0.0105402
0.01116
0.0117811
0.0124122
0.0130599
0.0137077
0.0143522
0.0149922
0.0156561
0.0163886
0.0171394
0.0179095
0.0187041
0.0194987
0.0202512
0.0210227
0.021844
0.0226746
0.0234982
0.0243587
0.0252369
0.0261234
0.0270404
0.0279784
0.0289435
0.0298859
0.0308003
0.0317508
0.0327561
0.0338109
0.0348627
0.0359512
0.0370295
0.0381184
0.0392284
0.0403624
0.0415217
0.0426972
0.0439122
0.0451134
0.0463634
0.0476247
0.0489432
0.0502442
0.0516167
0.0529791
0.0544097
0.0558942
0.0573866
0.0589705
0.0604454
0.0621002
-0.0148681
-0.0148883
-0.0166027
-0.0192802
-0.0196306
-0.0179173
-0.015645
-0.013522
-0.0118162
-0.0105856
-0.009727
-0.00912432
-0.00856075
-0.00777144
-0.00682631
-0.00602621
-0.00544174
-0.00493806
-0.00444764
-0.00393883
-0.00339607
-0.00291649
-0.00260814
-0.00237542
-0.00201465
-0.0014904
-0.00092034
-0.00037909
0.000125958
0.000606283
0.00109907
0.00160751
0.00210585
0.00257312
0.00300218
0.00341114
0.00383259
0.00423172
0.00464101
0.00517136
0.00580128
0.00640974
0.00699212
0.00759419
0.0081987
0.00877122
0.0093425
0.00993236
0.0105406
0.0111604
0.0117815
0.0124125
0.0130603
0.013708
0.0143526
0.0149925
0.0156564
0.0163889
0.0171396
0.0179097
0.0187044
0.019499
0.0202515
0.0210229
0.0218442
0.0226748
0.0234984
0.0243589
0.0252371
0.0261236
0.0270406
0.0279786
0.0289437
0.0298862
0.0308005
0.0317509
0.0327562
0.0338111
0.0348629
0.0359514
0.0370296
0.0381185
0.0392285
0.0403625
0.0415218
0.0426973
0.0439123
0.0451135
0.0463635
0.0476248
0.0489433
0.0502443
0.0516168
0.0529792
0.0544098
0.0558943
0.0573867
0.0589706
0.0604456
0.0621009
-0.0148947
-0.0149496
-0.0162825
-0.0188306
-0.0193793
-0.0178224
-0.0155906
-0.0134762
-0.0117809
-0.0105634
-0.00971405
-0.00911081
-0.00854133
-0.00775162
-0.00681375
-0.00602142
-0.00543994
-0.00493481
-0.00444186
-0.00393306
-0.00339328
-0.00291606
-0.00260669
-0.00237141
-0.00200975
-0.00148655
-0.000917656
-0.0003766
0.000128893
0.000609418
0.00110177
0.00160958
0.00210782
0.00257555
0.00300487
0.00341343
0.00383429
0.00423314
0.00464234
0.00517259
0.00580239
0.00641076
0.0069931
0.00759508
0.00819947
0.00877189
0.00934312
0.00993293
0.0105411
0.0111609
0.011782
0.012413
0.0130607
0.0137084
0.014353
0.0149928
0.0156567
0.0163892
0.0171399
0.0179101
0.0187047
0.0194994
0.0202518
0.0210232
0.0218445
0.0226751
0.0234986
0.0243591
0.0252374
0.0261238
0.0270408
0.0279788
0.028944
0.0298864
0.0308006
0.0317511
0.0327564
0.0338113
0.0348631
0.0359516
0.0370298
0.0381187
0.0392287
0.0403626
0.0415219
0.0426974
0.0439124
0.0451136
0.0463636
0.0476249
0.0489434
0.0502443
0.0516169
0.0529793
0.0544098
0.0558944
0.0573867
0.0589707
0.0604458
0.0621019
-0.014901
-0.0150311
-0.0159785
-0.0183586
-0.0191017
-0.0177189
-0.0155346
-0.013428
-0.0117421
-0.010538
-0.00969863
-0.00909482
-0.00851903
-0.00772943
-0.00680033
-0.00601706
-0.00543864
-0.00493115
-0.00443459
-0.00392573
-0.0033904
-0.0029171
-0.00260665
-0.00236746
-0.00200396
-0.00148172
-0.000914151
-0.00037326
0.00013284
0.000613597
0.00110515
0.0016118
0.00210981
0.00257838
0.00300841
0.00341656
0.00383658
0.00423518
0.00464446
0.00517449
0.00580388
0.00641208
0.00699442
0.00759626
0.00820042
0.00877273
0.00934392
0.00993365
0.0105417
0.0111614
0.0117826
0.0124136
0.0130613
0.0137089
0.0143534
0.0149933
0.015657
0.0163895
0.0171403
0.0179104
0.0187051
0.0194997
0.0202521
0.0210234
0.0218447
0.0226754
0.0234989
0.0243594
0.0252376
0.026124
0.027041
0.027979
0.0289442
0.0298867
0.0308008
0.0317512
0.0327565
0.0338115
0.0348632
0.0359518
0.03703
0.0381188
0.0392288
0.0403628
0.041522
0.0426976
0.0439125
0.0451137
0.0463637
0.047625
0.0489435
0.0502444
0.051617
0.0529794
0.0544099
0.0558945
0.0573867
0.0589707
0.060446
0.0621031
-0.0148937
-0.0151197
-0.0156833
-0.0178629
-0.0187963
-0.0176069
-0.0154786
-0.0133789
-0.0117007
-0.0105098
-0.00968088
-0.00907694
-0.0084949
-0.00770576
-0.00678638
-0.00601299
-0.0054377
-0.00492716
-0.00442611
-0.00391702
-0.0033872
-0.00291924
-0.00260808
-0.00236424
-0.00199817
-0.00147656
-0.00091003
-0.000368892
0.000138176
0.000619216
0.00110951
0.00161425
0.00211162
0.0025813
0.00301252
0.00342035
0.00383937
0.00423788
0.00464759
0.00517729
0.00580592
0.00641383
0.00699617
0.00759776
0.00820158
0.00877378
0.00934496
0.00993456
0.0105425
0.0111621
0.0117833
0.0124144
0.013062
0.0137095
0.014354
0.0149938
0.0156575
0.0163899
0.0171407
0.0179109
0.0187055
0.0195001
0.0202524
0.0210237
0.021845
0.0226756
0.0234991
0.0243596
0.0252379
0.0261243
0.0270413
0.0279793
0.0289445
0.029887
0.0308011
0.0317514
0.0327567
0.0338117
0.0348635
0.035952
0.0370302
0.038119
0.039229
0.0403629
0.0415222
0.0426977
0.0439127
0.0451139
0.0463638
0.0476251
0.0489436
0.0502445
0.0516171
0.0529795
0.0544099
0.0558946
0.0573867
0.0589707
0.0604463
0.0621047
-0.0148602
-0.0151993
-0.0154013
-0.0173524
-0.0184653
-0.0174866
-0.0154236
-0.0133297
-0.0116566
-0.0104783
-0.00966071
-0.00905749
-0.00846941
-0.00768089
-0.00677176
-0.0060088
-0.00543678
-0.00492292
-0.00441688
-0.0039074
-0.00338366
-0.00292206
-0.00261075
-0.00236209
-0.00199307
-0.00147179
-0.000905826
-0.000363771
0.000144862
0.000626407
0.00111509
0.0016172
0.00211333
0.00258405
0.00301674
0.00342435
0.0038423
0.00424105
0.00465169
0.00518111
0.00580866
0.00641613
0.00699844
0.00759962
0.00820294
0.00877504
0.00934627
0.00993573
0.0105434
0.0111629
0.0117842
0.0124154
0.0130629
0.0137103
0.0143547
0.0149946
0.015658
0.0163903
0.0171411
0.0179114
0.018706
0.0195005
0.0202528
0.0210241
0.0218454
0.0226759
0.0234994
0.0243599
0.0252382
0.0261245
0.0270415
0.0279796
0.0289449
0.0298873
0.0308013
0.0317516
0.032757
0.0338119
0.0348637
0.0359523
0.0370305
0.0381192
0.0392292
0.0403632
0.0415224
0.0426979
0.0439129
0.045114
0.0463639
0.0476252
0.0489438
0.0502446
0.0516172
0.0529796
0.05441
0.0558947
0.0573866
0.0589706
0.0604466
0.0621066
-0.0147902
-0.0152637
-0.0151441
-0.0168379
-0.0181089
-0.017355
-0.0153682
-0.01328
-0.0116097
-0.0104433
-0.00963805
-0.00903656
-0.00844265
-0.00765472
-0.00675621
-0.00600421
-0.00543574
-0.00491855
-0.0044073
-0.00389726
-0.00337994
-0.00292542
-0.00261448
-0.00236101
-0.0019889
-0.00146777
-0.000902005
-0.000358423
0.000152417
0.000634847
0.00112182
0.00162079
0.00211516
0.00258662
0.00302079
0.00342813
0.00384493
0.00424425
0.00465645
0.00518581
0.00581214
0.00641909
0.00700133
0.00760186
0.00820445
0.00877645
0.00934783
0.00993716
0.0105445
0.0111638
0.0117853
0.0124166
0.013064