/*--------------------------------*- C++ -*----------------------------------*\
| =========                 |                                                 |
| \\      /  F ield         | OpenFOAM: The Open Source CFD Toolbox           |
|  \\    /   O peration     | Version:  v1906                                 |
|   \\  /    A nd           | Web:      www.OpenFOAM.com                      |
|    \\/     M anipulation  |                                                 |
\*---------------------------------------------------------------------------*/
FoamFile
{
    version     2.0;
    format      ascii;
    class       surfaceScalarField;
    location    "7.9";
    object      phi;
}
// * * * * * * * * * * * * * * * * * * * * * * * * * * * * * * * * * * * * * //

dimensions      [0 3 -1 0 0 0 0];
oriented        oriented;


internalField   nonuniform List<scalar> 
19000
(
1.15373e-06
2.53994e-07
1.14095e-06
-5.19093e-07
1.17111e-06
6.33857e-07
1.15288e-06
-2.2174e-06
1.18769e-06
1.51144e-06
1.16879e-06
4.99074e-07
1.12747e-06
8.37563e-07
1.12984e-06
5.38438e-07
1.12381e-06
-1.07771e-07
1.09399e-06
-1.59129e-06
1.15822e-06
7.92758e-09
1.11142e-06
-2.04006e-06
1.18291e-06
1.19529e-07
1.1426e-06
-6.46126e-07
1.19746e-06
3.62976e-07
1.14757e-06
1.67925e-07
1.18586e-06
4.68452e-07
1.16712e-06
5.88681e-07
1.16336e-06
4.14102e-07
5.24832e-07
1.15921e-06
1.20976e-06
2.68498e-07
1.19693e-06
-5.06268e-07
1.22652e-06
6.04271e-07
1.21084e-06
-2.20172e-06
1.23815e-06
1.48414e-06
1.22712e-06
5.10101e-07
1.17922e-06
8.85462e-07
1.1849e-06
5.32759e-07
1.182e-06
-1.04875e-07
1.15435e-06
-1.56364e-06
1.20743e-06
-4.51523e-08
1.16026e-06
-1.99288e-06
1.22524e-06
5.45468e-08
1.1983e-06
-6.19183e-07
1.23356e-06
3.27717e-07
1.21957e-06
1.81911e-07
1.21925e-06
4.68772e-07
1.24996e-06
5.57975e-07
1.19724e-06
4.66821e-07
4.80488e-07
1.24158e-06
1.26991e-06
2.81376e-07
1.25599e-06
-4.92348e-07
1.2851e-06
5.75162e-07
1.26983e-06
-2.18646e-06
1.29347e-06
1.4605e-06
1.28599e-06
5.17581e-07
1.23989e-06
9.31559e-07
1.2446e-06
5.28056e-07
1.24541e-06
-1.05687e-07
1.21981e-06
-1.53804e-06
1.26291e-06
-8.82571e-08
1.22332e-06
-1.95329e-06
1.27608e-06
1.78742e-09
1.26255e-06
-6.0565e-07
1.28192e-06
3.08343e-07
1.28752e-06
1.7631e-07
1.27162e-06
4.84674e-07
1.30346e-06
5.2613e-07
1.26945e-06
5.00839e-07
4.80806e-07
1.26913e-06
1.33391e-06
2.91565e-07
1.31931e-06
-4.77747e-07
1.34615e-06
5.48325e-07
1.33162e-06
-2.17193e-06
1.35177e-06
1.44035e-06
1.34753e-06
5.21817e-07
1.30856e-06
9.7053e-07
1.31181e-06
5.2481e-07
1.31339e-06
-1.07267e-07
1.28878e-06
-1.51344e-06
1.32041e-06
-1.19888e-07
1.29116e-06
-1.92403e-06
1.33403e-06
-4.10797e-08
1.33409e-06
-6.05712e-07
1.34453e-06
2.97904e-07
1.35628e-06
1.64556e-07
1.34337e-06
4.97592e-07
1.35789e-06
5.11607e-07
1.34844e-06
5.10283e-07
4.9613e-07
1.33312e-06
1.40135e-06
2.98568e-07
1.38729e-06
-4.63685e-07
1.40979e-06
5.25825e-07
1.39524e-06
-2.15738e-06
1.41385e-06
1.42174e-06
1.41176e-06
5.23912e-07
1.38295e-06
9.99334e-07
1.38601e-06
5.21754e-07
1.38649e-06
-1.0775e-07
1.36067e-06
-1.48762e-06
1.38298e-06
-1.42201e-07
1.36115e-06
-1.9022e-06
1.39731e-06
-7.7247e-08
1.40554e-06
-6.13942e-07
1.41718e-06
2.86263e-07
1.42649e-06
1.55248e-07
1.42329e-06
5.00791e-07
1.42545e-06
5.09447e-07
1.42611e-06
5.09629e-07
5.09701e-07
1.41254e-06
1.47159e-06
3.02657e-07
1.45989e-06
-4.51988e-07
1.47638e-06
5.09337e-07
1.46022e-06
-2.14123e-06
1.47951e-06
1.40246e-06
1.47843e-06
5.24992e-07
1.46063e-06
1.01713e-06
1.46535e-06
5.17034e-07
1.46404e-06
-1.06437e-07
1.43545e-06
-1.45903e-06
1.45063e-06
-1.57382e-07
1.43055e-06
-1.88211e-06
1.46283e-06
-1.09527e-07
1.47433e-06
-6.2545e-07
1.49175e-06
2.68849e-07
1.49734e-06
1.49656e-07
1.50218e-06
4.95951e-07
1.49926e-06
5.12367e-07
1.50369e-06
5.05204e-07
5.19787e-07
1.4936e-06
1.54417e-06
3.04704e-07
1.53651e-06
-4.44332e-07
1.54631e-06
4.99536e-07
1.52681e-06
-2.12172e-06
1.54808e-06
1.38119e-06
1.5472e-06
5.25874e-07
1.54028e-06
1.02405e-06
1.5483e-06
5.0901e-07
1.5455e-06
-1.0364e-07
1.51379e-06
-1.42731e-06
1.5235e-06
-1.67089e-07
1.50013e-06
-1.85875e-06
1.52987e-06
-1.39261e-07
1.54146e-06
-6.37039e-07
1.56482e-06
2.4548e-07
1.56813e-06
1.46353e-07
1.57893e-06
4.85153e-07
1.57445e-06
5.16844e-07
1.58196e-06
4.97691e-07
5.26843e-07
1.57491e-06
1.61911e-06
3.05719e-07
1.61625e-06
-4.41468e-07
1.61983e-06
4.95961e-07
1.59578e-06
-2.09768e-06
1.61923e-06
1.35774e-06
1.61819e-06
5.26916e-07
1.62184e-06
1.0204e-06
1.63403e-06
4.96815e-07
1.63009e-06
-9.96973e-08
1.59588e-06
-1.3931e-06
1.60126e-06
-1.72474e-07
1.57158e-06
-1.82907e-06
1.59943e-06
-1.67107e-07
1.60898e-06
-6.46587e-07
1.63736e-06
2.17098e-07
1.6397e-06
1.44014e-07
1.65582e-06
4.69026e-07
1.65146e-06
5.21205e-07
1.66204e-06
4.87114e-07
5.30858e-07
1.65802e-06
1.69688e-06
3.06409e-07
1.69838e-06
-4.42964e-07
1.697e-06
4.97344e-07
1.66813e-06
-2.06882e-06
1.69346e-06
1.33241e-06
1.69245e-06
5.27932e-07
1.70605e-06
1.0068e-06
1.72213e-06
4.80737e-07
1.71707e-06
-9.46363e-08
1.6815e-06
-1.35753e-06
1.68366e-06
-1.74635e-07
1.64651e-06
-1.79192e-06
1.67276e-06
-1.93361e-07
1.67871e-06
-6.52541e-07
1.71147e-06
1.84346e-07
1.71356e-06
1.41919e-07
1.73502e-06
4.47571e-07
1.73196e-06
5.24265e-07
1.74505e-06
4.74025e-07
5.31856e-07
1.74405e-06
1.7781e-06
3.0703e-07
1.78264e-06
-4.47505e-07
1.77791e-06
5.02075e-07
1.7449e-06
-2.0358e-06
1.77206e-06
1.30525e-06
1.77165e-06
5.28339e-07
1.79376e-06
9.84692e-07
1.81222e-06
4.62271e-07
1.80586e-06
-8.82695e-08
1.76999e-06
-1.32167e-06
1.7703e-06
-1.7494e-07
1.726e-06
-1.74762e-06
1.75071e-06
-2.1807e-07
1.75178e-06
-6.53608e-07
1.78845e-06
1.47669e-07
1.79062e-06
1.39752e-07
1.81727e-06
4.20927e-07
1.81633e-06
5.25197e-07
1.83098e-06
4.59381e-07
5.29943e-07
1.83289e-06
1.86329e-06
3.07484e-07
1.86922e-06
-4.53431e-07
1.86278e-06
5.0851e-07
1.82689e-06
-1.99991e-06
1.85631e-06
1.27583e-06
1.85711e-06
5.27531e-07
1.88525e-06
9.56553e-07
1.90389e-06
4.43633e-07
1.89626e-06
-8.06418e-08
1.86063e-06
-1.28603e-06
1.86074e-06
-1.75047e-07
1.81064e-06
-1.69752e-06
1.8337e-06
-2.41128e-07
1.82869e-06
-6.48602e-07
1.86843e-06
1.07933e-07
1.87063e-06
1.37556e-07
1.9018e-06
3.8975e-07
1.90347e-06
5.23531e-07
1.91847e-06
4.44383e-07
5.25042e-07
1.92337e-06
1.95281e-06
3.07515e-07
1.95856e-06
-4.59185e-07
1.95195e-06
5.15126e-07
1.91447e-06
-1.96243e-06
1.94658e-06
1.24372e-06
1.94892e-06
5.2519e-07
1.98016e-06
9.25315e-07
1.99688e-06
4.26909e-07
1.98863e-06
-7.23935e-08
1.953e-06
-1.25041e-06
1.95457e-06
-1.76616e-07
1.90043e-06
-1.64338e-06
1.92176e-06
-2.6246e-07
1.90978e-06
-6.3662e-07
1.95093e-06
6.6785e-08
1.95265e-06
1.3584e-07
1.98699e-06
3.55404e-07
1.99149e-06
5.19033e-07
2.00557e-06
4.30307e-07
5.16785e-07
2.01382e-06
2.04683e-06
3.06879e-07
2.05126e-06
-4.63619e-07
2.04572e-06
5.20665e-07
2.00736e-06
-1.92407e-06
2.04208e-06
1.209e-06
2.04595e-06
5.21316e-07
2.07785e-06
8.9341e-07
2.09144e-06
4.13328e-07
2.08375e-06
-6.47079e-08
2.04737e-06
-1.21403e-06
2.0516e-06
-1.80844e-07
1.99489e-06
-1.58668e-06
2.01467e-06
-2.82241e-07
1.99552e-06
-6.17464e-07
2.03593e-06
2.63764e-08
2.03627e-06
1.35497e-07
2.07172e-06
3.19957e-07
2.07915e-06
5.11603e-07
2.09112e-06
4.18336e-07
5.04649e-07
2.10325e-06
2.14542e-06
3.05463e-07
2.14798e-06
-4.66185e-07
2.14435e-06
5.24303e-07
2.10501e-06
-1.88473e-06
2.14161e-06
1.1724e-06
2.14679e-06
5.16137e-07
2.17815e-06
8.62053e-07
2.18842e-06
4.03062e-07
2.18256e-06
-5.88502e-08
2.14467e-06
-1.17614e-06
2.15196e-06
-1.88134e-07
2.09345e-06
-1.52817e-06
2.11218e-06
-3.00968e-07
2.08661e-06
-5.91896e-07
2.1244e-06
-1.14193e-08
2.12254e-06
1.37362e-07
2.15668e-06
2.85814e-07
2.16702e-06
5.01263e-07
2.17605e-06
4.09304e-07
4.88461e-07
2.19224e-06
2.24862e-06
3.03328e-07
2.24938e-06
-4.66938e-07
2.24797e-06
5.25713e-07
2.20709e-06
-1.84386e-06
2.24461e-06
1.13488e-06
2.25068e-06
5.10074e-07
2.28148e-06
8.31244e-07
2.289e-06
3.95548e-07
2.28581e-06
-5.56648e-08
2.24611e-06
-1.13643e-06
2.25612e-06
-1.98145e-07
2.19592e-06
-1.46797e-06
2.21421e-06
-3.19263e-07
2.18374e-06
-5.61427e-07
2.218e-06
-4.56761e-08
2.21373e-06
1.41636e-07
2.24442e-06
2.55118e-07
2.25759e-06
4.88093e-07
2.26349e-06
4.03409e-07
4.68983e-07
2.28297e-06
2.35655e-06
3.00657e-07
2.35592e-06
-4.66312e-07
2.3567e-06
5.24936e-07
2.31373e-06
-1.80089e-06
2.35141e-06
1.0972e-06
2.35775e-06
5.0373e-07
2.38866e-06
8.00337e-07
2.3942e-06
3.90003e-07
2.39392e-06
-5.53843e-08
2.35262e-06
-1.09513e-06
2.36467e-06
-2.10192e-07
2.30265e-06
-1.40595e-06
2.32092e-06
-3.37533e-07
2.28722e-06
-5.27728e-07
2.31796e-06
-7.64136e-08
2.31194e-06
1.4766e-07
2.33779e-06
2.2927e-07
2.35376e-06
4.7212e-07
2.35681e-06
4.00355e-07
4.47772e-07
2.37803e-06
2.4694e-06
2.97648e-07
2.46789e-06
-4.64802e-07
2.47066e-06
5.22172e-07
2.42532e-06
-1.75556e-06
2.4628e-06
1.05973e-06
2.46878e-06
4.97751e-07
2.50046e-06
7.68651e-07
2.50468e-06
3.85786e-07
2.50709e-06
-5.77947e-08
2.46462e-06
-1.05266e-06
2.47808e-06
-2.23655e-07
2.4143e-06
-1.34217e-06
2.43252e-06
-3.5575e-07
2.39692e-06
-4.92122e-07
2.42447e-06
-1.0397e-07
2.41794e-06
1.54195e-07
2.43829e-06
2.0892e-07
2.45712e-06
4.53287e-07
2.45788e-06
3.99598e-07
4.2654e-07
2.47911e-06
2.5875e-06
2.94446e-07
2.58544e-06
-4.6275e-07
2.58997e-06
5.1764e-07
2.54225e-06
-1.70783e-06
2.57948e-06
1.0225e-06
2.58461e-06
4.9262e-07
2.61748e-06
7.35778e-07
2.62077e-06
3.82502e-07
2.62548e-06
-6.25109e-08
2.5822e-06
-1.00938e-06
2.59665e-06
-2.38101e-07
2.53146e-06
-1.27698e-06
2.54922e-06
-3.73512e-07
2.51258e-06
-4.55481e-07
2.53701e-06
-1.28404e-07
2.53123e-06
1.59974e-07
2.54588e-06
1.94271e-07
2.56751e-06
4.31661e-07
2.56685e-06
4.00253e-07
4.0675e-07
2.58664e-06
2.71114e-06
2.9113e-07
2.70872e-06
-4.6032e-07
2.71479e-06
5.11561e-07
2.66476e-06
-1.6578e-06
2.70192e-06
9.85341e-07
2.70598e-06
4.88558e-07
2.7402e-06
7.01566e-07
2.74274e-06
3.79962e-07
2.74935e-06
-6.91299e-08
2.70543e-06
-9.6546e-07
2.7205e-06
-2.5317e-07
2.65451e-06
-1.21099e-06
2.67123e-06
-3.90237e-07
2.63423e-06
-4.18476e-07
2.65517e-06
-1.49341e-07
2.65111e-06
1.64031e-07
2.66018e-06
1.85202e-07
2.68406e-06
4.07775e-07
2.6832e-06
4.01118e-07
3.89388e-07
2.70056e-06
2.84066e-06
2.87739e-07
2.83792e-06
-4.57583e-07
2.84531e-06
5.04171e-07
2.7931e-06
-1.60559e-06
2.83048e-06
9.47958e-07
2.83345e-06
4.85592e-07
2.86901e-06
6.66005e-07
2.87089e-06
3.78084e-07
2.879e-06
-7.72423e-08
2.83455e-06
-9.21012e-07
2.8498e-06
-2.68414e-07
2.78373e-06
-1.14492e-06
2.79883e-06
-4.05339e-07
2.76217e-06
-3.81812e-07
2.77908e-06
-1.66251e-07
2.77737e-06
1.65733e-07
2.78126e-06
1.81312e-07
2.80647e-06
3.82565e-07
2.80664e-06
4.00955e-07
3.7491e-07
2.82111e-06
2.97634e-06
2.84294e-07
2.97334e-06
-4.54581e-07
2.98179e-06
4.95719e-07
2.92754e-06
-1.55134e-06
2.96551e-06
9.09994e-07
2.96742e-06
4.83678e-07
3.00428e-06
6.29146e-07
3.00556e-06
3.76809e-07
3.01471e-06
-8.63976e-08
2.96992e-06
-8.76226e-07
2.98475e-06
-2.83238e-07
2.91935e-06
-1.07952e-06
2.93235e-06
-4.18342e-07
2.89675e-06
-3.46212e-07
2.90931e-06
-1.78809e-07
2.91029e-06
1.64756e-07
2.90979e-06
1.81815e-07
2.93512e-06
3.57229e-07
2.93744e-06
3.98641e-07
3.63385e-07
2.94896e-06
3.11849e-06
2.80812e-07
3.11526e-06
-4.51348e-07
3.12455e-06
4.86428e-07
3.06843e-06
-1.49522e-06
3.10732e-06
8.71095e-07
3.10822e-06
4.82779e-07
3.14629e-06
5.91077e-07
3.14705e-06
3.76049e-07
3.15676e-06
-9.61055e-08
3.11196e-06
-8.31423e-07
3.12566e-06
-2.96936e-07
3.06166e-06
-1.01553e-06
3.07218e-06
-4.28862e-07
3.03833e-06
-3.1236e-07
3.04648e-06
-1.86959e-07
3.05026e-06
1.60977e-07
3.04638e-06
1.85694e-07
3.07079e-06
3.32814e-07
3.07603e-06
3.93402e-07
3.54564e-07
3.08485e-06
3.26742e-06
2.77301e-07
3.26398e-06
-4.47906e-07
3.27395e-06
4.7646e-07
3.2161e-06
-1.43737e-06
3.25623e-06
8.3097e-07
3.25613e-06
4.82877e-07
3.29528e-06
5.51926e-07
3.29567e-06
3.75655e-07
3.30542e-06
-1.05847e-07
3.26106e-06
-7.87066e-07
3.27287e-06
-3.08748e-07
3.21094e-06
-9.53592e-07
3.21871e-06
-4.36631e-07
3.18714e-06
-2.80788e-07
3.19104e-06
-1.90866e-07
3.19756e-06
1.54455e-07
3.19149e-06
1.91772e-07
3.21413e-06
3.10166e-07
3.22269e-06
3.84848e-07
3.47949e-07
3.2293e-06
3.42348e-06
2.73757e-07
3.41982e-06
-4.44249e-07
3.43038e-06
4.65897e-07
3.37093e-06
-1.37792e-06
3.41248e-06
7.89425e-07
3.41139e-06
4.83966e-07
3.45145e-06
5.11867e-07
3.45171e-06
3.75394e-07
3.46094e-06
-1.15081e-07
3.41763e-06
-7.43757e-07
3.42681e-06
-3.17929e-07
3.36747e-06
-8.94247e-07
3.37236e-06
-4.41518e-07
3.34337e-06
-2.51799e-07
3.34334e-06
-1.90837e-07
3.35241e-06
1.45386e-07
3.34528e-06
1.989e-07
3.36553e-06
2.89919e-07
3.37744e-06
3.72934e-07
3.42814e-07
3.38258e-06
3.587e-06
2.70171e-07
3.58309e-06
-4.40345e-07
3.59425e-06
4.5474e-07
3.53328e-06
-1.31696e-06
3.57633e-06
7.46374e-07
3.57428e-06
4.86024e-07
3.61501e-06
4.71134e-07
3.61546e-06
3.74945e-07
3.62363e-06
-1.23249e-07
3.58206e-06
-7.02187e-07
3.58797e-06
-3.23838e-07
3.53152e-06
-8.378e-07
3.53356e-06
-4.43562e-07
3.50722e-06
-2.25452e-07
3.50365e-06
-1.87271e-07
3.51492e-06
1.34118e-07
3.50775e-06
2.06063e-07
3.52517e-06
2.72499e-07
3.54021e-06
3.57898e-07
3.38314e-07
3.54471e-06
3.75835e-06
2.66527e-07
3.75414e-06
-4.36135e-07
3.76596e-06
4.42915e-07
3.70352e-06
-1.25451e-06
3.74806e-06
7.01834e-07
3.74509e-06
4.88994e-07
3.7862e-06
4.30019e-07
3.78725e-06
3.73902e-07
3.79377e-06
-1.29775e-07
3.75463e-06
-6.63044e-07
3.75685e-06
-3.26059e-07
3.70335e-06
-7.84298e-07
3.70275e-06
-4.42964e-07
3.67891e-06
-2.01608e-07
3.67223e-06
-1.80595e-07
3.68527e-06
1.21083e-07
3.67891e-06
2.1242e-07
3.69322e-06
2.58193e-07
3.71091e-06
3.40204e-07
3.33549e-07
3.71568e-06
3.93791e-06
2.62806e-07
3.93331e-06
-4.31539e-07
3.94593e-06
4.30301e-07
3.88203e-06
-1.19061e-06
3.92796e-06
6.55905e-07
3.92419e-06
4.9276e-07
3.96532e-06
3.88891e-07
3.96743e-06
3.71795e-07
3.97175e-06
-1.34097e-07
3.93559e-06
-6.26889e-07
3.93403e-06
-3.24497e-07
3.88322e-06
-7.3349e-07
3.88032e-06
-4.40057e-07
3.85878e-06
-1.80077e-07
3.8493e-06
-1.71109e-07
3.86364e-06
1.06746e-07
3.85881e-06
2.17249e-07
3.86991e-06
2.47089e-07
3.88947e-06
3.2064e-07
3.27563e-07
3.89546e-06
4.12607e-06
2.58986e-07
4.12099e-06
-4.26462e-07
4.13455e-06
4.16746e-07
4.06921e-06
-1.12527e-06
4.11636e-06
6.08754e-07
4.11199e-06
4.97135e-07
4.15268e-06
3.48192e-07
4.15637e-06
3.68108e-07
4.158e-06
-1.35729e-07
4.12516e-06
-5.94046e-07
4.12005e-06
-3.19386e-07
4.07144e-06
-6.84876e-07
4.06664e-06
-4.3526e-07
4.04721e-06
-1.60644e-07
4.03512e-06
-1.59028e-07
4.05028e-06
9.15898e-08
4.0476e-06
2.19931e-07
4.05556e-06
2.39132e-07
4.07597e-06
3.00222e-07
3.19384e-07
4.08415e-06
4.32324e-06
2.55045e-07
4.31758e-06
-4.20799e-07
4.33223e-06
4.02093e-07
4.26548e-06
-1.05852e-06
4.31364e-06
5.60594e-07
4.30894e-06
5.01838e-07
4.34868e-06
3.0845e-07
4.35448e-06
3.62304e-07
4.35302e-06
-1.3427e-07
4.32356e-06
-5.64585e-07
4.31543e-06
-3.11253e-07
4.26836e-06
-6.37812e-07
4.26205e-06
-4.2895e-07
4.2446e-06
-1.43194e-07
4.23007e-06
-1.44495e-07
4.24546e-06
7.61982e-08
4.24548e-06
2.19913e-07
4.25061e-06
2.34001e-07
4.2707e-06
2.80135e-07
3.08308e-07
4.28178e-06
4.52987e-06
2.50953e-07
4.5235e-06
-4.14436e-07
4.5394e-06
3.86191e-07
4.4713e-06
-9.90412e-07
4.52021e-06
5.11683e-07
4.51554e-06
5.06506e-07
4.55372e-06
2.70263e-07
4.56215e-06
3.53875e-07
4.55735e-06
-1.29465e-07
4.53104e-06
-5.38273e-07
4.52067e-06
-3.00881e-07
4.47449e-06
-5.91638e-07
4.46687e-06
-4.21324e-07
4.45147e-06
-1.27801e-07
4.43456e-06
-1.27585e-07
4.44951e-06
6.12513e-08
4.45265e-06
2.16778e-07
4.45567e-06
2.30976e-07
4.47415e-06
2.61652e-07
2.94162e-07
4.4883e-06
4.74639e-06
2.4668e-07
4.7392e-06
-4.07247e-07
4.75648e-06
3.68908e-07
4.68714e-06
-9.21067e-07
4.73649e-06
4.62332e-07
4.73229e-06
5.10701e-07
4.76828e-06
2.34282e-07
4.77975e-06
3.42398e-07
4.77156e-06
-1.21275e-07
4.7479e-06
-5.14607e-07
4.73623e-06
-2.89214e-07
4.69036e-06
-5.45771e-07
4.68145e-06
-4.12412e-07
4.6683e-06
-1.14654e-07
4.64926e-06
-1.08543e-07
4.66289e-06
4.76231e-08
4.66939e-06
2.10278e-07
4.67124e-06
2.29128e-07
4.68713e-06
2.45758e-07
2.77498e-07
4.70379e-06
4.97329e-06
2.42184e-07
4.96514e-06
-3.99098e-07
4.98391e-06
3.50139e-07
4.91351e-06
-8.50665e-07
4.96294e-06
4.12902e-07
4.95973e-06
5.13914e-07
4.99281e-06
2.01202e-07
5.00765e-06
3.27562e-07
4.99625e-06
-1.09884e-07
4.97454e-06
-4.92889e-07
4.96253e-06
-2.77208e-07
4.91659e-06
-4.99828e-07
4.9062e-06
-4.02023e-07
4.89561e-06
-1.04062e-07
4.87486e-06
-8.77993e-08
4.88619e-06
3.6292e-08
4.89606e-06
2.00409e-07
4.89779e-06
2.27398e-07
4.9105e-06
2.33051e-07
2.59437e-07
4.92856e-06
5.21108e-06
2.37416e-07
5.20183e-06
-3.89844e-07
5.22215e-06
3.29824e-07
5.15096e-06
-7.7948e-07
5.20004e-06
3.63826e-07
5.19837e-06
5.15585e-07
5.22785e-06
1.71722e-07
5.24619e-06
3.09214e-07
5.23203e-06
-9.57219e-08
5.21142e-06
-4.72277e-07
5.19995e-06
-2.65738e-07
5.15383e-06
-4.53706e-07
5.14162e-06
-3.89821e-07
5.13386e-06
-9.63017e-08
5.11215e-06
-6.60856e-08
5.12024e-06
2.82003e-08
5.13305e-06
1.876e-07
5.13569e-06
2.24757e-07
5.14525e-06
2.23494e-07
2.41552e-07
5.16313e-06
5.46028e-06
2.32321e-07
5.44978e-06
-3.79343e-07
5.47164e-06
3.07965e-07
5.40005e-06
-7.07885e-07
5.44827e-06
3.15606e-07
5.44872e-06
5.15136e-07
5.47395e-06
1.46492e-07
5.49577e-06
2.87389e-07
5.4795e-06
-7.94554e-08
5.45908e-06
-4.51849e-07
5.44886e-06
-2.55517e-07
5.40279e-06
-4.07641e-07
5.38822e-06
-3.75247e-07
5.38348e-06
-9.1566e-08
5.36173e-06
-4.43364e-08
5.36605e-06
2.38821e-08
5.38084e-06
1.72805e-07
5.38518e-06
2.20418e-07
5.39225e-06
2.16429e-07
2.25238e-07
5.40856e-06
5.72144e-06
2.2684e-07
5.70955e-06
-3.67458e-07
5.73289e-06
2.8463e-07
5.66135e-06
-6.36347e-07
5.70816e-06
2.68801e-07
5.71131e-06
5.11981e-07
5.73172e-06
1.26079e-07
5.7568e-06
2.6231e-07
5.73928e-06
-6.19275e-08
5.71811e-06
-4.30687e-07
5.70958e-06
-2.46985e-07
5.66418e-06
-3.62242e-07
5.64663e-06
-3.57693e-07
5.64474e-06
-8.96735e-08
5.6241e-06
-2.37012e-08
5.62443e-06
2.35518e-08
5.6401e-06
1.5714e-07
5.6465e-06
2.14019e-07
5.65215e-06
2.10774e-07
2.11452e-07
5.66594e-06
5.99512e-06
2.20913e-07
5.98174e-06
-3.54075e-07
6.0064e-06
2.5997e-07
5.93549e-06
-5.6544e-07
5.98026e-06
2.24028e-07
5.98669e-06
5.05553e-07
6.00192e-06
1.10849e-07
6.02974e-06
2.34494e-07
6.01194e-06
-4.41286e-08
5.98924e-06
-4.07991e-07
5.98253e-06
-2.40269e-07
5.93862e-06
-3.18336e-07
5.91765e-06
-3.36727e-07
5.9181e-06
-9.01172e-08
5.89963e-06
-5.22892e-09
5.89619e-06
2.69831e-08
5.9115e-06
1.41832e-07
5.92007e-06
2.05455e-07
5.9253e-06
2.05535e-07
2.00402e-07
5.93635e-06
6.28192e-06
2.14481e-07
6.26697e-06
-3.39123e-07
6.2927e-06
2.3424e-07
6.22311e-06
-4.95857e-07
6.26518e-06
1.81965e-07
6.27538e-06
4.95356e-07
6.28538e-06
1.00845e-07
6.31508e-06
2.04791e-07
6.29802e-06
-2.70651e-08
6.27327e-06
-3.83239e-07
6.26812e-06
-2.35117e-07
6.22666e-06
-2.76876e-07
6.20214e-06
-3.12208e-07
6.20408e-06
-9.20614e-08
6.18866e-06
1.01864e-08
6.1821e-06
3.35477e-08
6.19589e-06
1.28044e-07
6.20641e-06
1.94932e-07
6.21195e-06
1.99996e-07
1.91664e-07
6.22069e-06
6.58246e-06
2.07489e-07
6.56591e-06
-3.22573e-07
6.59239e-06
2.07759e-07
6.52491e-06
-4.28378e-07
6.56353e-06
1.43348e-07
6.57788e-06
4.8101e-07
6.58291e-06
9.5813e-08
6.61344e-06
1.74257e-07
6.59806e-06
-1.16888e-08
6.57102e-06
-3.56196e-07
6.56691e-06
-2.31006e-07
6.52878e-06
-2.38743e-07
6.50099e-06
-2.84422e-07
6.50336e-06
-9.44319e-08
6.4915e-06
2.20475e-08
6.48275e-06
4.22991e-08
6.49419e-06
1.16607e-07
6.50612e-06
1.83001e-07
6.51249e-06
1.93623e-07
1.84553e-07
6.5196e-06
6.8974e-06
1.99882e-07
6.87926e-06
-3.04434e-07
6.90624e-06
1.80779e-07
6.84159e-06
-3.63733e-07
6.87604e-06
1.08902e-07
6.89472e-06
4.62327e-07
6.89528e-06
9.52534e-08
6.92547e-06
1.44069e-07
6.91261e-06
1.17385e-09
6.88336e-06
-3.26946e-07
6.87956e-06
-2.27205e-07
6.84548e-06
-2.04663e-07
6.81503e-06
-2.53976e-07
6.8166e-06
-9.60068e-08
6.80857e-06
3.00829e-08
6.79867e-06
5.21979e-08
6.80728e-06
1.07997e-07
6.81996e-06
1.70328e-07
6.82735e-06
1.86231e-07
1.78259e-07
6.83364e-06
7.22741e-06
1.91609e-07
7.20769e-06
-2.84714e-07
7.23496e-06
1.53509e-07
7.17375e-06
-3.02526e-07
7.20345e-06
7.92011e-08
7.22651e-06
4.39268e-07
7.22333e-06
9.84407e-08
7.25189e-06
1.15507e-07
7.24214e-06
1.09225e-08
7.21113e-06
-2.95937e-07
7.20679e-06
-2.22863e-07
7.17715e-06
-1.7502e-07
7.14499e-06
-2.21823e-07
7.14458e-06
-9.55922e-08
7.14025e-06
3.44108e-08
7.13041e-06
6.20342e-08
7.13602e-06
1.02389e-07
7.14869e-06
1.57658e-07
7.15718e-06
1.77745e-07
1.72247e-07
7.16319e-06
7.57321e-06
1.82621e-07
7.55192e-06
-2.6342e-07
7.57929e-06
1.26142e-07
7.522e-06
-2.45244e-07
7.54656e-06
5.46511e-08
7.57381e-06
4.12008e-07
7.56787e-06
1.04388e-07
7.59349e-06
8.98863e-08
7.58719e-06
1.72237e-08
7.5551e-06
-2.63847e-07
7.54943e-06
-2.17193e-07
7.52425e-06
-1.49847e-07
7.49147e-06
-1.89041e-07
7.4882e-06
-9.23177e-08
7.48707e-06
3.55362e-08
7.47838e-06
7.07253e-08
7.48126e-06
9.95113e-08
7.49315e-06
1.45765e-07
7.50266e-06
1.68241e-07
1.66132e-07
7.50877e-06
7.93554e-06
1.72888e-07
7.9127e-06
-2.40578e-07
7.93996e-06
9.88842e-08
7.8871e-06
-1.92382e-07
7.9061e-06
3.5647e-08
7.93719e-06
3.8092e-07
7.9297e-06
1.11876e-07
7.95116e-06
6.84273e-08
7.94821e-06
2.01712e-08
7.91594e-06
-2.3157e-07
7.90828e-06
-2.09537e-07
7.8873e-06
-1.28869e-07
7.85487e-06
-1.56606e-07
7.84842e-06
-8.58669e-08
7.84969e-06
3.42631e-08
7.84296e-06
7.74562e-08
7.84381e-06
9.86642e-08
7.85424e-06
1.35325e-07
7.86447e-06
1.58014e-07
1.59654e-07
7.87095e-06
8.31516e-06
1.62405e-07
8.29084e-06
-2.16251e-07
8.3177e-06
7.20218e-08
8.2698e-06
-1.44478e-07
8.28292e-06
2.25198e-08
8.31712e-06
3.46725e-07
8.30944e-06
1.19558e-07
8.32588e-06
5.19873e-08
8.32575e-06
2.03005e-08
8.29422e-06
-2.00038e-07
8.28408e-06
-1.99403e-07
8.26679e-06
-1.11577e-07
8.23571e-06
-1.25524e-07
8.22616e-06
-7.63188e-08
8.22884e-06
3.15785e-08
8.22461e-06
8.16876e-08
8.22432e-06
9.89594e-08
8.23298e-06
1.26666e-07
8.2433e-06
1.47691e-07
1.52469e-07
8.25048e-06
8.71285e-06
1.51221e-07
8.68719e-06
-1.90597e-07
8.7132e-06
4.60139e-08
8.67088e-06
-1.02162e-07
8.67795e-06
1.5457e-08
8.71404e-06
3.10635e-07
8.70758e-06
1.26013e-07
8.71872e-06
4.0848e-08
8.72034e-06
1.86813e-08
8.69031e-06
-1.70008e-07
8.67747e-06
-1.86561e-07
8.66321e-06
-9.73163e-08
8.63462e-06
-9.69375e-08
8.62251e-06
-6.42109e-08
8.62561e-06
2.8481e-08
8.62393e-06
8.33651e-08
8.62337e-06
9.95232e-08
8.6303e-06
1.19735e-07
8.6401e-06
1.3789e-07
1.44549e-07
8.64802e-06
9.12939e-06
1.39449e-07
9.10274e-06
-1.63942e-07
9.12717e-06
2.15859e-08
9.09113e-06
-6.61262e-08
9.0922e-06
1.43824e-08
9.12869e-06
2.74148e-07
9.1246e-06
1.30107e-07
9.13069e-06
3.47538e-08
9.1328e-06
1.65681e-08
9.10472e-06
-1.41923e-07
9.08919e-06
-1.71033e-07
9.07743e-06
-8.55524e-08
9.05234e-06
-7.18519e-08
9.0386e-06
-5.0467e-08
9.0411e-06
2.59808e-08
9.04178e-06
8.26883e-08
9.04153e-06
9.97681e-08
9.04703e-06
1.14236e-07
9.05606e-06
1.28863e-07
1.36315e-07
9.06429e-06
9.56564e-06
1.2727e-07
9.53867e-06
-1.36975e-07
9.56048e-06
-2.23864e-10
9.5315e-06
-3.71436e-08
9.52699e-06
1.88907e-08
9.56192e-06
2.39214e-07
9.56085e-06
1.31179e-07
9.56282e-06
3.27827e-08
9.56435e-06
1.5044e-08
9.53862e-06
-1.16195e-07
9.52087e-06
-1.53285e-07
9.51095e-06
-7.56331e-08
9.48988e-06
-5.0779e-08
9.47535e-06
-3.59347e-08
9.47664e-06
2.46885e-08
9.47911e-06
8.02143e-08
9.4796e-06
9.92818e-08
9.48393e-06
1.0991e-07
9.4922e-06
1.20585e-07
1.2827e-07
9.50025e-06
1.00225e-05
1.14931e-07
9.99613e-06
-1.10627e-07
1.00142e-05
-1.8294e-08
9.99274e-06
-1.56832e-08
9.98382e-06
2.78023e-08
1.00149e-05
2.08187e-07
1.00168e-05
1.29189e-07
1.0016e-05
3.359e-08
1.00166e-05
1.44614e-08
9.99324e-06
-9.28213e-08
9.97419e-06
-1.34236e-07
9.96533e-06
-6.67635e-08
9.94814e-06
-3.35972e-08
9.93367e-06
-2.14581e-08
9.93343e-06
2.49292e-08
9.93697e-06
7.66734e-08
9.93848e-06
9.77655e-08
9.94201e-06
1.06387e-07
9.94935e-06
1.1324e-07
1.20471e-07
9.95715e-06
1.05009e-05
1.0271e-07
1.04761e-05
-8.58474e-08
1.04895e-05
-3.17208e-08
1.04752e-05
-1.33636e-09
1.04638e-05
3.91525e-08
1.04896e-05
1.82437e-07
1.0494e-05
1.24699e-07
1.04916e-05
3.60662e-08
1.0491e-05
1.50801e-08
1.04699e-05
-7.17795e-08
1.04504e-05
-1.14733e-07
1.04418e-05
-5.81511e-08
1.04281e-05
-1.98695e-08
1.04144e-05
-7.81102e-09
1.04127e-05
2.66796e-08
1.04165e-05
7.28342e-08
1.04191e-05
9.51527e-08
1.04222e-05
1.03329e-07
1.04285e-05
1.06943e-07
1.12867e-07
1.04361e-05
1.10019e-05
9.08777e-08
1.09794e-05
-6.33973e-08
1.09878e-05
-4.0082e-08
1.09793e-05
7.12046e-09
1.09677e-05
5.07272e-08
1.09881e-05
1.62093e-07
1.09942e-05
1.1862e-07
1.09906e-05
3.95952e-08
1.09886e-05
1.70821e-08
1.097e-05
-5.3133e-08
1.09504e-05
-9.5146e-08
1.09417e-05
-4.94289e-08
1.09307e-05
-8.8668e-09
1.09184e-05
4.44829e-09
1.09155e-05
2.96339e-08
1.0919e-05
6.93351e-08
1.09226e-05
9.15266e-08
1.09255e-05
1.00382e-07
1.09308e-05
1.01645e-07
1.05616e-07
1.09381e-05
1.15266e-05
7.96615e-08
1.15069e-05
-4.37283e-08
1.15104e-05
-4.35847e-08
1.15063e-05
1.12781e-08
1.14962e-05
6.07865e-08
1.15117e-05
1.466e-07
1.15181e-05
1.12161e-07
1.15142e-05
4.35423e-08
1.1511e-05
2.02904e-08
1.14944e-05
-3.65318e-08
1.14751e-05
-7.58763e-08
1.1466e-05
-4.03287e-08
1.14572e-05
-4.10554e-11
1.14464e-05
1.52333e-08
1.14428e-05
3.32219e-08
1.14457e-05
6.65018e-08
1.14498e-05
8.73954e-08
1.14531e-05
9.70455e-08
1.14576e-05
9.71781e-08
9.91201e-08
1.14641e-05
1.20763e-05
6.9229e-08
1.20595e-05
-2.69641e-08
1.20589e-05
-4.3025e-08
1.20574e-05
1.28352e-08
1.20499e-05
6.8236e-08
1.20614e-05
1.35073e-07
1.20672e-05
1.064e-07
1.20632e-05
4.75332e-08
1.2059e-05
2.44811e-08
1.20441e-05
-2.16115e-08
1.20257e-05
-5.75145e-08
1.2016e-05
-3.05775e-08
1.20088e-05
7.13931e-09
1.19996e-05
2.44352e-08
1.19957e-05
3.7163e-08
1.19979e-05
6.42413e-08
1.20021e-05
8.32737e-08
1.2006e-05
9.31441e-08
1.201e-05
9.31648e-08
9.35826e-08
1.20155e-05
1.26521e-05
5.96849e-08
1.26382e-05
-1.30046e-08
1.26346e-05
-3.94794e-08
1.26341e-05
1.34048e-08
1.26296e-05
7.27076e-08
1.26383e-05
1.26323e-07
1.26428e-05
1.01908e-07
1.26386e-05
5.17496e-08
1.26337e-05
2.94027e-08
1.26203e-05
-8.23545e-09
1.26032e-05
-4.04143e-08
1.2593e-05
-2.03476e-08
1.25868e-05
1.33426e-08
1.25792e-05
3.20209e-08
1.25752e-05
4.11858e-08
1.25768e-05
6.25759e-08
1.25809e-05
7.92433e-08
1.2585e-05
8.90407e-08
1.25891e-05
8.8998e-08
8.90078e-08
1.25937e-05
1.32555e-05
5.1081e-08
1.32442e-05
-1.65133e-09
1.32387e-05
-3.39721e-08
1.3238e-05
1.41257e-08
1.32361e-05
7.45709e-08
1.32432e-05
1.19197e-07
1.32463e-05
9.88343e-08
1.32415e-05
5.65586e-08
1.32361e-05
3.48131e-08
1.32241e-05
3.70749e-09
1.32086e-05
-2.48868e-08
1.31982e-05
-9.95154e-09
1.31926e-05
1.89506e-08
1.31864e-05
3.82446e-08
1.31825e-05
4.50501e-08
1.31837e-05
6.14317e-08
1.31875e-05
7.53818e-08
1.31916e-05
8.49152e-08
1.3196e-05
8.46212e-08
8.4864e-08
1.32002e-05
1.38878e-05
4.34289e-08
1.38789e-05
7.26943e-09
1.38721e-05
-2.71923e-08
1.38708e-05
1.54548e-08
1.38707e-05
7.46379e-08
1.38768e-05
1.13145e-07
1.38785e-05
9.71073e-08
1.38732e-05
6.18936e-08
1.38673e-05
4.06424e-08
1.38568e-05
1.42084e-08
1.3843e-05
-1.10439e-08
1.38329e-05
1.16884e-10
1.38276e-05
2.42546e-08
1.38225e-05
4.33623e-08
1.3819e-05
4.85482e-08
1.38195e-05
6.09184e-08
1.38234e-05
7.15223e-08
1.38273e-05
8.09426e-08
1.38317e-05
8.02307e-08
8.05741e-08
1.3836e-05
1.45505e-05
3.66318e-08
1.45431e-05
1.46063e-08
1.45359e-05
-1.99425e-08
1.45345e-05
1.68638e-08
1.45347e-05
7.44079e-08
1.45394e-05
1.08406e-07
1.45404e-05
9.61106e-08
1.45351e-05
6.71853e-08
1.4529e-05
4.67425e-08
1.45197e-05
2.35675e-08
1.45077e-05
9.72088e-10
1.44983e-05
9.45781e-09
1.44933e-05
2.92633e-08
1.4489e-05
4.76433e-08
1.4486e-05
5.15862e-08
1.44861e-05
6.08579e-08
1.44896e-05
6.79331e-08
1.44937e-05
7.69299e-08
1.44979e-05
7.6018e-08
7.61438e-08
1.45023e-05
1.52446e-05
3.0887e-08
1.52383e-05
2.09172e-08
1.52326e-05
-1.42041e-08
1.52305e-05
1.88993e-08
1.52289e-05
7.60714e-08
1.52323e-05
1.04978e-07
1.52339e-05
9.45345e-08
1.52292e-05
7.19146e-08
1.5223e-05
5.29268e-08
1.52142e-05
3.23011e-08
1.52038e-05
1.13602e-08
1.51955e-05
1.77737e-08
1.5191e-05
3.37679e-08
1.51875e-05
5.11849e-08
1.51849e-05
5.41798e-08
1.51847e-05
6.10325e-08
1.51877e-05
6.49449e-08
1.5192e-05
7.26572e-08
1.51959e-05
7.2056e-08
7.17335e-08
1.52004e-05
1.59729e-05
2.53214e-08
1.59751e-05
1.86776e-08
1.59677e-05
-6.72938e-09
1.59582e-05
2.83292e-08
1.59548e-05
7.94954e-08
1.5958e-05
1.01748e-07
1.59607e-05
9.18548e-08
1.5957e-05
7.56374e-08
1.59508e-05
5.91602e-08
1.59423e-05
4.07215e-08
1.59331e-05
2.05615e-08
1.5926e-05
2.49198e-08
1.59223e-05
3.75003e-08
1.59194e-05
5.40313e-08
1.59173e-05
5.62793e-08
1.5917e-05
6.13556e-08
1.59194e-05
6.25823e-08
1.59236e-05
6.83632e-08
1.59276e-05
6.80946e-08
6.7594e-08
1.59317e-05
1.67345e-05
2.14291e-08
1.67248e-05
2.83694e-08
1.67172e-05
9.18059e-10
1.67157e-05
2.98329e-08
1.6716e-05
7.91662e-08
1.6719e-05
9.86786e-08
1.67223e-05
8.85714e-08
1.672e-05
7.80123e-08
1.67139e-05
6.52039e-08
1.67057e-05
4.89415e-08
1.66972e-05
2.90149e-08
1.66911e-05
3.10919e-08
1.66882e-05
4.03822e-08
1.66863e-05
5.59491e-08
1.66847e-05
5.78124e-08
1.66845e-05
6.16281e-08
1.66863e-05
6.07403e-08
1.66902e-05
6.44836e-08
1.66945e-05
6.38102e-08
6.38345e-08
1.66982e-05
1.75342e-05
1.76197e-08
1.7531e-05
3.15278e-08
1.75207e-05
1.12285e-08
1.75146e-05
3.59037e-08
1.75142e-05
7.96196e-08
1.75164e-05
9.64157e-08
1.752e-05
8.49937e-08
1.75194e-05
7.86333e-08
1.75142e-05
7.04e-08
1.75061e-05
5.69974e-08
1.74982e-05
3.69239e-08
1.74926e-05
3.66784e-08
1.74905e-05
4.24893e-08
1.74896e-05
5.68644e-08
1.74888e-05
5.86604e-08
1.74887e-05
6.16741e-08
1.74902e-05
5.92236e-08
1.74934e-05
6.12978e-08
1.74979e-05
5.93595e-08
6.01739e-08
1.75015e-05
1.83711e-05
1.48882e-08
1.83658e-05
3.68263e-08
1.83574e-05
1.96265e-08
1.83529e-05
4.03479e-08
1.83525e-05
8.00989e-08
1.83531e-05
9.57392e-08
1.83558e-05
8.23718e-08
1.83565e-05
7.78423e-08
1.83529e-05
7.4003e-08
1.83454e-05
6.45439e-08
1.83378e-05
4.45383e-08
1.83326e-05
4.18697e-08
1.83309e-05
4.41794e-08
1.83309e-05
5.68248e-08
1.8331e-05
5.86403e-08
1.83312e-05
6.14026e-08
1.83327e-05
5.77127e-08
1.83353e-05
5.8738e-08
1.83395e-05
5.51832e-08
5.62223e-08
1.83434e-05
1.92487e-05
1.25986e-08
1.92449e-05
4.05821e-08
1.9236e-05
2.85748e-08
1.92315e-05
4.48164e-08
1.92315e-05
8.01264e-08
1.92309e-05
9.63131e-08