/*--------------------------------*- C++ -*----------------------------------*\
| =========                 |                                                 |
| \\      /  F ield         | OpenFOAM: The Open Source CFD Toolbox           |
|  \\    /   O peration     | Version:  v1812                                 |
|   \\  /    A nd           | Web:      www.OpenFOAM.com                      |
|    \\/     M anipulation  |                                                 |
\*---------------------------------------------------------------------------*/
FoamFile
{
    version     2.0;
    format      ascii;
    class       volVectorField;
    location    "7.9";
    object      U;
}
// * * * * * * * * * * * * * * * * * * * * * * * * * * * * * * * * * * * * * //

dimensions      [0 1 -1 0 0 0 0];


internalField   nonuniform List<vector> 
9600
(
(0.989552 0.00245235 0)
(0.984047 -0.00579213 0)
(0.973076 0.00779295 0)
(1.02553 -0.0289057 0)
(0.957811 0.0216561 0)
(1.06171 0.00747913 0)
(0.950244 0.0135712 0)
(0.973095 0.00981067 0)
(0.962171 -0.00219832 0)
(0.960231 -0.0348094 0)
(0.91981 0.00144288 0)
(1.05117 -0.0529882 0)
(0.866403 0.00462423 0)
(1.13835 -0.020323 0)
(0.840814 0.0129716 0)
(1.18051 0.0048478 0)
(0.810853 0.018678 0)
(1.18826 0.0250585 0)
(0.827904 0.0182027 0)
(1.14335 0.0269934 0)
(0.991291 0.0026113 0)
(0.98411 -0.00560111 0)
(0.974276 0.00739265 0)
(1.02423 -0.0286302 0)
(0.959718 0.0212417 0)
(1.05578 0.00773338 0)
(0.95629 0.0143061 0)
(0.966674 0.00971832 0)
(0.96956 -0.00212201 0)
(0.960689 -0.0338723 0)
(0.931889 -0.000702965 0)
(1.02947 -0.0512674 0)
(0.878709 0.00268108 0)
(1.10832 -0.0189967 0)
(0.862017 0.0115916 0)
(1.1417 0.0062605 0)
(0.861017 0.0185983 0)
(1.11927 0.0239941 0)
(0.931196 0.0207838 0)
(1.02002 0.0245634 0)
(0.994508 0.00277305 0)
(0.984566 -0.00545778 0)
(0.976784 0.0070061 0)
(1.02162 -0.0284119 0)
(0.96403 0.0207211 0)
(1.04572 0.00790148 0)
(0.966186 0.0151773 0)
(0.963686 0.00962178 0)
(0.977003 -0.00208245 0)
(0.964129 -0.0334187 0)
(0.94437 -0.00171002 0)
(1.01417 -0.0502927 0)
(0.904786 0.000636726 0)
(1.07208 -0.0183977 0)
(0.906535 0.0102338 0)
(1.08396 0.00655413 0)
(0.929567 0.0185428 0)
(1.04623 0.0226752 0)
(0.990458 0.0228743 0)
(0.986759 0.0235974 0)
(0.998304 0.00288971 0)
(0.985738 -0.0053082 0)
(0.980577 0.0066773 0)
(1.01736 -0.028237 0)
(0.969758 0.0203767 0)
(1.03509 0.00797653 0)
(0.976429 0.0159129 0)
(0.967344 0.00956149 0)
(0.984804 -0.00212047 0)
(0.968959 -0.0328855 0)
(0.955435 -0.00253352 0)
(0.999388 -0.0494937 0)
(0.932419 -0.000696424 0)
(1.04157 -0.0183501 0)
(0.951435 0.00978498 0)
(1.04358 0.00606484 0)
(0.978074 0.0189942 0)
(1.01616 0.0219684 0)
(1.00814 0.0233987 0)
(0.995691 0.0243947 0)
(1.0016 0.00297362 0)
(0.987659 -0.00514495 0)
(0.985683 0.00638095 0)
(1.01145 -0.0280677 0)
(0.975417 0.0201459 0)
(1.02608 0.00802503 0)
(0.98484 0.0164944 0)
(0.975382 0.00952048 0)
(0.993247 -0.0021376 0)
(0.975186 -0.0323366 0)
(0.964004 -0.00314753 0)
(0.990228 -0.0488954 0)
(0.952825 -0.0017167 0)
(1.02131 -0.0185239 0)
(0.981488 0.00966927 0)
(1.02626 0.00558228 0)
(1.00246 0.0196033 0)
(1.01407 0.0216924 0)
(1.01481 0.0234559 0)
(1.00688 0.025518 0)
(1.0037 0.00302803 0)
(0.989912 -0.00499702 0)
(0.991966 0.00614147 0)
(1.00438 -0.0278752 0)
(0.979981 0.0199088 0)
(1.019 0.00805168 0)
(0.990706 0.0168924 0)
(0.984659 0.00946168 0)
(1.00193 -0.00211887 0)
(0.981755 -0.0317486 0)
(0.970923 -0.00357169 0)
(0.985324 -0.0483534 0)
(0.963733 -0.00263824 0)
(1.0087 -0.0187923 0)
(0.996213 0.00924191 0)
(1.02039 0.00539361 0)
(1.01252 0.019676 0)
(1.01787 0.0216358 0)
(1.01965 0.0234588 0)
(1.01433 0.0261712 0)
(1.00454 0.00305695 0)
(0.991879 -0.00488788 0)
(0.998818 0.00598136 0)
(0.997026 -0.0276398 0)
(0.983055 0.0196345 0)
(1.0131 0.00806696 0)
(0.994205 0.0171015 0)
(0.99325 0.00935331 0)
(1.01027 -0.00206836 0)
(0.988213 -0.0310875 0)
(0.977346 -0.0038482 0)
(0.983245 -0.0477752 0)
(0.967914 -0.00347095 0)
(1.00031 -0.0191265 0)
(1.00085 0.00853398 0)
(1.0171 0.00531757 0)
(1.01575 0.0192219 0)
(1.02005 0.0218047 0)
(1.02279 0.0231978 0)
(1.01935 0.0264591 0)
(1.00455 0.00307012 0)
(0.99317 -0.00483072 0)
(1.00525 0.00590363 0)
(0.99037 -0.0273465 0)
(0.984729 0.0193314 0)
(1.00776 0.00808108 0)
(0.996051 0.017131 0)
(1.00056 0.00917479 0)
(1.01767 -0.00199273 0)
(0.993926 -0.0303677 0)
(0.983912 -0.00401581 0)
(0.982536 -0.0470828 0)
(0.969035 -0.00425431 0)
(0.994066 -0.0194533 0)
(1.00039 0.00767755 0)
(1.01366 0.00521566 0)
(1.01597 0.0186081 0)
(1.02073 0.0220742 0)
(1.02477 0.0226936 0)
(1.02308 0.0266761 0)
(1.00429 0.00307708 0)
(0.993816 -0.00482618 0)
(1.01031 0.00589534 0)
(0.985151 -0.0269915 0)
(0.985409 0.0189994 0)
(1.00311 0.00809757 0)
(0.997294 0.0169871 0)
(1.00658 0.00891766 0)
(1.02368 -0.00189788 0)
(0.998448 -0.0296094 0)
(0.990595 -0.0040962 0)
(0.982503 -0.0462279 0)
(0.969607 -0.00499977 0)
(0.989022 -0.0196921 0)
(0.997998 0.00666271 0)
(1.01007 0.00512465 0)
(1.01509 0.0178858 0)
(1.02106 0.0222729 0)
(1.02644 0.0220862 0)
(1.0262 0.0268394 0)
(1.00406 0.0030831 0)
(0.99412 -0.00486349 0)
(1.01349 0.00593723 0)
(0.981737 -0.0265847 0)
(0.985665 0.0186359 0)
(0.99987 0.00811265 0)
(0.998903 0.0166825 0)
(1.01136 0.00859789 0)
(1.02794 -0.00178246 0)
(1.00154 -0.0288393 0)
(0.996792 -0.00411545 0)
(0.98298 -0.0451906 0)
(0.970756 -0.00570273 0)
(0.984835 -0.0198057 0)
(0.995115 0.00549307 0)
(1.00655 0.0050658 0)
(1.01381 0.0169369 0)
(1.02125 0.0223615 0)
(1.02784 0.0214206 0)
(1.02865 0.0268395 0)
(1.00395 0.00308862 0)
(0.994416 -0.004925 0)
(1.01474 0.00600927 0)
(0.980198 -0.0261412 0)
(0.98596 0.0182376 0)
(0.998661 0.00811586 0)
(1.00127 0.0162479 0)
(1.01475 0.0082508 0)
(1.03029 -0.00164293 0)
(1.00334 -0.0280744 0)
(1.00162 -0.00410866 0)
(0.984099 -0.0439762 0)
(0.972614 -0.00636943 0)
(0.981508 -0.0197503 0)
(0.99206 0.00420736 0)
(1.00288 0.00500445 0)
(1.01187 0.0157628 0)
(1.02072 0.022351 0)
(1.02817 0.0207173 0)
(1.02973 0.0266402 0)
(1.0039 0.0030916 0)
(0.99491 -0.00499287 0)
(1.01438 0.00609272 0)
(0.980381 -0.0256713 0)
(0.986366 0.0177984 0)
(0.999332 0.00809618 0)
(1.00408 0.0157328 0)
(1.01653 0.00791701 0)
(1.03086 -0.00148802 0)
(1.00425 -0.0273129 0)
(1.00441 -0.0041138 0)
(0.985956 -0.0426239 0)
(0.974706 -0.0069982 0)
(0.97919 -0.0194793 0)
(0.988739 0.00284697 0)
(0.998671 0.00493541 0)
(1.00864 0.0144356 0)
(1.01852 0.0222316 0)
(1.02647 0.020035 0)
(1.0286 0.0262488 0)
(1.00382 0.00308899 0)
(0.995634 -0.00505114 0)
(1.01292 0.00617042 0)
(0.9819 -0.0251832 0)
(0.986588 0.0173171 0)
(1.00098 0.00804705 0)
(1.00661 0.0151905 0)
(1.01675 0.00763195 0)
(1.03008 -0.00133586 0)
(1.00476 -0.0265409 0)
(1.00512 -0.00416834 0)
(0.988368 -0.0411833 0)
(0.976395 -0.00758189 0)
(0.977956 -0.0189808 0)
(0.985241 0.00148177 0)
(0.993819 0.00489254 0)
(1.00383 0.0130368 0)
(1.01414 0.0219864 0)
(1.02233 0.0194384 0)
(1.02491 0.0256663 0)
(1.00366 0.00307848 0)
(0.996479 -0.00508915 0)
(1.01101 0.0062276 0)
(0.984164 -0.0246801 0)
(0.986338 0.0168026 0)
(1.0025 0.00797218 0)
(1.00833 0.0146554 0)
(1.01577 0.00741217 0)
(1.02854 -0.00120692 0)
(1.00521 -0.0257434 0)
(1.00438 -0.00429812 0)
(0.990863 -0.0396963 0)
(0.977356 -0.00812854 0)
(0.977653 -0.0182725 0)
(0.982038 0.00017577 0)
(0.988802 0.00492695 0)
(0.998062 0.0116558 0)
(1.00804 0.0215943 0)
(1.01632 0.0189749 0)
(1.01925 0.0248998 0)
(1.00344 0.00306028 0)
(0.997275 -0.00510594 0)
(1.0092 0.00625751 0)
(0.986554 -0.0241578 0)
(0.985671 0.01627 0)
(1.00324 0.00787902 0)
(1.00907 0.0141351 0)
(1.01418 0.00724901 0)
(1.02678 -0.00112336 0)
(1.00569 -0.0249074 0)
(1.00315 -0.00450606 0)
(0.992952 -0.0381812 0)
(0.977738 -0.00864569 0)
(0.977914 -0.0174023 0)
(0.979699 -0.00102061 0)
(0.984396 0.00505591 0)
(0.99255 0.0103776 0)
(1.00149 0.021057 0)
(1.00979 0.018672 0)
(1.01294 0.023965 0)
(1.0032 0.00303553 0)
(0.997904 -0.00510496 0)
(1.00781 0.00626063 0)
(0.988665 -0.0236122 0)
(0.984913 0.0157318 0)
(1.00316 0.00777539 0)
(1.00905 0.0136222 0)
(1.01246 0.00712946 0)
(1.02511 -0.00109451 0)
(1.00611 -0.0240305 0)
(1.00214 -0.00477611 0)
(0.994418 -0.0366299 0)
(0.977935 -0.00914509 0)
(0.97834 -0.0164178 0)
(0.978446 -0.00207862 0)
(0.981131 0.00525237 0)
(0.988282 0.00928199 0)
(0.995836 0.0203928 0)
(1.00398 0.0185263 0)
(1.00723 0.0229104 0)
(1.00296 0.00300627 0)
(0.998344 -0.00509149 0)
(1.00687 0.0062386 0)
(0.99038 -0.0230394 0)
(0.984342 0.0151963 0)
(1.00256 0.00767554 0)
(1.00857 0.013104 0)
(1.0109 0.00704158 0)
(1.0236 -0.00111719 0)
(1.00638 -0.0231224 0)
(1.00152 -0.00508709 0)
(0.995354 -0.035029 0)
(0.978249 -0.00965498 0)
(0.978674 -0.0153628 0)
(0.978033 -0.00304101 0)
(0.978981 0.00547957 0)
(0.985439 0.00841005 0)
(0.991657 0.0196033 0)
(0.999455 0.018501 0)
(1.00272 0.021832 0)
(1.00274 0.00297467 0)
(0.998647 -0.00507101 0)
(1.0062 0.00619391 0)
(0.99175 -0.0224363 0)
(0.984019 0.0146688 0)
(1.00178 0.00758967 0)
(1.0079 0.0125666 0)
(1.00954 0.00697423 0)
(1.02224 -0.00118954 0)
(1.0065 -0.0221926 0)
(1.00114 -0.00542687 0)
(0.995976 -0.0333744 0)
(0.978753 -0.0101727 0)
(0.97885 -0.0142705 0)
(0.978038 -0.00391177 0)
(0.977559 0.00569382 0)
(0.98357 0.00775625 0)
(0.988732 0.0187001 0)
(0.996023 0.0185518 0)
(0.999278 0.0208112 0)
(1.00255 0.0029418 0)
(0.998874 -0.00504619 0)
(1.00566 0.00612969 0)
(0.992848 -0.0218028 0)
(0.983883 0.0141457 0)
(1.00103 0.00752196 0)
(1.00724 0.0120062 0)
(1.00838 0.0069246 0)
(1.021 -0.00130267 0)
(1.00651 -0.0212498 0)
(1.00079 -0.00577776 0)
(0.996433 -0.031699 0)
(0.979387 -0.0106426 0)
(0.978921 -0.013159 0)
(0.978193 -0.00464309 0)
(0.976512 0.00585712 0)
(0.982172 0.00731828 0)
(0.98658 0.017707 0)
(0.993278 0.0186202 0)
(0.996547 0.0198879 0)
(1.00238 0.00290785 0)
(0.99906 -0.00501741 0)
(1.00517 0.00604886 0)
(0.993713 -0.0211411 0)
(0.983879 0.0136234 0)
(1.0004 0.00746891 0)
(1.00669 0.0114228 0)
(1.00741 0.00688573 0)
(1.01988 -0.00145275 0)
(1.00645 -0.0202912 0)
(1.00038 -0.00614468 0)
(0.99677 -0.0300018 0)
(0.980083 -0.0110866 0)
(0.97896 -0.0120431 0)
(0.978444 -0.00524984 0)
(0.975725 0.00593442 0)
(0.98103 0.00710097 0)
(0.984929 0.0166561 0)
(0.990998 0.0186385 0)
(0.994304 0.0190915 0)
(1.00223 0.00287328 0)
(0.999217 -0.00498563 0)
(1.00472 0.00595401 0)
(0.994366 -0.0204522 0)
(0.983997 0.0130949 0)
(0.999926 0.00743203 0)
(1.00627 0.010818 0)
(1.00663 0.00685758 0)
(1.01885 -0.00163236 0)
(1.00638 -0.0193207 0)
(0.999917 -0.00650973 0)
(0.996983 -0.0283122 0)
(0.980803 -0.0114968 0)
(0.979029 -0.0109507 0)
(0.978823 -0.00572676 0)
(0.975255 0.00591724 0)
(0.98017 0.0070748 0)
(0.983762 0.0155903 0)
(0.989199 0.0185658 0)
(0.992532 0.0184407 0)
(1.0021 0.0028385 0)
(0.999348 -0.00495148 0)
(1.0043 0.00584756 0)
(0.994841 -0.0197373 0)
(0.984238 0.0125541 0)
(0.999589 0.00741015 0)
(1.00599 0.0101921 0)
(1.00601 0.00684199 0)
(1.0179 -0.00182595 0)
(1.00631 -0.0183511 0)
(0.999449 -0.00684538 0)
(0.997085 -0.0266662 0)
(0.981534 -0.0118147 0)
(0.979163 -0.00991747 0)
(0.979342 -0.00605166 0)
(0.975164 0.00581723 0)
(0.979658 0.00717137 0)
(0.983131 0.0145438 0)
(0.987957 0.0183889 0)
(0.991268 0.0179478 0)
(1.00199 0.00280323 0)
(0.999453 -0.00491523 0)
(1.00391 0.00573303 0)
(0.995185 -0.0190004 0)
(0.98459 0.0120003 0)
(0.999369 0.00740091 0)
(1.00579 0.00954549 0)
(1.00554 0.00683381 0)
(1.01701 -0.00202391 0)
(1.00625 -0.0173866 0)
(0.999003 -0.00714798 0)
(0.997102 -0.0250642 0)
(0.98227 -0.0120478 0)
(0.979376 -0.00893878 0)
(0.979973 -0.00623755 0)
(0.975445 0.00563359 0)
(0.979494 0.00735795 0)
(0.983018 0.0135507 0)
(0.987283 0.0180873 0)
(0.990487 0.0175968 0)
(1.00192 0.00276784 0)
(0.999537 -0.00487779 0)
(1.00355 0.00561194 0)
(0.995447 -0.0182413 0)
(0.985026 0.0114251 0)
(0.999229 0.0074134 0)
(1.00565 0.00887941 0)
(1.00517 0.00683447 0)
(1.01616 -0.00221933 0)
(1.0062 -0.0164356 0)
(0.998594 -0.0073958 0)
(0.997069 -0.0235298 0)
(0.983013 -0.0122083 0)
(0.979665 -0.00803214 0)
(0.98067 -0.00629218 0)
(0.976035 0.00536405 0)
(0.979613 0.00761664 0)
(0.983313 0.0126314 0)
(0.987091 0.017619 0)
(0.990091 0.0173545 0)
(1.00187 0.00273211 0)
(0.999601 -0.00483772 0)
(1.00321 0.00548258 0)
(0.995669 -0.0174616 0)
(0.985519 0.010828 0)
(0.999135 0.00744117 0)
(1.00553 0.0081986 0)
(1.00485 0.00683472 0)
(1.01535 -0.00240216 0)
(1.00616 -0.0155148 0)
(0.998233 -0.00757393 0)
(0.997008 -0.0220676 0)
(0.983766 -0.0122936 0)
(0.980019 -0.00720419 0)
(0.981389 -0.00622929 0)
(0.976848 0.00499952 0)
(0.979922 0.00790156 0)
(0.983867 0.0118174 0)
(0.987257 0.0169866 0)
(0.989959 0.0171828 0)
(1.00184 0.00269623 0)
(0.999651 -0.00479498 0)
(1.00289 0.00534558 0)
(0.995879 -0.0166621 0)
(0.986044 0.0102121 0)
(0.999058 0.00747733 0)
(1.0054 0.00751154 0)
(1.00455 0.00682668 0)
(1.01454 -0.0025521 0)
(1.00612 -0.0146498 0)
(0.997926 -0.00765774 0)
(0.996933 -0.0206836 0)
(0.984537 -0.0122992 0)
(0.980421 -0.00644599 0)
(0.982098 -0.00606597 0)
(0.977805 0.00456998 0)
(0.980342 0.00817589 0)
(0.984538 0.0111267 0)
(0.987652 0.0162093 0)
(0.989982 0.0170258 0)
(1.00182 0.00265919 0)
(0.999691 -0.00474727 0)
(1.00257 0.00520016 0)
(0.996091 -0.0158435 0)
(0.986586 0.00957304 0)
(0.998976 0.0075329 0)
(1.00527 0.00681908 0)
(1.00427 0.00680039 0)
(1.01376 -0.00266294 0)
(1.00608 -0.0138443 0)
(0.997674 -0.00764505 0)
(0.996845 -0.019375 0)
(0.985333 -0.0122472 0)
(0.980859 -0.0057543 0)
(0.98278 -0.00581328 0)
(0.978845 0.00409068 0)
(0.980816 0.00842375 0)
(0.985218 0.0105739 0)
(0.988178 0.0152986 0)
(0.990092 0.0168182 0)
(1.00181 0.00262093 0)
(0.999726 -0.00469435 0)
(1.00227 0.00504434 0)
(0.996306 -0.0150071 0)
(0.987137 0.00891362 0)
(0.99888 0.00760213 0)
(1.00514 0.00613268 0)
(1.00397 0.00674579 0)
(1.01298 -0.00272238 0)
(1.00603 -0.0131027 0)
(0.997476 -0.00755206 0)
(0.996737 -0.0181158 0)
(0.986158 -0.0121459 0)
(0.981326 -0.00513665 0)
(0.983423 -0.00546651 0)
(0.979933 0.00355092 0)
(0.981323 0.00861387 0)
(0.985837 0.0101798 0)
(0.988768 0.0143019 0)
(0.990267 0.0164941 0)
(1.0018 0.00258278 0)
(0.999761 -0.00463926 0)
(1.00198 0.00487918 0)
(0.99652 -0.0141496 0)
(0.987696 0.00823712 0)
(0.998768 0.0076738 0)
(1.00501 0.00546138 0)
(1.00366 0.00666291 0)
(1.01221 -0.00272001 0)
(1.00596 -0.0124424 0)
(0.997326 -0.00737182 0)
(0.996608 -0.0169029 0)
(0.987001 -0.0119927 0)
(0.981828 -0.00457615 0)
(0.984022 -0.00502197 0)
(0.981049 0.0029751 0)
(0.981871 0.00868816 0)
(0.986367 0.00993198 0)
(0.989377 0.0132909 0)
(0.990512 0.0160049 0)
(1.00178 0.00254301 0)
(0.999799 -0.0045762 0)
(1.00171 0.00470008 0)
(0.996724 -0.0132745 0)
(0.988266 0.0075466 0)
(0.998643 0.00775265 0)
(1.00489 0.00480665 0)
(1.00335 0.00653761 0)
(1.01145 -0.00265356 0)
(1.00587 -0.0118636 0)
(0.997216 -0.00713136 0)
(0.996455 -0.0157199 0)
(0.987858 -0.0118042 0)
(0.98237 -0.00405544 0)
(0.984573 -0.00450218 0)
(0.982174 0.0023969 0)
(0.982478 0.00863521 0)
(0.986809 0.00981887 0)
(0.989973 0.0123407 0)
(0.990845 0.0153149 0)
(1.00175 0.00250133 0)
(0.999842 -0.00450271 0)
(1.00144 0.00450321 0)
(0.996911 -0.0123824 0)
(0.988851 0.00684705 0)
(0.998511 0.00782907 0)
(1.00478 0.00418112 0)
(1.00305 0.00635547 0)
(1.01069 -0.00251787 0)
(1.00577 -0.0113479 0)
(0.997141 -0.00686542 0)
(0.99628 -0.0145338 0)
(0.988714 -0.011581 0)
(0.982963 -0.00362476 0)
(0.985075 -0.00391209 0)
(0.983298 0.00185461 0)
(0.983167 0.00844416 0)
(0.987182 0.00979376 0)
(0.990524 0.0115166 0)
(0.991273 0.0144377 0)
(1.0017 0.00245706 0)
(0.999893 -0.00441904 0)
(1.0012 0.00428921 0)
(0.997075 -0.0114737 0)
(0.989455 0.0061464 0)
(0.998379 0.00788649 0)
(1.00469 0.00360574 0)
(1.00277 0.00611507 0)
(1.00993 -0.00231187 0)
(1.00566 -0.0108712 0)
(0.9971 -0.0065856 0)
(0.996089 -0.013345 0)
(0.989551 -0.0113298 0)
(0.983614 -0.00326651 0)
(0.985536 -0.00323891 0)
(0.9844 0.00139204 0)
(0.983948 0.00809251 0)
(0.987517 0.00978553 0)
(0.991005 0.0108715 0)
(0.991786 0.0134433 0)
(1.00165 0.00241111 0)
(0.999951 -0.00432477 0)
(1.00098 0.00405598 0)
(0.997214 -0.0105543 0)
(0.990077 0.00544728 0)
(0.998252 0.00792809 0)
(1.0046 0.0030829 0)
(1.00251 0.0058058 0)
(1.00916 -0.00203702 0)
(1.00554 -0.0104312 0)
(0.997091 -0.00631159 0)
(0.995883 -0.0121565 0)
(0.990361 -0.0110386 0)
(0.984334 -0.00298679 0)
(0.985961 -0.00251103 0)
(0.985455 0.00104458 0)
(0.984821 0.00759741 0)
(0.987857 0.00972907 0)
(0.991403 0.0104188 0)
(0.992347 0.0124413 0)
(1.00158 0.00236228 0)
(1.00001 -0.00421772 0)
(1.00078 0.0038016 0)
(0.997329 -0.00962493 0)
(0.990716 0.00475747 0)
(0.998136 0.00794034 0)
(1.00451 0.00262305 0)
(1.00228 0.00543108 0)
(1.00839 -0.00171921 0)
(1.00541 -0.0100003 0)
(0.997119 -0.00606195 0)
(0.995672 -0.0109658 0)
(0.99113 -0.0106802 0)
(0.985123 -0.00280803 0)
(0.986367 -0.0017861 0)
(0.986442 0.000829638 0)
(0.985769 0.00701073 0)
(0.988238 0.00958692 0)
(0.991724 0.0101135 0)
(0.992907 0.0115304 0)
(1.00151 0.00230937 0)
(1.00008 -0.00409575 0)
(1.00061 0.00352931 0)
(0.997423 -0.00869428 0)
(0.991366 0.00408558 0)
(0.998032 0.00791272 0)
(1.00441 0.00224572 0)
(1.00208 0.00499598 0)
(1.00762 -0.00137233 0)
(1.00526 -0.00955201 0)
(0.997188 -0.00585522 0)
(0.995461 -0.0097742 0)
(0.991848 -0.0102369 0)
(0.985979 -0.00271271 0)
(0.98677 -0.0010773 0)
(0.987347 0.000760568 0)
(0.986771 0.00637743 0)
(0.988686 0.00934422 0)
(0.991985 0.00989468 0)
(0.993421 0.0107744 0)
(1.00144 0.00225222 0)
(1.00015 -0.00395655 0)
(1.00045 0.00324005 0)
(0.997497 -0.00777176 0)
(0.992021 0.00343842 0)
(0.997945 0.00784131 0)
(1.00429 0.00195118 0)
(1.00193 0.00450414 0)
(1.00687 -0.00100987 0)
(1.00508 -0.00908365 0)
(0.997303 -0.00569035 0)
(0.995262 -0.00861675 0)
(0.992503 -0.00969221 0)
(0.986895 -0.00271128 0)
(0.987191 -0.000431826 0)
(0.988157 0.000843232 0)
(0.987798 0.00573932 0)
(0.989216 0.00899278 0)
(0.992217 0.00970104 0)
(0.993854 0.0102004 0)
(1.00137 0.00219 0)
(1.00021 -0.00379913 0)
(1.00033 0.00293731 0)
(0.997556 -0.00685896 0)
(0.992675 0.0028241 0)
(0.997875 0.00771322 0)
(1.00415 0.00174236 0)
(1.0018 0.00397552 0)
(1.00613 -0.000656215 0)
(1.00488 -0.00856313 0)
(0.997465 -0.00557245 0)
(0.995087 -0.00751844 0)
(0.993085 -0.00905149 0)
(0.987855 -0.00276827 0)
(0.987651 0.000137847 0)
(0.988872 0.00105427 0)
(0.988817 0.00515205 0)
(0.989831 0.0085461 0)
(0.992454 0.0094756 0)
(0.9942 0.00977796 0)
(1.00129 0.00212202 0)
(1.00027 -0.00362481 0)
(1.00023 0.00262427 0)
(0.997602 -0.005965 0)
(0.993322 0.00225296 0)
(0.997827 0.00752181 0)
(1.00399 0.00162616 0)
(1.00171 0.00342098 0)
(1.00543 -0.000335486 0)
(1.00465 -0.00799246 0)
(0.997671 -0.00548492 0)
(0.99495 -0.00650357 0)
(0.99359 -0.00830102 0)
(0.98885 -0.00284642 0)
(0.988168 0.000609669 0)
(0.989494 0.00137129 0)
(0.989794 0.00466305 0)
(0.990518 0.00803045 0)
(0.992725 0.00919514 0)
(0.994473 0.00945813 0)
(1.00122 0.00204942 0)
(1.00032 -0.00343617 0)
(1.00017 0.0023046 0)
(0.997638 -0.00510513 0)
(0.993954 0.00174024 0)
(0.997802 0.00726216 0)
(1.00379 0.00158864 0)
(1.00164 0.00286638 0)
(1.00478 -5.8838e-05 0)
(1.0044 -0.00737385 0)
(0.997916 -0.00540618 0)
(0.994866 -0.00558814 0)
(0.994018 -0.00746966 0)
(0.989853 -0.00292131 0)
(0.988756 0.000927353 0)
(0.990045 0.00173686 0)
(0.990704 0.00428744 0)
(0.991257 0.00747661 0)
(0.993049 0.00886251 0)
(0.994703 0.00917389 0)
(1.00116 0.00197077 0)
(1.00037 -0.00323157 0)
(1.00012 0.00198237 0)
(0.997667 -0.00428702 0)
(0.994566 0.00128761 0)
(0.997804 0.00693828 0)
(1.00357 0.00161672 0)
(1.0016 0.00232822 0)
(1.00417 0.000150739 0)
(1.00411 -0.00670312 0)
(0.99819 -0.00531821 0)
(0.994846 -0.00478212 0)
(0.994371 -0.00658896 0)
(0.990841 -0.00293987 0)
(0.989421 0.00111276 0)
(0.990547 0.00211111 0)
(0.99153 0.00403024 0)
(0.992028 0.00691073 0)
(0.993433 0.00847912 0)
(0.994913 0.00888058 0)
(1.00109 0.00188279 0)
(1.0004 -0.0030055 0)
(1.00011 0.00165509 0)
(0.997691 -0.00351635 0)
(0.995153 0.000904157 0)
(0.997838 0.0065452 0)
(1.00333 0.00169913 0)
(1.00156 0.00183344 0)
(1.00362 0.000295014 0)
(1.0038 -0.00600433 0)
(0.998481 -0.00519891 0)
(0.994897 -0.00409741 0)
(0.994664 -0.00567166 0)
(0.991791 -0.00287884 0)
(0.990159 0.00117085 0)
(0.991028 0.00246297 0)
(0.99226 0.00389696 0)
(0.992806 0.00636858 0)
(0.993881 0.0080472 0)
(0.99513 0.00858184 0)
(1.00103 0.00179024 0)
(1.00043 -0.00276813 0)
(1.00012 0.00133224 0)
(0.997711 -0.00280207 0)
(0.995708 0.000597366 0)
(0.997904 0.00608218 0)
(1.00308 0.00181843 0)
(1.00153 0.00140522 0)
(1.00314 0.000376817 0)
(1.00347 -0.00530374 0)
(0.998777 -0.00503831 0)
(0.995024 -0.00352349 0)
(0.994909 -0.00475271 0)
(0.992677 -0.00272182 0)
(0.990963 0.00113303 0)
(0.99152 0.00273915 0)
(0.992899 0.00385835 0)
(0.993562 0.00588307 0)
(0.994391 0.00756564 0)
(0.995375 0.0082742 0)
(1.00098 0.00168875 0)
(1.00044 -0.00250873 0)
(1.00015 0.00100656 0)
(0.997732 -0.00214927 0)
(0.996226 0.000376104 0)
(0.998004 0.0055658 0)
(1.00281 0.00194997 0)
(1.00149 0.00105824 0)
(1.00272 0.000399153 0)
(1.00314 -0.00461858 0)
(0.999067 -0.00482796 0)
(0.995226 -0.00305075 0)
(0.995125 -0.00386754 0)
(0.993485 -0.00246684 0)
(0.991807 0.00104716 0)
(0.992043 0.00292365 0)
(0.99346 0.00387908 0)
(0.99427 0.00548023 0)
(0.994954 0.00705277 0)
(0.995673 0.0079331 0)
(1.00093 0.00157824 0)
(1.00044 -0.00222802 0)
(1.0002 0.000688349 0)
(0.997757 -0.00156622 0)
(0.996699 0.000242256 0)
(0.998134 0.0050134 0)
(1.00255 0.00207079 0)
(1.00144 0.00081777 0)
(1.00236 0.000385436 0)
(1.0028 -0.00395964 0)
(0.999342 -0.00455495 0)
(0.9955 -0.00266341 0)
(0.995328 -0.00303696 0)
(0.994206 -0.00213561 0)
(0.992673 0.000942685 0)
(0.992611 0.00301107 0)
(0.993966 0.0039192 0)
(0.994915 0.00516822 0)
(0.995547 0.0065462 0)
(0.996038 0.00753011 0)
(1.00089 0.00146318 0)
(1.00043 -0.00193848 0)
(1.00027 0.000389575 0)
(0.997791 -0.00105766 0)
(0.997125 0.000197533 0)
(0.99829 0.00444865 0)
(1.00231 0.0021581 0)
(1.00138 0.000670908 0)
(1.00205 0.000346203 0)
(1.00248 -0.00333904 0)
(0.999596 -0.00421788 0)
(0.995837 -0.00233977 0)
(0.995534 -0.00229468 0)
(0.994836 -0.00173486 0)
(0.993532 0.000848536 0)
(0.993228 0.00300693 0)
(0.994443 0.00394567 0)
(0.995494 0.00494031 0)
(0.996137 0.00608998 0)
(0.99647 0.00707726 0)
(1.00084 0.00134048 0)
(1.0004 -0.00163675 0)
(1.00036 0.000112584 0)
(0.997839 -0.000637604 0)
(0.997499 0.00023729 0)
(0.998462 0.00389677 0)
(1.00209 0.00219261 0)
(1.00131 0.000604749 0)
(1.0018 0.000305494 0)
(1.00217 -0.00276883 0)
(0.999825 -0.00382055 0)
(0.996223 -0.00206661 0)
(0.99576 -0.00165992 0)
(0.995382 -0.00129452 0)
(0.994359 0.000791454 0)
(0.993889 0.00293404 0)
(0.994914 0.0039349 0)
(0.996014 0.00476283 0)
(0.996699 0.0057043 0)
(0.996945 0.00662311 0)
(1.00081 0.0012149 0)
(1.00036 -0.00133725 0)
(1.00045 -0.000131217 0)
(0.997905 -0.000314572 0)
(0.997825 0.000341203 0)
(0.99864 0.00339081 0)
(1.00189 0.00217647 0)
(1.00123 0.000599238 0)
(1.00158 0.000283403 0)
(1.0019 -0.00224667 0)
(1.00003 -0.00337921 0)
(0.996645 -0.00182822 0)
(0.996017 -0.00113664 0)
(0.995858 -0.000850956 0)
(0.995137 0.000786864 0)
(0.994579 0.00281372 0)
(0.995392 0.00388935 0)
(0.996492 0.00460718 0)
(0.997225 0.00536311 0)
(0.997434 0.00619828 0)
(1.00078 0.00108958 0)
(1.0003 -0.00105335 0)
(1.00054 -0.000319915 0)
(0.997993 -8.65232e-05 0)
(0.998107 0.00049202 0)
(0.998813 0.00296115 0)
(1.00172 0.002114 0)
(1.00114 0.000631394 0)
(1.00141 0.000291318 0)
(1.00165 -0.00176298 0)
(1.0002 -0.0029208 0)
(0.997085 -0.00160306 0)
(0.996309 -0.000717172 0)
(0.996281 -0.000424625 0)
(0.995852 0.000832583 0)
(0.995286 0.00267165 0)
(0.995886 0.00380388 0)
(0.996928 0.00447321 0)
(0.997712 0.00505556 0)
(0.997918 0.00581532 0)
(1.00075 0.000967538 0)
(1.00024 -0.000795202 0)
(1.00062 -0.000443194 0)
(0.998103 5.10396e-05 0)
(0.998355 0.00065971 0)
(0.998974 0.00261892 0)
(1.00158 0.00202201 0)
(1.00106 0.000687138 0)
(1.00126 0.000316579 0)
(1.00143 -0.00132439 0)
(1.00034 -0.00245404 0)
(0.997531 -0.00138074 0)
(0.996639 -0.000380398 0)
(0.996667 -2.2666e-05 0)
(0.996497 0.000918422 0)
(0.995987 0.00253381 0)
(0.996405 0.00367061 0)
(0.997341 0.00435287 0)
(0.998162 0.00479419 0)
(0.998397 0.00545749 0)
(1.00072 0.00085155 0)
(1.00017 -0.000566497 0)
(1.0007 -0.000509173 0)
(0.998232 0.000121414 0)
(0.998578 0.000809181 0)
(0.999119 0.00236367 0)
(1.00146 0.00191759 0)
(1.00098 0.000754089 0)
(1.00114 0.000367269 0)
(1.00125 -0.000939921 0)
(1.00046 -0.00198563 0)
(0.997967 -0.00115452 0)
(0.997004 -0.000113367 0)
(0.99703 0.000327814 0)
(0.997073 0.00103029 0)
(0.996668 0.00241321 0)
(0.996947 0.00350602 0)
(0.997746 0.00422526 0)
(0.998566 0.00458503 0)
(0.998859 0.00511202 0)
(1.0007 0.000742265 0)
(1.00009 -0.000369599 0)
(1.00076 -0.000518565 0)
(0.998376 0.000151928 0)
(0.998787 0.000925072 0)
(0.999249 0.00216463 0)
(1.00136 0.00181595 0)
(1.0009 0.000823725 0)
(1.00105 0.00044158 0)
(1.00111 -0.000604238 0)
(1.00055 -0.00153694 0)
(0.998384 -0.00090624 0)
(0.997394 0.000101426 0)
(0.997381 0.000622925 0)
(0.997586 0.00115999 0)
(0.997311 0.00232072 0)
(0.997504 0.0033322 0)
(0.998165 0.00407637 0)
(0.99893 0.00441606 0)
(0.999285 0.00481123 0)
(1.00068 0.000642595 0)
(1.00001 -0.000205924 0)
(1.00081 -0.000489611 0)
(0.99853 0.000161968 0)
(0.998985 0.00100128 0)
(0.999365 0.00201056 0)
(1.00128 0.00173474 0)
(1.00084 0.000898754 0)
(1.00098 0.000525621 0)
(1.00099 -0.000306453 0)
(1.00064 -0.0011232 0)
(0.998776 -0.000647203 0)
(0.997798 0.000279854 0)
(0.99773 0.000873291 0)
(0.998047 0.00129111 0)
(0.997913 0.00225258 0)
(0.998063 0.0031671 0)
(0.9986 0.00390014 0)
(0.999274 0.00424677 0)
(0.99966 0.00457702 0)
(1.00067 0.000551931 0)
(0.999934 -7.17304e-05 0)
(1.00085 -0.000432293 0)
(0.998688 0.000169285 0)
(0.999177 0.00103122 0)
(0.999473 0.00188712 0)
(1.00122 0.00167715 0)
(1.00079 0.000983871 0)
(1.00093 0.000632184 0)
(1.00091 -3.79071e-05 0)
(1.00072 -0.000742097 0)
(0.999141 -0.000378882 0)
(0.99821 0.000447189 0)
(0.99808 0.00107958 0)
(0.998463 0.00142156 0)
(0.99847 0.00220194 0)
(0.99861 0.00300045 0)
(0.999046 0.00370251 0)
(0.999627 0.0040471 0)
(0.999992 0.00438226 0)
(1.00065 0.000466967 0)
(0.999863 4.5731e-05 0)
(1.00087 -0.000356545 0)
(0.998845 0.000190407 0)
(0.999362 0.00104894 0)
(0.999579 0.00178188 0)
(1.00117 0.00163672 0)
(1.00076 0.00107362 0)
(1.00089 0.000745317 0)
(1.00085 0.000198379 0)
(1.0008 -0.000404167 0)
(0.999482 -0.000114033 0)
(0.998619 0.000608935 0)
(0.998431 0.00125475 0)
(0.998841 0.00154986 0)
(0.998975 0.00217267 0)
(0.999136 0.00283986 0)
(0.999493 0.00352133 0)
(0.999995 0.00383799 0)
(1.0003 0.00419423 0)
(1.00064 0.000412154 0)
(0.999798 0.000109725 0)
(1.00089 -0.000294044 0)
(0.999002 0.000198059 0)
(0.999543 0.00104433 0)
(0.999682 0.00169449 0)
(1.00115 0.00161503 0)
(1.00073 0.00118226 0)
(1.00086 0.000870499 0)
(1.00081 0.000413533 0)
(1.00088 -0.000101718 0)
(0.999804 0.000135001 0)
(0.999025 0.000761467 0)
(0.998785 0.00140031 0)
(0.999188 0.00166199 0)
(0.999428 0.00216027 0)
(0.999644 0.00268648 0)
(0.999941 0.00334006 0)
(1.00037 0.00362398 0)
(1.00062 0.00397687 0)
(1.00063 0.000314105 0)
(0.999733 0.000226426 0)
(1.0009 -0.000172423 0)
(0.999155 0.000232552 0)
(0.999722 0.00103249 0)
(0.999792 0.00160191 0)
(1.00115 0.00157941 0)
(1.00073 0.00127169 0)
(1.00085 0.000989346 0)
(1.00079 0.000605729 0)
(1.00097 0.000152098 0)
(1.00011 0.000354442 0)
(0.99942 0.000892299 0)
(0.999139 0.00152263 0)
(0.999513 0.00176761 0)
(0.999829 0.00217762 0)
(1.00012 0.00255899 0)
(1.00038 0.00315176 0)
(1.00074 0.0034223 0)
(1.00095 0.00374272 0)
(1.00062 0.000290597 0)
(0.999693 0.00020318 0)
(1.0009 -0.000131867 0)
(0.999295 0.000300011 0)
(0.99989 0.00109043 0)
(0.999899 0.00158162 0)
(1.00117 0.00156841 0)
(1.00074 0.00136502 0)
(1.00085 0.00112447 0)
(1.00079 0.000792192 0)
(1.00106 0.000376667 0)
(1.0004 0.000543083 0)
(0.999817 0.000993553 0)
(0.999506 0.00161797 0)
(0.999832 0.00185217 0)
(1.00019 0.00220377 0)
(1.00055 0.00245837 0)
(1.00082 0.00296108 0)
(1.00111 0.00322775 0)
(1.0013 0.00350979 0)
(1.00061 0.000240097 0)
(0.999635 0.000235334 0)
(1.00093 -5.28637e-05 0)
(0.999468 0.000381409 0)
(1.00007 0.00113158 0)
(1.00001 0.00154292 0)
(1.00121 0.0015087 0)
(1.00077 0.00141254 0)
(1.00086 0.00124985 0)
(1.00079 0.00097108 0)
(1.00114 0.000582505 0)
(1.00067 0.000707898 0)
(1.0002 0.0010733 0)
(0.999878 0.00167938 0)
(1.00014 0.00191215 0)
(1.00051 0.00223177 0)
(1.00092 0.00239466 0)
(1.00124 0.0027882 0)
(1.00148 0.00303282 0)
(1.00163 0.00329882 0)
(1.00061 0.000177744 0)
(0.99961 0.000355823 0)
(1.00094 8.33569e-05 0)
(0.999608 0.0004299 0)
(1.00023 0.00111744 0)
(1.0001 0.00147332 0)
(1.00125 0.00142206 0)
(1.00084 0.00141816 0)
(1.0009 0.00136113 0)
(1.0008 0.00115899 0)
(1.00123 0.000775715 0)
(1.00092 0.000856628 0)
(1.00058 0.00113618 0)
(1.00026 0.00170619 0)
(1.00047 0.00194478 0)
(1.00082 0.0022459 0)
(1.00125 0.00235254 0)
(1.00162 0.00264292 0)
(1.00185 0.00282463 0)
(1.00195 0.00310181 0)
(1.0006 0.000173545 0)
(0.999569 0.00035904 0)
(1.00094 0.000172941 0)
(0.99975 0.000487338 0)
(1.00038 0.00114139 0)
(1.00019 0.0014796 0)
(1.00131 0.00138483 0)
(1.00093 0.00141443 0)
(1.00096 0.00144807 0)
(1.00082 0.00133638 0)
(1.00129 0.000968244 0)
(1.00115 0.000996903 0)
(1.00093 0.00118683 0)
(1.00064 0.00170861 0)
(1.00079 0.00194718 0)
(1.00111 0.00223743 0)
(1.00155 0.00231307 0)
(1.00194 0.00254332 0)
(1.00221 0.0026252 0)
(1.00226 0.00290995 0)
(1.00059 0.000133142 0)
(0.999552 0.000430506 0)
(1.00094 0.000293299 0)
(0.999877 0.000549478 0)
(1.00053 0.00113732 0)
(1.00026 0.00148365 0)
(1.00135 0.00135282 0)
(1.00104 0.00138102 0)
(1.00106 0.00148526 0)
(1.00087 0.00148498 0)
(1.00135 0.00115315 0)
(1.00134 0.00113393 0)
(1.00126 0.00123186 0)
(1.00102 0.00168823 0)
(1.00113 0.00191538 0)
(1.00141 0.00220716 0)
(1.00183 0.00224971 0)
(1.00222 0.00246467 0)
(1.00253 0.0024558 0)
(1.00257 0.00270626 0)
(1.00059 0.000113247 0)
(0.999529 0.000469587 0)
(1.00093 0.000395764 0)
(0.999986 0.000609507 0)
(1.00067 0.00112219 0)
(1.00033 0.00149706 0)
(1.00138 0.00136414 0)
(1.00115 0.00135686 0)
(1.00119 0.00148751 0)
(1.00093 0.00160112 0)
(1.0014 0.00132311 0)
(1.0015 0.00127075 0)
(1.00155 0.00128125 0)
(1.00137 0.00166403 0)
(1.00146 0.00185668 0)