/*--------------------------------*- C++ -*----------------------------------*\
| =========                 |                                                 |
| \\      /  F ield         | OpenFOAM: The Open Source CFD Toolbox           |
|  \\    /   O peration     | Version:  v1906                                 |
|   \\  /    A nd           | Web:      www.OpenFOAM.com                      |
|    \\/     M anipulation  |                                                 |
\*---------------------------------------------------------------------------*/
FoamFile
{
    version     2.0;
    format      ascii;
    class       surfaceScalarField;
    location    "6.5";
    object      phi;
}
// * * * * * * * * * * * * * * * * * * * * * * * * * * * * * * * * * * * * * //

dimensions      [0 3 -1 0 0 0 0];
oriented        oriented;


internalField   nonuniform List<scalar> 
19000
(
1.20862e-06
1.81961e-06
1.14324e-06
-1.70354e-06
1.15001e-06
6.81505e-07
1.1869e-06
5.99113e-07
1.13676e-06
-5.37078e-08
1.08318e-06
-1.365e-06
1.20082e-06
1.6101e-06
1.10992e-06
-6.21272e-07
1.15617e-06
5.59811e-07
1.12124e-06
8.18377e-07
1.10443e-06
2.39437e-07
1.14841e-06
9.67541e-07
1.11536e-06
4.81945e-07
1.13119e-06
6.85974e-07
1.12826e-06
2.48048e-07
1.1281e-06
1.16852e-07
1.13743e-06
-3.77268e-08
1.11151e-06
-3.59962e-07
1.1314e-06
-8.14405e-08
-4.89303e-07
1.05957e-06
1.26142e-06
1.78245e-06
1.19618e-06
-1.6383e-06
1.19878e-06
6.789e-07
1.24208e-06
5.55815e-07
1.19073e-06
-2.35398e-09
1.1363e-06
-1.31057e-06
1.25307e-06
1.49333e-06
1.15877e-06
-5.26974e-07
1.20243e-06
5.16156e-07
1.18722e-06
8.33584e-07
1.15476e-06
2.71897e-07
1.21799e-06
9.04311e-07
1.17388e-06
5.26059e-07
1.19799e-06
6.61859e-07
1.18113e-06
2.64912e-07
1.19693e-06
1.01044e-07
1.18591e-06
-2.66986e-08
1.18357e-06
-3.57621e-07
1.17511e-06
-7.29802e-08
-4.6002e-07
1.14582e-06
1.31694e-06
1.7483e-06
1.25291e-06
-1.57427e-06
1.24965e-06
6.82163e-07
1.29628e-06
5.09178e-07
1.24998e-06
4.39522e-08
1.19237e-06
-1.25296e-06
1.30468e-06
1.38102e-06
1.2171e-06
-4.39399e-07
1.24923e-06
4.84029e-07
1.25813e-06
8.24685e-07
1.21021e-06
3.19813e-07
1.27843e-06
8.3609e-07
1.23645e-06
5.68044e-07
1.25121e-06
6.471e-07
1.23841e-06
2.77704e-07
1.24892e-06
9.05341e-08
1.24444e-06
-2.22137e-08
1.23953e-06
-3.52714e-07
1.24099e-06
-7.44413e-08
-4.32125e-07
1.2131e-06
1.37448e-06
1.71792e-06
1.31523e-06
-1.51502e-06
1.30314e-06
6.9426e-07
1.35172e-06
4.60592e-07
1.31464e-06
8.10364e-08
1.25499e-06
-1.19331e-06
1.35652e-06
1.27949e-06
1.28699e-06
-3.69874e-07
1.29772e-06
4.73306e-07
1.32932e-06
7.93083e-07
1.27068e-06
3.78449e-07
1.32019e-06
7.86587e-07
1.29667e-06
5.91559e-07
1.3012e-06
6.42569e-07
1.296e-06
2.82906e-07
1.30526e-06
8.12774e-08
1.3059e-06
-2.28546e-08
1.30063e-06
-3.47444e-07
1.30318e-06
-7.69952e-08
-4.03043e-07
1.2741e-06
1.43466e-06
1.69162e-06
1.38287e-06
-1.46323e-06
1.36195e-06
7.15181e-07
1.40958e-06
4.12968e-07
1.38461e-06
1.06e-07
1.32486e-06
-1.13356e-06
1.40978e-06
1.19457e-06
1.36519e-06
-3.25284e-07
1.35453e-06
4.83962e-07
1.39562e-06
7.52e-07
1.33935e-06
4.34712e-07
1.36022e-06
7.65717e-07
1.35477e-06
5.97013e-07
1.35966e-06
6.3768e-07
1.35986e-06
2.82702e-07
1.37077e-06
7.03669e-08
1.37428e-06
-2.63572e-08
1.36852e-06
-3.41686e-07
1.37096e-06
-7.94387e-08
-3.72677e-07
1.3406e-06
1.49821e-06
1.66908e-06
1.45481e-06
-1.41983e-06
1.42822e-06
7.41771e-07
1.4712e-06
3.69988e-07
1.4588e-06
1.18398e-07
1.40101e-06
-1.07577e-06
1.4664e-06
1.12918e-06
1.44649e-06
-3.05375e-07
1.42321e-06
5.07238e-07
1.46022e-06
7.14999e-07
1.41571e-06
4.79219e-07
1.41436e-06
7.6707e-07
1.41783e-06
5.93536e-07
1.42857e-06
6.26944e-07
1.43332e-06
2.77954e-07
1.44487e-06
5.88151e-08
1.44885e-06
-3.03346e-08
1.4415e-06
-3.34338e-07
1.44354e-06
-8.14785e-08
-3.40749e-07
1.41161e-06
1.56579e-06
1.6495e-06
1.52995e-06
-1.38399e-06
1.50264e-06
7.69089e-07
1.53801e-06
3.34617e-07
1.53576e-06
1.20643e-07
1.48157e-06
-1.02158e-06
1.52867e-06
1.08209e-06
1.52763e-06
-3.04329e-07
1.50166e-06
5.33205e-07
1.52797e-06
6.88684e-07
1.49667e-06
5.10519e-07
1.48509e-06
7.78655e-07
1.49105e-06
5.87577e-07
1.50676e-06
6.11234e-07
1.51449e-06
2.70218e-07
1.5256e-06
4.77089e-08
1.52826e-06
-3.29973e-08
1.51827e-06
-3.24342e-07
1.51981e-06
-8.30271e-08
-3.07546e-07
1.48661e-06
1.63779e-06
1.63185e-06
1.60765e-06
-1.35385e-06
1.58428e-06
7.92463e-07
1.61085e-06
3.08044e-07
1.61442e-06
1.17075e-07
1.56502e-06
-9.72179e-07
1.59834e-06
1.04876e-06
1.60784e-06
-3.13828e-07
1.58473e-06
5.56308e-07
1.60057e-06
6.72848e-07
1.57993e-06
5.31161e-07
1.56734e-06
7.91245e-07
1.57417e-06
5.80746e-07
1.5925e-06
5.92902e-07
1.60101e-06
2.61711e-07
1.6108e-06
3.7913e-08
1.61175e-06
-3.39435e-08
1.59864e-06
-3.11232e-07
1.59956e-06
-8.39458e-08
-2.73782e-07
1.5658e-06
1.7143e-06
1.61512e-06
1.68781e-06
-1.32737e-06
1.67137e-06
8.08909e-07
1.68977e-06
2.89643e-07
1.69455e-06
1.1229e-07
1.65075e-06
-9.28381e-07
1.67582e-06
1.0237e-06
1.6879e-06
-3.25913e-07
1.66884e-06
5.75374e-07
1.67753e-06
6.64156e-07
1.66512e-06
5.43575e-07
1.65617e-06
8.00186e-07
1.66442e-06
5.72504e-07
1.68384e-06
5.73482e-07
1.69152e-06
2.54023e-07
1.69922e-06
3.0219e-08
1.69866e-06
-3.33804e-08
1.68266e-06
-2.95235e-07
1.68283e-06
-8.41217e-08
-2.40233e-07
1.64929e-06
1.79527e-06
1.59857e-06
1.77071e-06
-1.30281e-06
1.76226e-06
8.17357e-07
1.77418e-06
2.77724e-07
1.77674e-06
1.09728e-07
1.73888e-06
-8.90516e-07
1.76023e-06
1.00235e-06
1.7693e-06
-3.34985e-07
1.75374e-06
5.90935e-07
1.75849e-06
6.59403e-07
1.75302e-06
5.49045e-07
1.7493e-06
8.03912e-07
1.75948e-06
5.62319e-07
1.7791e-06
5.53861e-07
1.78521e-06
2.47915e-07
1.79027e-06
2.5161e-08
1.7884e-06
-3.15138e-08
1.77011e-06
-2.76941e-07
1.76957e-06
-8.35827e-08
-2.07624e-07
1.73696e-06
1.88064e-06
1.58168e-06
1.85673e-06
-1.27889e-06
1.85597e-06
8.18114e-07
1.86331e-06
2.7039e-07
1.86197e-06
1.11063e-07
1.82963e-06
-8.58173e-07
1.8501e-06
9.81882e-07
1.85359e-06
-3.38478e-07
1.84119e-06
6.03334e-07
1.84387e-06
6.56723e-07
1.8446e-06
5.48312e-07
1.84612e-06
8.02392e-07
1.85815e-06
5.50296e-07
1.87725e-06
5.34764e-07
1.88145e-06
2.43712e-07
1.88363e-06
2.29782e-08
1.88057e-06
-2.84532e-08
1.86066e-06
-2.57035e-07
1.85949e-06
-8.24046e-08
-1.7664e-07
1.8285e-06
1.97039e-06
1.56413e-06
1.94626e-06
-1.25477e-06
1.95218e-06
8.12196e-07
1.95649e-06
2.66074e-07
1.95123e-06
1.1633e-07
1.9232e-06
-8.30144e-07
1.94421e-06
9.60871e-07
1.94197e-06
-3.36241e-07
1.93287e-06
6.12439e-07
1.9343e-06
6.55287e-07
1.94049e-06
5.42127e-07
1.9465e-06
7.96377e-07
1.95978e-06
5.37021e-07
1.97768e-06
5.16863e-07
1.97987e-06
2.41522e-07
1.97921e-06
2.36312e-08
1.97501e-06
-2.42511e-08
1.95416e-06
-2.36184e-07
1.95234e-06
-8.05875e-08
-1.47877e-07
1.92358e-06
2.06456e-06
1.54576e-06
2.03969e-06
-1.2299e-06
2.05101e-06
8.00876e-07
2.05339e-06
2.63692e-07
2.04523e-06
1.24485e-07
2.01982e-06
-8.04731e-07
2.04194e-06
9.38753e-07
2.03498e-06
-3.29283e-07
2.02936e-06
6.18059e-07
2.03001e-06
6.54634e-07
2.04076e-06
5.31381e-07
2.05007e-06
7.87067e-07
2.06387e-06
5.23224e-07
2.08011e-06
5.00616e-07
2.08039e-06
2.4125e-07
2.07726e-06
2.67571e-08
2.07194e-06
-1.89331e-08
2.05074e-06
-2.14983e-07
2.04818e-06
-7.8029e-08
-1.21714e-07
2.02202e-06
2.16326e-06
1.5265e-06
2.13742e-06
-1.20406e-06
2.15284e-06
7.85456e-07
2.15394e-06
2.62593e-07
2.14437e-06
1.34057e-07
2.11991e-06
-7.80268e-07
2.14324e-06
9.15423e-07
2.13261e-06
-3.1866e-07
2.13052e-06
6.20155e-07
2.13077e-06
6.54385e-07
2.14509e-06
5.17054e-07
2.15632e-06
7.75842e-07
2.17002e-06
5.0952e-07
2.18457e-06
4.86073e-07
2.18324e-06
2.4258e-07
2.17834e-06
3.16588e-08
2.17194e-06
-1.25331e-08
2.15087e-06
-1.93913e-07
2.14747e-06
-7.46313e-08
-9.82038e-08
2.12396e-06
2.26664e-06
1.50635e-06
2.23989e-06
-1.17731e-06
2.25817e-06
7.67175e-07
2.25832e-06
2.62444e-07
2.24872e-06
1.43655e-07
2.22402e-06
-7.5557e-07
2.24838e-06
8.91061e-07
2.23467e-06
-3.04941e-07
2.23617e-06
6.18648e-07
2.23624e-06
6.54313e-07
2.25309e-06
5.00205e-07
2.26496e-06
7.63971e-07
2.27814e-06
4.96347e-07
2.29137e-06
4.7284e-07
2.28889e-06
2.45059e-07
2.28312e-06
3.74328e-08
2.27573e-06
-5.15086e-09
2.25513e-06
-1.7331e-07
2.25095e-06
-7.0453e-08
-7.70697e-08
2.22982e-06
2.37491e-06
1.48531e-06
2.34742e-06
-1.14982e-06
2.36745e-06
7.47143e-07
2.36678e-06
2.63119e-07
2.35825e-06
1.52188e-07
2.33269e-06
-7.30012e-07
2.35774e-06
8.66011e-07
2.34108e-06
-2.88277e-07
2.34649e-06
6.13235e-07
2.34636e-06
6.54447e-07
2.36462e-06
4.81937e-07
2.37623e-06
7.52363e-07
2.38852e-06
4.84054e-07
2.40111e-06
4.60255e-07
2.39792e-06
2.48248e-07
2.39215e-06
4.32047e-08
2.38398e-06
3.01417e-09
2.36403e-06
-1.53358e-07
2.35933e-06
-6.57508e-08
-5.79269e-08
2.34019e-06
2.48834e-06
1.46337e-06
2.46022e-06
-1.1217e-06
2.4811e-06
7.26263e-07
2.47962e-06
2.64604e-07
2.47295e-06
1.58853e-07
2.44619e-06
-7.03246e-07
2.47158e-06
8.40613e-07
2.45207e-06
-2.68761e-07
2.46173e-06
6.03574e-07
2.4612e-06
6.54978e-07
2.47987e-06
4.63263e-07
2.49076e-06
7.41471e-07
2.50186e-06
4.72958e-07
2.51446e-06
4.47654e-07
2.51086e-06
2.51844e-07
2.50577e-06
4.82968e-08
2.49716e-06
1.16302e-08
2.47783e-06
-1.34035e-07
2.473e-06
-6.09221e-08
-4.04753e-08
2.45555e-06
2.60722e-06
1.44045e-06
2.57837e-06
-1.09286e-06
2.5995e-06
7.05136e-07
2.59717e-06
2.66936e-07
2.59295e-06
1.63073e-07
2.56459e-06
-6.74886e-07
2.59016e-06
8.15041e-07
2.56808e-06
-2.46685e-07
2.58195e-06
5.89706e-07
2.58084e-06
6.56087e-07
2.59922e-06
4.4488e-07
2.60937e-06
7.3132e-07
2.61899e-06
4.6334e-07
2.63217e-06
4.34481e-07
2.62828e-06
2.55732e-07
2.62422e-06
5.23577e-08
2.61562e-06
2.0223e-08
2.59669e-06
-1.15098e-07
2.59215e-06
-5.63812e-08
-2.46366e-08
2.57631e-06
2.73184e-06
1.41644e-06
2.70197e-06
-1.06299e-06
2.72311e-06
6.83993e-07
2.71986e-06
2.70186e-07
2.71843e-06
1.64503e-07
2.68801e-06
-6.44468e-07
2.71383e-06
7.89228e-07
2.68966e-06
-2.22522e-07
2.70715e-06
5.72219e-07
2.70538e-06
6.57861e-07
2.72319e-06
4.2707e-07
2.7329e-06
7.21604e-07
2.74082e-06
4.55424e-07
2.75499e-06
4.20308e-07
2.75079e-06
2.59937e-07
2.74776e-06
5.53812e-08
2.73976e-06
2.82293e-08
2.72081e-06
-9.61559e-08
2.71682e-06
-5.23912e-08
-1.05664e-08
2.70275e-06
2.86247e-06
1.39123e-06
2.83123e-06
-1.03174e-06
2.85249e-06
6.62732e-07
2.84821e-06
2.74462e-07
2.84963e-06
1.63087e-07
2.8168e-06
-6.11635e-07
2.84309e-06
7.62935e-07
2.81732e-06
-1.96752e-07
2.83753e-06
5.52009e-07
2.8351e-06
6.60291e-07
2.85234e-06
4.09826e-07
2.86218e-06
7.11768e-07
2.86821e-06
4.49395e-07
2.88368e-06
4.04833e-07
2.87914e-06
2.64482e-07
2.87677e-06
5.77524e-08
2.86996e-06
3.50386e-08
2.85062e-06
-7.68223e-08
2.84711e-06
-4.88773e-08
1.39403e-09
2.83515e-06
2.9994e-06
1.36473e-06
2.96648e-06
-9.98824e-07
2.98818e-06
6.41038e-07
2.98273e-06
2.79909e-07
2.98679e-06
1.59024e-07
2.95145e-06
-5.76295e-07
2.97851e-06
7.3588e-07
2.95148e-06
-1.69723e-07
2.97358e-06
5.29905e-07
2.97059e-06
6.63285e-07
2.9873e-06
3.93119e-07
2.99793e-06
7.01129e-07
3.00195e-06
4.45381e-07
3.01882e-06
3.87967e-07
3.01406e-06
2.69232e-07
3.01163e-06
6.01915e-08
3.00657e-06
4.00935e-08
2.98668e-06
-5.6936e-08
2.9831e-06
-4.52951e-08
1.07674e-08
2.97373e-06
3.1429e-06
1.33684e-06
3.10812e-06
-9.6405e-07
3.13062e-06
6.18538e-07
3.12384e-06
2.86691e-07
3.13021e-06
1.52655e-07
3.09253e-06
-5.38612e-07
3.12055e-06
7.07853e-07
3.09249e-06
-1.4166e-07
3.1159e-06
5.06494e-07
3.11255e-06
6.66641e-07
3.12858e-06
3.77089e-07
3.14072e-06
6.88984e-07
3.14264e-06
4.4346e-07
3.16077e-06
3.6984e-07
3.15612e-06
2.73881e-07
3.15275e-06
6.35605e-08
3.14981e-06
4.3034e-08
3.1296e-06
-3.6725e-08
3.12507e-06
-4.07626e-08
1.71805e-08
3.11865e-06
3.29325e-06
1.3075e-06
3.25652e-06
-9.27324e-07
3.28016e-06
5.94904e-07
3.27189e-06
2.94957e-07
3.28021e-06
1.44336e-07
3.24049e-06
-4.98892e-07
3.26957e-06
6.78777e-07
3.24066e-06
-1.12758e-07
3.26497e-06
4.82186e-07
3.26158e-06
6.70034e-07
3.2766e-06
3.62067e-07
3.29085e-06
6.74729e-07
3.2907e-06
4.4361e-07
3.30975e-06
3.5079e-07
3.30568e-06
2.77954e-07
3.30058e-06
6.86582e-08
3.29981e-06
4.38119e-08
3.27988e-06
-1.68023e-08
3.27347e-06
-3.4351e-08
2.06383e-08
3.27001e-06
3.45077e-06
1.27666e-06
3.41204e-06
-8.88593e-07
3.43705e-06
5.69893e-07
3.42718e-06
3.04827e-07
3.43716e-06
1.34364e-07
3.39574e-06
-4.5748e-07
3.42579e-06
6.48732e-07
3.3963e-06
-8.32652e-08
3.42112e-06
4.57359e-07
3.41813e-06
6.73028e-07
3.4317e-06
3.48501e-07
3.4485e-06
6.57924e-07
3.44645e-06
4.45662e-07
3.46589e-06
3.31345e-07
3.46298e-06
2.80867e-07
3.45562e-06
7.60175e-08
3.45667e-06
4.27671e-08
3.43792e-06
1.94288e-09
3.42892e-06
-2.53452e-08
2.16342e-08
3.42792e-06
3.6158e-06
1.24427e-06
3.57503e-06
-8.47822e-07
3.60158e-06
5.43335e-07
3.59004e-06
3.16373e-07
3.60143e-06
1.22973e-07
3.55868e-06
-4.14732e-07
3.58945e-06
6.17961e-07
3.55973e-06
-5.35403e-08
3.58462e-06
4.32462e-07
3.58253e-06
6.75122e-07
3.59418e-06
3.36848e-07
3.61376e-06
6.38343e-07
3.61016e-06
4.49265e-07
3.62935e-06
3.12154e-07
3.62821e-06
2.8201e-07
3.61838e-06
8.58447e-08
3.62053e-06
4.06225e-08
3.60394e-06
1.85291e-08
3.59217e-06
-1.3573e-08
2.12822e-08
3.59252e-06
3.78865e-06
1.21032e-06
3.74582e-06
-8.04988e-07
3.77404e-06
5.15114e-07
3.7608e-06
3.29618e-07
3.77341e-06
1.10361e-07
3.7297e-06
-3.71028e-07
3.7608e-06
5.86859e-07
3.73132e-06
-2.40525e-08
3.75574e-06
4.08036e-07
3.75506e-06
6.75803e-07
3.76443e-06
3.27478e-07
3.78678e-06
6.15996e-07
3.78212e-06
4.53924e-07
3.80033e-06
2.93941e-07
3.80154e-06
2.80807e-07
3.78938e-06
9.7998e-08
3.79161e-06
3.83974e-08
3.77808e-06
3.20528e-08
3.76394e-06
5.67421e-10
2.1092e-08
3.76413e-06
3.9697e-06
1.17482e-06
3.92479e-06
-7.6008e-07
3.95475e-06
4.85151e-07
3.93985e-06
3.44518e-07
3.95347e-06
9.67426e-08
3.90925e-06
-3.26806e-07
3.94013e-06
5.55975e-07
3.91146e-06
4.62165e-09
3.93481e-06
3.84681e-07
3.93602e-06
6.74598e-07
3.94288e-06
3.20615e-07
3.96775e-06
5.91126e-07
3.96265e-06
4.59022e-07
3.97915e-06
2.77443e-07
3.9831e-06
2.76854e-07
3.96907e-06
1.12031e-07
3.97033e-06
3.71336e-08
3.96042e-06
4.19648e-08
3.94478e-06
1.62042e-08
2.2519e-08
3.94336e-06
4.1593e-06
1.13776e-06
4.11233e-06
-7.13106e-07
4.14407e-06
4.53412e-07
4.12763e-06
3.60954e-07
4.14199e-06
8.23891e-08
4.09776e-06
-2.82581e-07
4.12775e-06
5.25985e-07
4.10052e-06
3.18514e-08
4.12224e-06
3.62962e-07
4.12568e-06
6.71154e-07
4.13e-06
3.16297e-07
4.15695e-06
5.64175e-07
4.15207e-06
4.63906e-07
4.1662e-06
2.6331e-07
4.17305e-06
2.70004e-07
4.15784e-06
1.2724e-07
4.15721e-06
3.77678e-08
4.15094e-06
4.82337e-08
4.13514e-06
3.20107e-08
2.6672e-08
4.13098e-06
4.35787e-06
1.0992e-06
4.30886e-06
-6.64101e-07
4.34235e-06
4.19918e-07
4.32459e-06
3.78718e-07
4.33933e-06
6.76505e-08
4.2957e-06
-2.38954e-07
4.32402e-06
4.97668e-07
4.29888e-06
5.69891e-08
4.31852e-06
3.43321e-07
4.32439e-06
6.65282e-07
4.32632e-06
3.14368e-07
4.35478e-06
5.3572e-07
4.35073e-06
4.67954e-07
4.36198e-06
2.52056e-07
4.3716e-06
2.60387e-07
4.35607e-06
1.42768e-07
4.35281e-06
4.10309e-08
4.3498e-06
5.1238e-08
4.33517e-06
4.66493e-08
3.39465e-08
4.32789e-06
4.56581e-06
1.05917e-06
4.51484e-06
-6.1313e-07
4.54999e-06
3.84766e-07
4.5312e-06
3.97509e-07
4.54588e-06
5.29701e-08
4.50353e-06
-1.96603e-07
4.52939e-06
4.71808e-07
4.50689e-06
7.9487e-08
4.5242e-06
3.26008e-07
4.53249e-06
6.57e-07
4.53237e-06
3.14488e-07
4.56167e-06
5.06421e-07
4.559e-06
4.70622e-07
4.56703e-06
2.44022e-07
4.57902e-06
2.484e-07
4.5641e-06
1.57687e-07
4.55772e-06
4.74092e-08
4.55721e-06
5.17509e-08
4.54498e-06
5.88803e-08
4.39346e-08
4.53499e-06
4.78358e-06
1.0177e-06
4.73075e-06
-5.60299e-07
4.76737e-06
3.4814e-07
4.74794e-06
4.16945e-07
4.76202e-06
3.88875e-08
4.7217e-06
-1.56286e-07
4.7444e-06
4.49114e-07
4.72489e-06
9.89925e-08
4.73986e-06
3.11037e-07
4.75035e-06
6.4651e-07
4.74863e-06
3.1621e-07
4.77812e-06
4.76929e-07
4.77726e-06
4.71491e-07
4.78195e-06
2.39332e-07
4.79572e-06
2.3463e-07
4.78225e-06
1.71153e-07
4.77271e-06
5.69443e-08
4.77353e-06
5.09337e-08
4.76464e-06
6.77744e-08
5.55885e-08
4.75298e-06
5.01164e-06
9.74863e-07
4.9571e-06
-5.05766e-07
4.99493e-06
3.10314e-07
4.97531e-06
4.36568e-07
4.98818e-06
2.60166e-08
4.9507e-06
-1.18811e-07
4.96968e-06
4.30139e-07
4.95323e-06
1.15444e-07
4.9661e-06
2.98165e-07
4.97844e-06
6.34169e-07
4.97558e-06
3.19071e-07
5.00471e-06
4.478e-07
5.00593e-06
4.70272e-07
5.00735e-06
2.3791e-07
5.02214e-06
2.19839e-07
5.01096e-06
1.82333e-07
4.99863e-06
6.92777e-08
4.99928e-06
5.02764e-08
4.99418e-06
7.28753e-08
6.73651e-08
4.98241e-06
5.25046e-06
9.30717e-07
5.19444e-06
-4.49741e-07
5.23311e-06
2.71646e-07
5.21383e-06
4.55849e-07
5.22479e-06
1.50499e-08
5.19102e-06
-8.50358e-08
5.20588e-06
4.15271e-07
5.19225e-06
1.29076e-07
5.20349e-06
2.86924e-07
5.21723e-06
6.20434e-07
5.21364e-06
3.22657e-07
5.24201e-06
4.19427e-07
5.24546e-06
4.66827e-07
5.24383e-06
2.39534e-07
5.25887e-06
2.04808e-07
5.25062e-06
1.9058e-07
5.23615e-06
8.3749e-08
5.23541e-06
5.10171e-08
5.23367e-06
7.46114e-08
7.75961e-08
5.22344e-06
5.50055e-06
8.85355e-07
5.44331e-06
-3.92495e-07
5.48238e-06
2.32571e-07
5.46404e-06
4.74191e-07
5.47235e-06
6.73957e-09
5.44307e-06
-5.5755e-08
5.4537e-06
4.04636e-07
5.44238e-06
1.40396e-07
5.45261e-06
2.76701e-07
5.46728e-06
6.05756e-07
5.46327e-06
3.26667e-07
5.49059e-06
3.92111e-07
5.49643e-06
4.60989e-07
5.49195e-06
2.4401e-07
5.50651e-06
1.90248e-07
5.50168e-06
1.95412e-07
5.48585e-06
9.95762e-08
5.4829e-06
5.39693e-08
5.48345e-06
7.40643e-08
8.50403e-08
5.476e-06
5.76242e-06
8.38896e-07
5.70428e-06
-3.34356e-07
5.74326e-06
1.93589e-07
5.72651e-06
4.90938e-07
5.73138e-06
1.8783e-09
5.70717e-06
-3.15449e-08
5.71382e-06
3.97985e-07
5.70408e-06
1.50134e-07
5.71396e-06
2.66817e-07
5.72926e-06
5.90455e-07
5.72491e-06
3.31016e-07
5.75099e-06
3.66031e-07
5.75935e-06
4.52635e-07
5.75237e-06
2.50991e-07
5.76564e-06
1.7698e-07
5.76454e-06
1.96509e-07
5.74821e-06
1.15907e-07
5.74267e-06
5.95044e-08
5.74428e-06
7.24577e-08
8.93297e-08
5.73999e-06
6.0366e-06
7.91491e-07
5.97796e-06
-2.75718e-07
6.01627e-06
1.5528e-07
6.00186e-06
5.05341e-07
6.00245e-06
1.2947e-09
5.98366e-06
-1.27614e-08
5.98693e-06
3.94717e-07
5.97787e-06
1.59197e-07
5.98808e-06
2.56609e-07
6.00384e-06
5.74696e-07
5.99908e-06
3.35771e-07
6.02376e-06
3.41355e-07
6.03477e-06
4.41618e-07
6.0258e-06
2.59969e-07
6.03682e-06
1.65957e-07
6.03956e-06
1.93766e-07
6.02368e-06
1.31792e-07
6.01559e-06
6.75936e-08
6.01706e-06
7.09855e-08
9.08708e-08
6.01552e-06
6.32365e-06
7.43327e-07
6.26497e-06
-2.17032e-07
6.30196e-06
1.18286e-07
6.29073e-06
5.16576e-07
6.28629e-06
5.73204e-09
6.27295e-06
5.80597e-10
6.27375e-06
3.93917e-07
6.26439e-06
1.68552e-07
6.27541e-06
2.45592e-07
6.29169e-06
5.58412e-07
6.28635e-06
3.41112e-07
6.30945e-06
3.18261e-07
6.32321e-06
4.27855e-07
6.31294e-06
2.7024e-07
6.32072e-06
1.58178e-07
6.32709e-06
1.87388e-07
6.3128e-06
1.46087e-07
6.30227e-06
7.81165e-08
6.30284e-06
7.04224e-08
9.05142e-08
6.30319e-06
6.62417e-06
6.94628e-07
6.56595e-06
-1.58816e-07
6.60094e-06
8.32962e-08
6.59375e-06
5.23772e-07
6.58375e-06
1.57292e-08
6.57547e-06
8.86385e-09
6.57493e-06
3.94456e-07
6.56442e-06
1.7906e-07
6.57637e-06
2.3364e-07
6.59351e-06
5.41275e-07
6.58746e-06
3.47161e-07
6.60856e-06
2.97164e-07
6.62519e-06
4.11216e-07
6.61441e-06
2.81022e-07
6.61819e-06
1.54396e-07
6.62756e-06
1.7802e-07
6.616e-06
1.57653e-07
6.60342e-06
9.06894e-08
6.60253e-06
7.13121e-08
8.90805e-08
6.60397e-06
6.93877e-06
6.45653e-07
6.88159e-06
-1.01638e-07
6.91386e-06
5.102e-08
6.91157e-06
5.26066e-07
6.89575e-06
3.15499e-08
6.89174e-06
1.2868e-08
6.89122e-06
3.94978e-07
6.87878e-06
1.91507e-07
6.89147e-06
2.2095e-07
6.9099e-06
5.22837e-07
6.90314e-06
3.53924e-07
6.92172e-06
2.78585e-07
6.94111e-06
3.91823e-07
6.93091e-06
2.91229e-07
6.93026e-06
1.55038e-07
6.94134e-06
1.66948e-07
6.93364e-06
1.65351e-07
6.91977e-06
1.04559e-07
6.91696e-06
7.4121e-08
8.71672e-08
6.91887e-06
7.26809e-06
5.96695e-07
7.21257e-06
-4.61112e-08
7.24141e-06
2.21743e-08
7.24474e-06
5.22742e-07
7.22325e-06
5.30355e-08
7.22238e-06
1.37399e-08
7.22332e-06
3.94034e-07
7.20837e-06
2.06466e-07
7.22122e-06
2.08092e-07
7.24147e-06
5.02594e-07
7.23419e-06
3.61203e-07
7.24963e-06
2.63144e-07
7.27147e-06
3.69987e-07
7.2629e-06
2.9979e-07
7.25798e-06
1.59965e-07
7.26905e-06
1.55873e-07
7.26602e-06
1.68383e-07
7.25198e-06
1.186e-07
7.24684e-06
7.92639e-08
8.52263e-08
7.24878e-06
7.61284e-06
5.48082e-07
7.5596e-06
7.12736e-09
7.58431e-06
-2.53598e-09
7.59365e-06
5.13398e-07
7.56718e-06
7.95081e-08
7.56806e-06
1.28665e-08
7.57178e-06
3.90307e-07
7.55419e-06
2.2406e-07
7.56627e-06
1.96011e-07
7.5887e-06
4.80161e-07
7.58142e-06
3.68485e-07
7.5931e-06
2.51461e-07
7.61672e-06
3.46367e-07
7.61084e-06
3.05667e-07
7.60233e-06
1.68482e-07
7.61171e-06
1.46493e-07
7.61321e-06
1.66884e-07
7.60067e-06
1.31138e-07
7.59323e-06
8.67032e-08
8.40243e-08
7.59443e-06
7.97372e-06
5.00176e-07
7.9234e-06
5.74427e-08
7.94331e-06
-2.24428e-08
7.95872e-06
4.97991e-07
7.92844e-06
1.09786e-07
7.92946e-06
1.18422e-08
7.93701e-06
3.82755e-07
7.91724e-06
2.43831e-07
7.9273e-06
1.85954e-07
7.95207e-06
4.55386e-07
7.94558e-06
3.74977e-07
7.95298e-06
2.44062e-07
7.97757e-06
3.2178e-07
7.97512e-06
3.08117e-07
7.9642e-06
1.79403e-07
7.97051e-06
1.40185e-07
7.97573e-06
1.61664e-07
7.96606e-06
1.40802e-07
7.95702e-06
9.57498e-08
8.43885e-08
7.95665e-06
8.35148e-06
4.53376e-07
8.30472e-06
1.04203e-07
8.31919e-06
-3.69101e-08
8.34046e-06
4.7672e-07
8.30789e-06
1.42359e-07
8.30739e-06
1.23386e-08
8.3194e-06
3.70749e-07
8.29845e-06
2.64784e-07
8.30516e-06
1.79236e-07
8.33206e-06
4.28493e-07
8.32729e-06
3.79745e-07
8.33019e-06
2.41164e-07
8.35465e-06
2.97316e-07
8.35619e-06
3.06578e-07
8.34432e-06
1.91271e-07
8.34686e-06
1.37648e-07
8.35435e-06
1.5417e-07
8.3484e-06
1.46753e-07
8.3389e-06
1.05249e-07
8.66835e-08
8.33661e-06
8.74693e-06
4.0811e-07
8.70441e-06
1.46719e-07
8.71276e-06
-4.5264e-08
8.73956e-06
4.49921e-07
8.70636e-06
1.75566e-07
8.70274e-06
1.59523e-08
8.71929e-06
3.54207e-07
8.69862e-06
2.8545e-07
8.70082e-06
1.77033e-07
8.72906e-06
4.00256e-07
8.72699e-06
3.81815e-07
8.72563e-06
2.42524e-07
8.74866e-06
2.74285e-07
8.75457e-06
3.00669e-07
8.74321e-06
2.02627e-07
8.74213e-06
1.38736e-07
8.75017e-06
1.46124e-07
8.74801e-06
1.48911e-07
8.73939e-06
1.13877e-07
9.0695e-08
8.73537e-06
9.1609e-06
3.64825e-07
9.12339e-06
1.84235e-07
9.12505e-06
-4.69203e-08
9.15679e-06
4.1818e-07
9.12468e-06
2.07674e-07
9.11645e-06
2.41831e-08
9.13707e-06
3.33584e-07
9.11832e-06
3.04201e-07
9.11537e-06
1.7998e-07
9.14365e-06
3.71974e-07
9.14515e-06
3.80314e-07
9.14035e-06
2.47326e-07
9.16061e-06
2.54024e-07
9.17087e-06
2.90415e-07
9.16151e-06
2.11981e-07
9.15742e-06
1.42831e-07
9.16452e-06
1.39024e-07
9.16567e-06
1.4776e-07
9.15881e-06
1.20735e-07
9.56369e-08
9.15387e-06
9.59432e-06
3.23964e-07
9.56257e-06
2.15985e-07
9.55729e-06
-4.16365e-08
9.59296e-06
3.82502e-07
9.56379e-06
2.36849e-07
9.54955e-06
3.84204e-08
9.57304e-06
3.10097e-07
9.55802e-06
3.19216e-07
9.54998e-06
1.88027e-07
9.57689e-06
3.45064e-07
9.58265e-06
3.74556e-07
9.57608e-06
2.53887e-07
9.59229e-06
2.37814e-07
9.60595e-06
2.76757e-07
9.59982e-06
2.18112e-07
9.59371e-06
1.4894e-07
9.59883e-06
1.33905e-07
9.60233e-06
1.44262e-07
9.59776e-06
1.25306e-07
1.00694e-07
9.5927e-06
1.00482e-05
2.8593e-07
1.00228e-05
2.41356e-07
1.00109e-05
-2.97237e-08
1.00489e-05
3.44508e-07
1.00243e-05
2.614e-07
1.00034e-05
5.93045e-08
1.00277e-05
2.85801e-07
1.00181e-05
3.28822e-07
1.00065e-05
1.99644e-07
1.00304e-05
3.21169e-07
1.00405e-05
3.6448e-07
1.00339e-05
2.60431e-07
1.00457e-05
2.26053e-07
1.00611e-05
2.61327e-07
1.00587e-05
2.20524e-07
1.00518e-05
1.55825e-07
1.00545e-05
1.31265e-07
1.00593e-05
1.39465e-07
1.0057e-05
1.2757e-07
1.05255e-07
1.00525e-05
1.05235e-05
2.51065e-07
1.05049e-05
2.5995e-07
1.04873e-05
-1.21138e-08
1.05254e-05
3.06436e-07
1.0507e-05
2.79733e-07
1.04805e-05
8.58196e-08
1.05028e-05
2.63485e-07
1.04994e-05
3.3224e-07
1.04863e-05
2.12727e-07
1.05062e-05
3.01317e-07
1.05197e-05
3.50945e-07
1.05145e-05
2.65674e-07
1.05222e-05
2.18365e-07
1.05377e-05
2.4576e-07
1.05389e-05
2.19324e-07
1.05325e-05
1.62295e-07
1.05328e-05
1.30924e-07
1.05377e-05
1.3458e-07
1.05376e-05
1.27625e-07
1.09003e-07
1.05339e-05
1.10215e-05
2.19612e-07
1.10097e-05
2.71703e-07
1.09877e-05
9.88768e-09
1.10236e-05
2.70533e-07
1.10128e-05
2.90529e-07
1.09831e-05
1.15511e-07
1.10008e-05
2.45791e-07
1.10029e-05
3.30157e-07
1.09901e-05
2.25525e-07
1.10057e-05
2.85733e-07
1.10214e-05
3.35209e-07
1.10183e-05
2.68758e-07
1.10228e-05
2.13899e-07
1.10372e-05
2.3141e-07
1.10414e-05
2.15102e-07
1.10363e-05
1.6741e-07
1.10349e-05
1.32281e-07
1.1039e-05
1.30476e-07
1.10407e-05
1.2594e-07
1.11619e-07
1.10381e-05
1.15433e-05
1.91695e-07
1.15381e-05
2.76896e-07
1.15134e-05
3.45962e-08
1.15451e-05
2.38855e-07
1.15421e-05
2.935e-07
1.15117e-05
1.45932e-07
1.15239e-05
2.33605e-07
1.15298e-05
3.24219e-07
1.15185e-05
2.36841e-07
1.15301e-05
2.74129e-07
1.15468e-05
3.18507e-07
1.15462e-05
2.69295e-07
1.15485e-05
2.11613e-07
1.15609e-05
2.19037e-07
1.15672e-05
2.08833e-07
1.1564e-05
1.7055e-07
1.15618e-05
1.34554e-07
1.15647e-05
1.27579e-07
1.15673e-05
1.23262e-07
1.12843e-07
1.15661e-05
1.20902e-05
1.67311e-07
1.2091e-05
2.76121e-07
1.20654e-05
6.0214e-08
1.20913e-05
2.12935e-07
1.20954e-05
2.89428e-07
1.20667e-05
1.74621e-07
1.20734e-05
2.26912e-07
1.20814e-05
3.16194e-07
1.20723e-05
2.45935e-07
1.20805e-05
2.65939e-07
1.20971e-05
3.01885e-07
1.20991e-05
2.67332e-07
1.21002e-05
2.10468e-07
1.21103e-05
2.08975e-07
1.21177e-05
2.01399e-07
1.21166e-05
1.71646e-07
1.21142e-05
1.36922e-07
1.2116e-05
1.25864e-07
1.21189e-05
1.20329e-07
1.12648e-07
1.21191e-05
1.26636e-05
1.46327e-07
1.26695e-05
2.70201e-07
1.26446e-05
8.51288e-08
1.26642e-05
1.93324e-07
1.26735e-05
2.80079e-07
1.26488e-05
1.99412e-07
1.26505e-05
2.25123e-07
1.26592e-05
3.07557e-07
1.26524e-05
2.52666e-07
1.2658e-05
2.60358e-07
1.26737e-05
2.86169e-07
1.26779e-05
2.63127e-07
1.26788e-05
2.09631e-07
1.26866e-05
2.01124e-07
1.26945e-05
1.93557e-07
1.26952e-05
1.70957e-07
1.26933e-05
1.38777e-07
1.26942e-05
1.25023e-07
1.26969e-05
1.17596e-07
1.11432e-07
1.26981e-05
1.32648e-05
1.28486e-07
1.32747e-05
2.60245e-07
1.3252e-05
1.07834e-07
1.32656e-05
1.79798e-07
1.32779e-05
2.67687e-07
1.32582e-05
2.19108e-07
1.32566e-05
2.26738e-07
1.32645e-05
2.9965e-07
1.326e-05
2.5719e-07
1.32638e-05
2.56561e-07
1.32781e-05
2.71835e-07
1.32842e-05
2.5707e-07
1.32852e-05
2.0863e-07
1.32913e-05
1.95012e-07
1.32989e-05
1.8601e-07
1.3301e-05
1.68773e-07
1.33e-05
1.39792e-07
1.33004e-05
1.24669e-07
1.33028e-05
1.15233e-07
1.09623e-07
1.33046e-05
1.38952e-05
1.13448e-07
1.39081e-05
2.47356e-07
1.38888e-05
1.27151e-07
1.38967e-05
1.71843e-07
1.391e-05
2.54409e-07
1.38957e-05
2.33399e-07
1.38923e-05
2.30129e-07
1.38989e-05
2.93062e-07
1.38963e-05
2.59797e-07
1.3899e-05
2.5389e-07
1.39117e-05
2.59084e-07
1.39191e-05
2.49694e-07
1.39208e-05
2.06957e-07
1.39255e-05
1.90287e-07
1.39324e-05
1.79122e-07
1.39357e-05
1.65429e-07
1.39356e-05
1.3992e-07
1.39359e-05
1.24406e-07
1.39378e-05
1.13253e-07
1.075e-07
1.394e-05
1.45563e-05
1.00836e-07
1.45707e-05
2.32921e-07
1.45557e-05
1.4216e-07
1.45592e-05
1.68351e-07
1.45713e-05
2.42293e-07
1.45618e-05
2.42866e-07
1.45581e-05
2.33887e-07
1.45638e-05
2.87383e-07
1.45627e-05
2.60847e-07
1.45647e-05
2.51862e-07
1.45759e-05
2.47909e-07
1.4584e-05
2.41585e-07
1.45867e-05
2.04239e-07
1.45905e-05
1.86539e-07
1.45966e-05
1.72992e-07
1.46006e-05
1.61477e-07
1.46015e-05
1.39011e-07
1.46019e-05
1.24036e-07
1.46036e-05
1.11534e-07
1.05287e-07
1.46058e-05
1.52494e-05
9.02833e-08
1.52646e-05
2.17796e-07
1.52541e-05
1.52606e-07
1.52534e-05
1.69017e-07
1.52631e-05
2.32651e-07
1.52572e-05
2.4879e-07
1.52546e-05
2.36501e-07
1.52604e-05
2.81535e-07
1.52609e-05
2.6039e-07
1.52626e-05
2.50116e-07
1.52721e-05
2.38384e-07
1.52806e-05
2.33105e-07
1.52843e-05
2.00522e-07
1.52877e-05
1.83112e-07
1.5293e-05
1.67735e-07
1.52972e-05
1.57285e-07
1.5299e-05
1.37187e-07
1.52998e-05
1.23258e-07
1.53013e-05
1.1008e-07
1.03009e-07
1.53035e-05
1.59761e-05
8.14902e-08
1.59926e-05
2.01276e-07
1.5984e-05
1.61294e-07
1.59795e-05
1.73518e-07
1.5987e-05
2.25132e-07
1.59838e-05
2.52001e-07
1.59832e-05
2.37017e-07
1.599e-05
2.74752e-07
1.59923e-05
2.58141e-07
1.5994e-05
2.48429e-07
1.60019e-05
2.30485e-07
1.60104e-05
2.24532e-07
1.6015e-05
1.95957e-07
1.60186e-05
1.79563e-07
1.60232e-05
1.63072e-07
1.60273e-05
1.53203e-07
1.60298e-05
1.34711e-07
1.60312e-05
1.21871e-07
1.60325e-05
1.08717e-07
1.00804e-07
1.60347e-05
1.67377e-05
7.44405e-08
1.67471e-05
1.91874e-07
1.67423e-05
1.66081e-07
1.67395e-05
1.76253e-07
1.67463e-05
2.18361e-07
1.67456e-05
2.52686e-07
1.67465e-05
2.36115e-07
1.67543e-05
2.6701e-07
1.67586e-05
2.53838e-07
1.67605e-05
2.46482e-07
1.6767e-05
2.24016e-07
1.67751e-05
2.16449e-07
1.67805e-05
1.90558e-07
1.67843e-05
1.75743e-07
1.67887e-05
1.58628e-07
1.67926e-05
1.493e-07
1.67954e-05
1.31977e-07
1.67975e-05
1.19782e-07
1.67989e-05
1.07238e-07
9.87499e-08
1.6801e-05
1.7536e-05
6.87525e-08
1.75474e-05
1.80503e-07
1.75425e-05
1.71012e-07
1.75385e-05
1.80218e-07
1.75443e-05
2.12625e-07
1.75451e-05
2.5186e-07
1.75464e-05
2.34776e-07
1.75546e-05
2.58789e-07
1.75608e-05
2.47642e-07
1.75636e-05
2.43697e-07
1.7569e-05
2.18639e-07
1.75762e-05
2.0922e-07
1.75823e-05
1.84513e-07
1.75865e-05
1.71551e-07
1.75909e-05
1.54205e-07
1.75949e-05
1.45287e-07
1.75976e-05
1.29281e-07
1.76001e-05
1.1725e-07
1.76021e-05
1.05269e-07
9.68875e-08
1.7604e-05
1.83728e-05
6.42658e-08
1.83823e-05
1.71041e-07
1.838e-05
1.73268e-07
1.83766e-05
1.83686e-07
1.83818e-05
2.07432e-07
1.83837e-05
2.49907e-07
1.83851e-05
2.33412e-07
1.83931e-05
2.50777e-07
1.84008e-05
2.39932e-07
1.8405e-05
2.39453e-07
1.84097e-05
2.14018e-07
1.8416e-05
2.02913e-07
1.84221e-05
1.78425e-07
1.84269e-05
1.66702e-07
1.84313e-05
1.49816e-07
1.84356e-05
1.40979e-07
1.84385e-05
1.26373e-07
1.8441e-05
1.14763e-07
1.84436e-05
1.02655e-07
9.50099e-08
1.84455e-05
1.92499e-05
6.07218e-08
1.92589e-05
1.62095e-07
1.92582e-05
1.73951e-07
1.92551e-05
1.86764e-07
1.92599e-05
2.02648e-07
1.9263e-05
2.46773e-07
1.92646e-05
2.31883e-07
1.92716e-05
2.43775e-07
1.92802e-05
2.31279e-07
1.92862e-05
2.33511e-07
1.92907e-05
2.09499e-07
1.92962e-05
1.9735e-07
1.93019e-05
1.72764e-07
1.93073e-05
1.61347e-07
1.93119e-05
1.45223e-07
1.93163e-05
1.3654e-07
1.93198e-05
1.22882e-07