/*--------------------------------*- C++ -*----------------------------------*\
| =========                 |                                                 |
| \\      /  F ield         | OpenFOAM: The Open Source CFD Toolbox           |
|  \\    /   O peration     | Version:  v1906                                 |
|   \\  /    A nd           | Web:      www.OpenFOAM.com                      |
|    \\/     M anipulation  |                                                 |
\*---------------------------------------------------------------------------*/
FoamFile
{
    version     2.0;
    format      ascii;
    class       volVectorField;
    location    "6.5";
    object      U;
}
// * * * * * * * * * * * * * * * * * * * * * * * * * * * * * * * * * * * * * //

dimensions      [0 1 -1 0 0 0 0];


internalField   nonuniform List<vector> 
9600
(
(0.941611 0.018532 0)
(1.11607 -0.0191576 0)
(0.856247 0.00802064 0)
(1.09607 0.0080956 0)
(0.94569 -0.00126466 0)
(0.996221 -0.0215359 0)
(0.865245 0.028066 0)
(1.18076 -0.0125078 0)
(0.735453 0.0113513 0)
(1.21475 0.0171962 0)
(0.730802 0.00509686 0)
(1.13706 0.0251453 0)
(0.839524 0.0127726 0)
(1.06164 0.0208798 0)
(0.88068 0.0080181 0)
(1.0452 0.00423334 0)
(0.890514 -0.00132768 0)
(1.04863 -0.015723 0)
(0.859193 -0.00347553 0)
(1.06364 -0.0252433 0)
(0.943677 0.0181572 0)
(1.10735 -0.018251 0)
(0.859699 0.00815905 0)
(1.08638 0.00752975 0)
(0.950955 -0.000416842 0)
(0.992173 -0.0205236 0)
(0.868463 0.0263019 0)
(1.16876 -0.0103916 0)
(0.740901 0.010886 0)
(1.2018 0.0177144 0)
(0.756741 0.00594992 0)
(1.11618 0.0241443 0)
(0.88248 0.013931 0)
(1.02904 0.0205553 0)
(0.931243 0.00846675 0)
(0.996885 0.00396394 0)
(0.958488 -0.00114525 0)
(0.977378 -0.0155168 0)
(0.95644 -0.00275033 0)
(0.95853 -0.0268214 0)
(0.947611 0.0177382 0)
(1.09638 -0.0175457 0)
(0.869374 0.00813589 0)
(1.06762 0.00689459 0)
(0.960636 0.000335606 0)
(0.986618 -0.0196562 0)
(0.87629 0.023971 0)
(1.14925 -0.00868272 0)
(0.763317 0.00992784 0)
(1.16485 0.0180203 0)
(0.812191 0.00697671 0)
(1.06548 0.0223141 0)
(0.932263 0.0153505 0)
(0.993258 0.0197949 0)
(0.957711 0.00896779 0)
(0.974151 0.00341192 0)
(0.971307 -0.00102513 0)
(0.968282 -0.0148898 0)
(0.964862 -0.00388817 0)
(0.96451 -0.0221575 0)
(0.953294 0.0173936 0)
(1.08322 -0.0168584 0)
(0.885238 0.00816157 0)
(1.04387 0.00626881 0)
(0.97333 0.000925126 0)
(0.981801 -0.0187803 0)
(0.888864 0.0220633 0)
(1.12273 -0.00722697 0)
(0.80454 0.00933227 0)
(1.11052 0.017556 0)
(0.878266 0.00822013 0)
(1.00834 0.0205637 0)
(0.956965 0.0161804 0)
(0.972518 0.0194094 0)
(0.962374 0.00921699 0)
(0.967902 0.00304811 0)
(0.972042 -0.000835761 0)
(0.970346 -0.0149294 0)
(0.966419 -0.00361157 0)
(0.966613 -0.0206385 0)
(0.960388 0.017112 0)
(1.06895 -0.016261 0)
(0.905172 0.00834418 0)
(1.02054 0.00563721 0)
(0.985753 0.00135835 0)
(0.979923 -0.0178594 0)
(0.904201 0.0205427 0)
(1.09287 -0.00623256 0)
(0.85487 0.00932151 0)
(1.0567 0.0166376 0)
(0.931885 0.00959965 0)
(0.969681 0.0195688 0)
(0.960895 0.016484 0)
(0.963993 0.0193341 0)
(0.964737 0.00931179 0)
(0.968616 0.00269418 0)
(0.975537 -0.000932262 0)
(0.97507 -0.0146853 0)
(0.970716 -0.0036121 0)
(0.969787 -0.0193203 0)
(0.968326 0.0168693 0)
(1.05489 -0.0157538 0)
(0.926036 0.00864765 0)
(1.0026 0.00503979 0)
(0.994976 0.00161804 0)
(0.981656 -0.0169408 0)
(0.919461 0.0192989 0)
(1.0648 -0.00570727 0)
(0.901751 0.00973113 0)
(1.01825 0.0157298 0)
(0.964938 0.0108015 0)
(0.9551 0.0193974 0)
(0.959987 0.0165065 0)
(0.962983 0.01914 0)
(0.970436 0.00925063 0)
(0.974559 0.00229105 0)
(0.981231 -0.00109902 0)
(0.98112 -0.0143788 0)
(0.975856 -0.00373046 0)
(0.974021 -0.0178431 0)
(0.976413 0.0166588 0)
(1.0422 -0.0153316 0)
(0.945023 0.00899067 0)
(0.992466 0.0045271 0)
(1.00015 0.00171145 0)
(0.985644 -0.0160729 0)
(0.932876 0.0183654 0)
(1.04266 -0.00555868 0)
(0.93727 0.010281 0)
(0.998 0.0150429 0)
(0.98151 0.011677 0)
(0.95609 0.0196774 0)
(0.962831 0.016395 0)
(0.967437 0.0187297 0)
(0.978389 0.00905136 0)
(0.98304 0.00187958 0)
(0.988042 -0.00123334 0)
(0.987144 -0.0139958 0)
(0.980902 -0.00384732 0)
(0.978371 -0.0162287 0)
(0.983972 0.016474 0)
(1.03162 -0.0149786 0)
(0.960561 0.00930763 0)
(0.989477 0.0041293 0)
(1.00235 0.00168712 0)
(0.98959 -0.0152759 0)
(0.944442 0.0177172 0)
(1.02784 -0.00565853 0)
(0.959773 0.0107934 0)
(0.990126 0.0146078 0)
(0.988746 0.0122671 0)
(0.963017 0.0200517 0)
(0.969709 0.0162327 0)
(0.975408 0.0182075 0)
(0.987179 0.00877363 0)
(0.991641 0.00150055 0)
(0.994933 -0.00129793 0)
(0.992817 -0.0134982 0)
(0.985654 -0.00393255 0)
(0.982559 -0.0145316 0)
(0.990496 0.0163045 0)
(1.02334 -0.0146737 0)
(0.972343 0.00955482 0)
(0.991139 0.00384714 0)
(1.00326 0.00161525 0)
(0.991833 -0.0145617 0)
(0.955008 0.0172561 0)
(1.01913 -0.00586253 0)
(0.971845 0.0112253 0)
(0.98787 0.0143684 0)
(0.99187 0.0126449 0)
(0.970771 0.0203512 0)
(0.978243 0.0160391 0)
(0.9847 0.017631 0)
(0.995808 0.00849698 0)
(0.999352 0.00119683 0)
(1.00109 -0.00131365 0)
(0.997961 -0.0128748 0)
(0.990103 -0.00396876 0)
(0.986528 -0.0128145 0)
(0.995718 0.0161404 0)
(1.01722 -0.0143961 0)
(0.980814 0.00970788 0)
(0.994853 0.0036613 0)
(1.00407 0.00155628 0)
(0.992084 -0.0139396 0)
(0.965019 0.0168882 0)
(1.01429 -0.00605049 0)
(0.977561 0.0115832 0)
(0.987513 0.014242 0)
(0.99358 0.0128503 0)
(0.97787 0.0205219 0)
(0.986729 0.0157936 0)
(0.993727 0.0170297 0)
(1.00354 0.00826799 0)
(1.00582 0.000976956 0)
(1.00613 -0.0012915 0)
(1.00228 -0.0121277 0)
(0.994118 -0.00395142 0)
(0.990175 -0.0111478 0)
(0.999597 0.0159748 0)
(1.01291 -0.0141305 0)
(0.986663 0.00976232 0)
(0.998848 0.0035443 0)
(1.00515 0.00154639 0)
(0.991086 -0.0134081 0)
(0.974115 0.0165531 0)
(1.0115 -0.00615544 0)
(0.980407 0.0118708 0)
(0.987968 0.0141692 0)
(0.995065 0.0129009 0)
(0.984246 0.0205506 0)
(0.994443 0.015484 0)
(1.00166 0.016439 0)
(1.00993 0.00809435 0)
(1.01085 0.000840359 0)
(1.00991 -0.00120962 0)
(1.00554 -0.0112895 0)
(0.997459 -0.00389923 0)
(0.993316 -0.00957492 0)
(1.00225 0.0158037 0)
(1.01003 -0.0138662 0)
(0.990553 0.00972819 0)
(1.00224 0.0034728 0)
(1.0064 0.00159608 0)
(0.98985 -0.0129515 0)
(0.981598 0.0162172 0)
(1.0098 -0.00615851 0)
(0.982369 0.0120838 0)
(0.989088 0.0141283 0)
(0.99681 0.0128122 0)
(0.989969 0.0204472 0)
(1.00108 0.0151257 0)
(1.00811 0.0158788 0)
(1.01476 0.00798285 0)
(1.01439 0.000814291 0)
(1.01242 -0.00106856 0)
(1.00771 -0.0104104 0)
(0.999959 -0.00382068 0)
(0.995783 -0.00810542 0)
(1.00388 0.0156245 0)
(1.00823 -0.0135964 0)
(0.993065 0.00962118 0)
(1.0047 0.00343093 0)
(1.00764 0.00169612 0)
(0.989068 -0.0125457 0)
(0.987072 0.0158648 0)
(1.00883 -0.00606949 0)
(0.984109 0.012221 0)
(0.990658 0.0141108 0)
(0.998906 0.0126054 0)
(0.994884 0.0202369 0)
(1.0064 0.0147445 0)
(1.01293 0.0153626 0)
(1.01803 0.00793336 0)
(1.01659 0.000903828 0)
(1.01384 -0.00088838 0)
(1.00895 -0.00952394 0)
(1.00164 -0.00370101 0)
(0.997536 -0.00674165 0)
(1.00468 0.0154363 0)
(1.00721 -0.0133175 0)
(0.994706 0.00945741 0)
(1.00618 0.00340859 0)
(1.00875 0.00182637 0)
(0.988927 -0.0121658 0)
(0.99073 0.0154911 0)
(1.00828 -0.00590691 0)
(0.985633 0.0122868 0)
(0.992309 0.014107 0)
(1.00116 0.0123014 0)
(0.998728 0.0199608 0)
(1.0102 0.0143511 0)
(1.01608 0.0149044 0)
(1.01988 0.00794018 0)
(1.01771 0.00105147 0)
(1.01449 -0.000671546 0)
(1.00956 -0.00864601 0)
(1.00272 -0.00353373 0)
(0.998698 -0.005487 0)
(1.00485 0.0152389 0)
(1.00674 -0.0130286 0)
(0.995872 0.00925211 0)
(1.00678 0.00340026 0)
(1.00974 0.00196503 0)
(0.989252 -0.0117905 0)
(0.993173 0.0150947 0)
(1.00781 -0.00568334 0)
(0.986864 0.0122846 0)
(0.993802 0.0141047 0)
(1.00327 0.0119272 0)
(1.00136 0.0196519 0)
(1.01244 0.0139658 0)
(1.01773 0.0144873 0)
(1.02059 0.00800256 0)
(1.01806 0.0012527 0)
(1.01468 -0.000397531 0)
(1.00981 -0.0077906 0)
(1.00345 -0.00333411 0)
(0.999487 -0.00436022 0)
(1.00454 0.0150325 0)
(1.00668 -0.0127306 0)
(0.996787 0.00901922 0)
(1.00664 0.00340361 0)
(1.0106 0.00209427 0)
(0.989786 -0.0114056 0)
(0.994957 0.0146786 0)
(1.00716 -0.00540526 0)
(0.987832 0.0122113 0)
(0.99512 0.0141029 0)
(1.005 0.0115073 0)
(1.00288 0.0193421 0)
(1.01334 0.0136021 0)
(1.01815 0.0141047 0)
(1.02046 0.00809337 0)
(1.0179 0.00146585 0)
(1.01461 -6.87625e-05 0)
(1.00992 -0.00696546 0)
(1.00404 -0.00311435 0)
(1.0001 -0.00334751 0)
(1.0039 0.0148172 0)
(1.0069 -0.012425 0)
(0.9975 0.00877153 0)
(1.00598 0.00341741 0)
(1.01128 0.00220215 0)
(0.990386 -0.0110056 0)
(0.996291 0.0142546 0)
(1.00628 -0.0050764 0)
(0.988606 0.0120552 0)
(0.996277 0.0141132 0)
(1.00625 0.0110624 0)
(1.00351 0.0190565 0)
(1.01327 0.0132665 0)
(1.01767 0.0137406 0)
(1.01976 0.00819724 0)
(1.01738 0.00165697 0)
(1.01435 0.000288927 0)
(1.00994 -0.00615998 0)
(1.00458 -0.00288967 0)
(1.00065 -0.00241402 0)
(1.00311 0.0145924 0)
(1.0073 -0.0121121 0)
(0.99798 0.00851897 0)
(1.00504 0.00344183 0)
(1.01171 0.00227914 0)
(0.991031 -0.0105836 0)
(0.997102 0.0138278 0)
(1.00534 -0.00469548 0)
(0.98922 0.0118125 0)
(0.997162 0.0141346 0)
(1.00706 0.0106213 0)
(1.00354 0.0187941 0)
(1.0126 0.0129748 0)
(1.01667 0.013357 0)
(1.01869 0.00832013 0)
(1.01664 0.00182429 0)
(1.01394 0.000650068 0)
(1.00986 -0.00535763 0)
(1.00507 -0.00268671 0)
(1.00115 -0.00155901 0)
(1.00233 0.0143571 0)
(1.00776 -0.0117896 0)
(0.99823 0.00826656 0)
(1.00402 0.00347745 0)
(1.01187 0.00231881 0)
(0.991711 -0.0101324 0)
(0.997343 0.0133986 0)
(1.00453 -0.00426926 0)
(0.9897 0.0114959 0)
(0.997625 0.0141649 0)
(1.0075 0.010195 0)
(1.00321 0.018546 0)
(1.01163 0.0127322 0)
(1.01547 0.0129437 0)
(1.01745 0.00846 0)
(1.01578 0.00193207 0)
(1.01343 0.000985799 0)
(1.00968 -0.00455166 0)
(1.00549 -0.00251653 0)
(1.0016 -0.00079444 0)
(1.00166 0.0141099 0)
(1.00815 -0.0114542 0)
(0.998327 0.00801473 0)
(1.00309 0.00352509 0)
(1.01182 0.00231859 0)
(0.992381 -0.0096464 0)
(0.997157 0.0129647 0)
(1.00396 -0.00380766 0)
(0.990102 0.0111148 0)
(0.997659 0.0142124 0)
(1.00766 0.0097776 0)
(1.00277 0.0183078 0)
(1.0106 0.0125329 0)
(1.01433 0.0124928 0)
(1.01622 0.00861721 0)
(1.01492 0.00200174 0)
(1.01288 0.00128327 0)
(1.00945 -0.00372377 0)
(1.00584 -0.00237549 0)
(1.00201 -0.00014475 0)
(1.00117 0.0138499 0)
(1.00844 -0.0111029 0)
(0.998378 0.00776038 0)
(1.00235 0.00358733 0)
(1.01165 0.00227806 0)
(0.99298 -0.00912057 0)
(0.996795 0.0125191 0)
(1.00361 -0.00332235 0)
(0.990493 0.0106872 0)
(0.997426 0.0142761 0)
(1.00765 0.00937303 0)
(1.0024 0.0180575 0)
(1.00967 0.0123874 0)
(1.0134 0.0119954 0)
(1.01513 0.00878778 0)
(1.01416 0.0020762 0)
(1.01236 0.00150379 0)
(1.0092 -0.00286486 0)
(1.00612 -0.00224512 0)
(1.0024 0.000372699 0)
(1.00082 0.0135764 0)
(1.0086 -0.0107325 0)
(0.998455 0.00749774 0)
(1.0018 0.00366675 0)
(1.01139 0.00220242 0)
(0.993479 -0.0085584 0)
(0.996454 0.0120583 0)
(1.00344 -0.0028194 0)
(0.99091 0.0102294 0)
(0.997133 0.0143481 0)
(1.00757 0.00898908 0)
(1.0022 0.0177672 0)
(1.00889 0.0123104 0)
(1.01275 0.0114518 0)
(1.01423 0.00895907 0)
(1.01354 0.0021882 0)
(1.01191 0.00165565 0)
(1.00897 -0.00196919 0)
(1.00634 -0.0020795 0)
(1.00279 0.000753367 0)
(1.00059 0.0132887 0)
(1.00868 -0.0103416 0)
(0.99858 0.0072248 0)
(1.00142 0.003763 0)
(1.01109 0.00209806 0)
(0.993897 -0.00796205 0)
(0.996207 0.0115766 0)
(1.00337 -0.0022973 0)
(0.991348 0.00974978 0)
(0.996911 0.0144238 0)
(1.00746 0.0086211 0)
(1.00216 0.0174296 0)
(1.00828 0.0122941 0)
(1.01234 0.010878 0)
(1.01348 0.00911499 0)
(1.01304 0.00233071 0)
(1.01154 0.00171974 0)
(1.00877 -0.00106622 0)
(1.0065 -0.0018283 0)
(1.00321 0.000979393 0)
(1.00043 0.012986 0)
(1.0087 -0.00992913 0)
(0.998743 0.00693723 0)
(1.00117 0.00387978 0)
(1.01075 0.00196833 0)
(0.994277 -0.00733566 0)
(0.996042 0.0110765 0)
(1.00339 -0.00176331 0)
(0.991786 0.00925884 0)
(0.996798 0.0144951 0)
(1.00735 0.0082852 0)
(1.00226 0.0170193 0)
(1.00776 0.012334 0)
(1.01211 0.0102855 0)
(1.01285 0.00923638 0)
(1.01262 0.00254471 0)
(1.01124 0.00168683 0)
(1.00861 -0.000227415 0)
(1.00661 -0.00146028 0)
(1.00367 0.00106361 0)
(1.00031 0.0126677 0)
(1.00868 -0.00949354 0)
(0.998926 0.00662909 0)
(1.00102 0.00402068 0)
(1.01037 0.00181385 0)
(0.99466 -0.00668407 0)
(0.995923 0.0105613 0)
(1.00346 -0.00122328 0)
(0.992205 0.00876438 0)
(0.996767 0.0145493 0)
(1.00723 0.00799886 0)
(1.00244 0.0165402 0)
(1.0073 0.0124265 0)
(1.01199 0.00968329 0)
(1.01232 0.00930852 0)
(1.01224 0.00286116 0)
(1.01101 0.00161327 0)
(1.0085 0.000511002 0)
(1.00667 -0.000956628 0)
(1.00415 0.0010568 0)
(1.00022 0.0123343 0)
(1.00862 -0.00903754 0)
(0.999118 0.00630421 0)
(1.00092 0.00417982 0)
(1.00996 0.00164382 0)
(0.99507 -0.00601841 0)
(0.995831 0.0100401 0)
(1.00356 -0.000685451 0)
(0.992607 0.00827157 0)
(0.996776 0.01458 0)
(1.00711 0.00776238 0)
(1.00265 0.0160003 0)
(1.00685 0.0125582 0)
(1.01192 0.00911098 0)
(1.01186 0.00931032 0)
(1.01187 0.00326326 0)
(1.01083 0.0015217 0)
(1.00843 0.00113187 0)
(1.00668 -0.000311495 0)
(1.00463 0.00102211 0)
(1.00015 0.0119856 0)
(1.00852 -0.00855923 0)
(0.999314 0.00595868 0)
(1.00088 0.00436373 0)
(1.00953 0.00145943 0)
(0.995509 -0.00533995 0)
(0.995767 0.00951694 0)
(1.00367 -0.000160366 0)
(0.993006 0.00779861 0)
(0.996789 0.0145737 0)
(1.00698 0.00758663 0)
(1.00287 0.0153874 0)
(1.00641 0.0127021 0)
(1.01185 0.00858816 0)
(1.01146 0.00921356 0)
(1.01147 0.00374787 0)
(1.01067 0.0014488 0)
(1.00842 0.00161205 0)
(1.00665 0.000410314 0)
(1.00507 0.0010433 0)
(1.00011 0.01162 0)
(1.00839 -0.00805559 0)
(0.999516 0.00558995 0)
(1.00086 0.00457093 0)
(1.0091 0.00125869 0)
(0.995965 -0.00465789 0)
(0.995743 0.00900121 0)
(1.00375 0.000346372 0)
(0.993419 0.00735658 0)
(0.996784 0.0145129 0)
(1.00685 0.00746957 0)
(1.00309 0.01472 0)
(1.00596 0.0128423 0)
(1.01175 0.00811961 0)
(1.01113 0.00902202 0)
(1.01104 0.00429014 0)
(1.01052 0.00142777 0)
(1.00846 0.00194522 0)
(1.0066 0.00115959 0)
(1.00544 0.00118824 0)
(1.00009 0.0112394 0)
(1.00821 -0.00753184 0)
(0.999723 0.00520157 0)
(1.00085 0.00479479 0)
(1.00868 0.0010468 0)
(0.996417 -0.00398076 0)
(0.995768 0.0085108 0)
(1.0038 0.000830433 0)
(0.993863 0.00695315 0)
(0.996758 0.0143975 0)
(1.00673 0.00740362 0)
(1.00331 0.0140061 0)
(1.00551 0.0129637 0)
(1.0116 0.00773923 0)
(1.01087 0.0087405 0)
(1.01059 0.00486332 0)
(1.01034 0.00148998 0)
(1.00855 0.00212336 0)
(1.00654 0.00188056 0)
(1.00572 0.00149349 0)
(1.00008 0.0108454 0)
(1.008 -0.00698783 0)
(0.999937 0.00479379 0)
(1.00083 0.00503281 0)
(1.0083 0.000837592 0)
(0.996847 -0.00331888 0)
(0.995846 0.00805349 0)
(1.0038 0.00127223 0)
(0.994343 0.00660253 0)
(0.996718 0.0142291 0)
(1.00661 0.00738089 0)
(1.00354 0.0132713 0)
(1.00507 0.0130518 0)
(1.01139 0.00744946 0)
(1.01067 0.00837144 0)
(1.01011 0.00543253 0)
(1.01012 0.00166933 0)
(1.00868 0.0021744 0)
(1.00651 0.00250194 0)
(1.00588 0.0019639 0)
(1.00008 0.0104346 0)
(1.00778 -0.00641854 0)
(1.00016 0.00436432 0)
(1.0008 0.0052849 0)
(1.00796 0.000632905 0)
(0.997243 -0.00268503 0)
(0.995968 0.00764641 0)
(1.00378 0.00165554 0)
(0.994858 0.00629285 0)
(0.996677 0.0140211 0)
(1.0065 0.00740077 0)
(1.00378 0.0125331 0)
(1.00465 0.0130981 0)
(1.01113 0.00725609 0)
(1.01054 0.00793059 0)
(1.00965 0.00595339 0)
(1.00985 0.00199581 0)
(1.00884 0.00215025 0)
(1.00654 0.00299502 0)
(1.00594 0.00256311 0)
(1.00009 0.0100103 0)
(1.00754 -0.00583046 0)
(1.00039 0.00391587 0)
(1.00075 0.00554402 0)
(1.00765 0.000443091 0)
(0.997604 -0.00208407 0)
(0.996119 0.00730427 0)
(1.00372 0.00197202 0)
(0.995402 0.00603271 0)
(0.996652 0.0137733 0)
(1.00639 0.00745582 0)
(1.00405 0.0117944 0)
(1.00426 0.0131024 0)
(1.0108 0.00717561 0)
(1.01047 0.00744415 0)
(1.00922 0.00639919 0)
(1.00951 0.00244268 0)
(1.00901 0.00210054 0)
(1.00665 0.00329166 0)
(1.00594 0.00319711 0)
(1.00009 0.00957388 0)
(1.00729 -0.0052274 0)
(1.00063 0.00345902 0)
(1.00067 0.00579581 0)
(1.00736 0.000272473 0)
(0.997934 -0.00153185 0)
(0.996283 0.00702982 0)
(1.00366 0.00222474 0)
(0.995965 0.00581559 0)
(0.996654 0.0134938 0)
(1.00627 0.00752198 0)
(1.00436 0.0110692 0)
(1.0039 0.0130444 0)
(1.01041 0.00718587 0)
(1.01045 0.0069407 0)
(1.00884 0.00674515 0)
(1.00911 0.00298409 0)
(1.00914 0.00209654 0)
(1.00684 0.00340496 0)
(1.00593 0.00377991 0)
(1.0001 0.00912273 0)
(1.00704 -0.00460394 0)
(1.00088 0.00298954 0)
(1.00058 0.00604047 0)
(1.00708 0.000131156 0)
(0.998247 -0.0010486 0)
(0.996448 0.00683158 0)
(1.0036 0.00243906 0)
(0.996542 0.00561257 0)
(0.996688 0.0131939 0)
(1.00612 0.00759195 0)
(1.00469 0.0103535 0)
(1.0036 0.0129225 0)
(1.00995 0.00728265 0)
(1.01046 0.00643582 0)
(1.00855 0.00696246 0)
(1.00866 0.00360229 0)
(1.00922 0.00217843 0)
(1.00712 0.00339527 0)
(1.00596 0.00422219 0)
(1.0001 0.00866098 0)
(1.00677 -0.00397026 0)
(1.00114 0.00251725 0)
(1.00047 0.00627311 0)
(1.0068 3.42414e-05 0)
(0.998553 -0.000641393 0)
(0.996607 0.00670439 0)
(1.00354 0.00262242 0)
(0.997126 0.00541605 0)
(0.996755 0.0128753 0)
(1.00596 0.00767763 0)
(1.00505 0.00966034 0)
(1.00336 0.0127388 0)
(1.00944 0.00746267 0)
(1.01049 0.0059663 0)
(1.00836 0.00705024 0)
(1.00819 0.0042528 0)
(1.00921 0.00237274 0)
(1.00744 0.00331864 0)
(1.00609 0.00447609 0)
(1.0001 0.00818845 0)
(1.0065 -0.00332973 0)
(1.0014 0.002053 0)
(1.00036 0.00648055 0)
(1.00652 -9.00588e-06 0)
(0.998862 -0.000312379 0)
(0.996759 0.0066371 0)
(1.00347 0.0027827 0)
(0.997715 0.00521858 0)
(0.996857 0.0125556 0)
(1.00577 0.00778111 0)
(1.00542 0.00899419 0)
(1.00319 0.0124731 0)
(1.00888 0.00772097 0)
(1.0105 0.00555954 0)
(1.00827 0.00700662 0)
(1.00773 0.00490009 0)
(1.00911 0.00267787 0)
(1.00777 0.00323727 0)
(1.0063 0.00456615 0)
(1.0001 0.00770732 0)
(1.00622 -0.00268336 0)
(1.00167 0.0015988 0)
(1.00025 0.00664909 0)
(1.00623 1.94402e-05 0)
(0.999182 -7.12311e-05 0)
(0.996907 0.00661983 0)
(1.00339 0.00294691 0)
(0.998307 0.00500048 0)
(0.996994 0.012231 0)
(1.00554 0.00789814 0)
(1.00579 0.00836473 0)
(1.0031 0.0121331 0)
(1.00828 0.00803222 0)
(1.01048 0.00524661 0)
(1.00829 0.00682352 0)
(1.00729 0.00549875 0)
(1.00892 0.00308858 0)
(1.00808 0.00319469 0)
(1.00661 0.00454669 0)
(1.0001 0.00721968 0)
(1.00592 -0.00204149 0)
(1.00194 0.00116786 0)
(1.00015 0.00677142 0)
(1.00593 0.000122613 0)
(0.999514 8.60666e-05 0)
(0.997057 0.00662721 0)
(1.0033 0.0031272 0)
(0.998899 0.00475106 0)
(0.99717 0.0118891 0)
(1.00528 0.00804364 0)
(1.00615 0.00778478 0)
(1.00309 0.0117069 0)
(1.00765 0.00836854 0)
(1.0104 0.00506163 0)
(1.00841 0.00651552 0)
(1.00692 0.00600705 0)
(1.00863 0.00359711 0)
(1.00832 0.00320723 0)
(1.00697 0.00448611 0)
(1.00011 0.00672697 0)
(1.0056 -0.00140755 0)
(1.0022 0.000766923 0)
(1.00007 0.00683333 0)
(1.0056 0.000311153 0)
(0.999856 0.000168233 0)
(0.997217 0.00664566 0)
(1.00319 0.00333793 0)
(0.999487 0.00448119 0)
(0.99739 0.0115125 0)
(1.00499 0.00821337 0)
(1.00648 0.00726621 0)
(1.00318 0.0111797 0)
(1.00703 0.00872171 0)
(1.01023 0.00502164 0)
(1.0086 0.00611738 0)
(1.00665 0.00639518 0)
(1.00827 0.00419805 0)
(1.00849 0.00329367 0)
(1.00736 0.00439912 0)
(1.00011 0.0062347 0)
(1.00528 -0.000791221 0)
(1.00245 0.00040315 0)
(1 0.00682475 0)
(1.00526 0.000584444 0)
(1.0002 0.000194716 0)
(0.997394 0.0066536 0)
(1.00306 0.00359562 0)
(1.00006 0.00420102 0)
(0.997659 0.0110952 0)
(1.00467 0.00839791 0)
(1.00677 0.00682551 0)
(1.00336 0.0105814 0)
(1.00643 0.00902303 0)
(1.00997 0.00514273 0)
(1.00885 0.00568657 0)
(1.00651 0.00659247 0)
(1.00786 0.00483191 0)
(1.00854 0.00348468 0)
(1.00775 0.00428597 0)
(1.00012 0.00574405 0)
(1.00493 -0.000196989 0)
(1.00268 8.95653e-05 0)
(0.999965 0.00673995 0)
(1.0049 0.000927255 0)
(1.00055 0.000189454 0)
(0.997595 0.00661345 0)
(1.0029 0.00390836 0)
(1.00062 0.00393428 0)
(0.997986 0.0106302 0)
(1.00433 0.00858359 0)
(1.00699 0.00647884 0)
(1.00362 0.00992676 0)
(1.00589 0.00923847 0)
(1.0096 0.00540675 0)
(1.0091 0.0052995 0)
(1.00652 0.00657903 0)
(1.00745 0.00542287 0)
(1.00846 0.0038116 0)
(1.00811 0.00417809 0)
(1.00014 0.00525729 0)
(1.00458 0.000372376 0)
(1.00289 -0.000170603 0)
(0.999955 0.00657582 0)
(1.00452 0.00133692 0)
(1.00089 0.000169335 0)
(0.997827 0.0065143 0)
(1.00272 0.00427799 0)
(1.00114 0.00370649 0)
(0.99837 0.0101008 0)
(1.00399 0.00876493 0)
(1.00714 0.00624187 0)
(1.00397 0.00922817 0)
(1.00544 0.00936196 0)
(1.00914 0.00575892 0)
(1.00931 0.00501902 0)
(1.00666 0.00639848 0)
(1.0071 0.00590241 0)
(1.00826 0.00425808 0)
(1.00839 0.00414158 0)
(1.00015 0.00477991 0)
(1.00422 0.000906184 0)
(1.00307 -0.000373798 0)
(0.999978 0.00633327 0)
(1.00413 0.0017921 0)
(1.0012 0.000161412 0)
(0.998098 0.00633956 0)
(1.00253 0.00467282 0)
(1.00161 0.00354144 0)
(0.998814 0.00951502 0)
(1.00367 0.00892226 0)
(1.00721 0.00612047 0)
(1.00436 0.00851889 0)
(1.0051 0.00936284 0)
(1.00861 0.00616151 0)
(1.00943 0.00488203 0)
(1.0069 0.00610365 0)
(1.00685 0.00620663 0)
(1.00798 0.00473926 0)
(1.00855 0.00423438 0)
(1.00017 0.00431587 0)
(1.00384 0.00139711 0)
(1.00322 -0.000510127 0)
(1.00004 0.00601385 0)
(1.00373 0.00226045 0)
(1.00149 0.000189072 0)
(0.998409 0.006076 0)
(1.00232 0.00507008 0)
(1.00202 0.00346367 0)
(0.999309 0.00888953 0)
(1.00338 0.00900882 0)
(1.00718 0.0061189 0)
(1.00478 0.00783281 0)
(1.00489 0.00923152 0)
(1.00805 0.00656979 0)
(1.00944 0.00488678 0)
(1.00721 0.00577157 0)
(1.00672 0.00634102 0)
(1.00766 0.00517896 0)
(1.00858 0.00445631 0)
(1.00019 0.00386878 0)
(1.00347 0.00183728 0)
(1.00333 -0.000571909 0)
(1.00013 0.00562382 0)
(1.00333 0.00273025 0)
(1.00173 0.000273365 0)
(0.99876 0.00572903 0)
(1.00212 0.00544015 0)
(1.00236 0.00349353 0)
(0.999841 0.0082519 0)
(1.00314 0.00899986 0)
(1.00706 0.00622725 0)
(1.0052 0.00722282 0)
(1.0048 0.00896039 0)
(1.00749 0.00692561 0)
(1.00932 0.00501489 0)
(1.00753 0.00546132 0)
(1.00673 0.0063218 0)
(1.00737 0.00552557 0)
(1.00848 0.00474259 0)
(1.00021 0.00344431 0)
(1.00309 0.0022179 0)
(1.00339 -0.000546899 0)
(1.00025 0.00516741 0)
(1.00294 0.00317441 0)
(1.00192 0.000448379 0)
(0.999144 0.00531977 0)
(1.00195 0.00573982 0)
(1.00261 0.00363773 0)
(1.00039 0.00764563 0)
(1.00298 0.00889344 0)
(1.00687 0.00640321 0)
(1.00558 0.0067269 0)
(1.00484 0.00856594 0)
(1.00698 0.00718046 0)
(1.0091 0.00524066 0)
(1.00781 0.00522625 0)
(1.00684 0.0061829 0)
(1.00714 0.00576531 0)
(1.00832 0.00501942 0)
(1.00023 0.00304696 0)
(1.00272 0.0025318 0)
(1.00341 -0.000438442 0)
(1.0004 0.0046691 0)
(1.00257 0.00356548 0)
(1.00205 0.000734433 0)
(0.999551 0.00490329 0)
(1.00182 0.00594699 0)
(1.00279 0.00386009 0)
(1.00092 0.00710329 0)
(1.00289 0.00869151 0)
(1.00663 0.00659523 0)
(1.00588 0.00635653 0)
(1.00497 0.00809411 0)
(1.00655 0.00730283 0)
(1.00878 0.00551312 0)
(1.00802 0.00509714 0)
(1.00704 0.00597534 0)
(1.00699 0.00589752 0)
(1.00812 0.00525489 0)
(1.00026 0.00268014 0)
(1.00236 0.0027709 0)
(1.00337 -0.000259018 0)
(1.00058 0.00416576 0)
(1.00225 0.00386772 0)
(1.00211 0.00112689 0)
(0.999962 0.00451684 0)
(1.00174 0.00603542 0)
(1.0029 0.00411489 0)
(1.00143 0.00664667 0)
(1.00288 0.00839859 0)
(1.00635 0.00675921 0)
(1.0061 0.0061087 0)
(1.00517 0.00760445 0)
(1.00623 0.00729688 0)
(1.00842 0.00577708 0)
(1.00813 0.00507611 0)
(1.00727 0.00575471 0)
(1.00693 0.00592495 0)
(1.00792 0.00544706 0)
(1.00028 0.00234713 0)
(1.00201 0.00293368 0)
(1.00329 -1.60093e-05 0)
(1.00077 0.00367959 0)
(1.00197 0.00406274 0)
(1.00213 0.00157939 0)
(1.00036 0.00419232 0)
(1.00171 0.00601778 0)
(1.00297 0.00437255 0)
(1.0019 0.00628026 0)
(1.00293 0.00804292 0)
(1.00608 0.00686827 0)
(1.00624 0.0059631 0)
(1.0054 0.00713807 0)
(1.00601 0.00717806 0)
(1.00805 0.00598823 0)
(1.00815 0.00513663 0)
(1.00751 0.00556635 0)
(1.00696 0.00586518 0)
(1.00773 0.00559602 0)
(1.0003 0.00205025 0)
(1.00169 0.00301945 0)
(1.00316 0.000272698 0)
(1.00096 0.00324375 0)
(1.00175 0.00413601 0)
(1.0021 0.00205392 0)
(1.00072 0.00396348 0)
(1.00173 0.00592387 0)
(1.003 0.0045996 0)
(1.00231 0.00599474 0)
(1.00304 0.007654 0)
(1.00581 0.00691578 0)
(1.00629 0.00589572 0)
(1.00562 0.00673108 0)
(1.00589 0.00697192 0)
(1.00771 0.00612515 0)
(1.00808 0.00523866 0)
(1.00771 0.00543612 0)
(1.00705 0.00574456 0)
(1.00759 0.00568291 0)
(1.00033 0.00178888 0)
(1.00139 0.00303563 0)
(1.003 0.000581492 0)
(1.00114 0.00287748 0)
(1.00158 0.00410219 0)
(1.00204 0.00251302 0)
(1.00104 0.00383926 0)
(1.00179 0.00578921 0)
(1.00301 0.0047817 0)
(1.00266 0.00578624 0)
(1.00319 0.00725904 0)
(1.00559 0.00689658 0)
(1.00627 0.00586945 0)
(1.00582 0.00640045 0)
(1.00585 0.00671389 0)
(1.00741 0.00618218 0)
(1.00796 0.00534544 0)
(1.00784 0.00536581 0)
(1.0072 0.00560536 0)
(1.00751 0.00569859 0)
(1.00035 0.00156297 0)
(1.00113 0.00299072 0)
(1.00281 0.000889762 0)
(1.0013 0.00259192 0)
(1.00148 0.0039922 0)
(1.00197 0.002919 0)
(1.00132 0.00379342 0)
(1.00188 0.00564984 0)
(1.00301 0.0049313 0)
(1.00295 0.00563783 0)
(1.00336 0.00687255 0)
(1.0054 0.00681004 0)
(1.0062 0.00586167 0)
(1.00597 0.00614976 0)
(1.00587 0.0064449 0)
(1.00718 0.00615731 0)
(1.00782 0.00542593 0)
(1.00792 0.00533601 0)
(1.00735 0.00548096 0)
(1.00748 0.0056531 0)
(1.00037 0.00137141 0)
(1.0009 0.00289455 0)
(1.0026 0.00117577 0)
(1.00143 0.00239854 0)
(1.00144 0.0038271 0)
(1.00191 0.00324903 0)
(1.00156 0.00380506 0)
(1.00199 0.00551497 0)
(1.00301 0.00504092 0)
(1.00318 0.00553289 0)
(1.00354 0.00651029 0)
(1.00527 0.00666834 0)
(1.00611 0.00585322 0)
(1.00608 0.00596637 0)
(1.00592 0.006195 0)
(1.007 0.00607448 0)
(1.00767 0.00546523 0)
(1.00795 0.0053219 0)
(1.00748 0.00537573 0)
(1.00751 0.00557093 0)
(1.00038 0.00120908 0)
(1.0007 0.00276538 0)
(1.00239 0.00142573 0)
(1.00153 0.00227469 0)
(1.00143 0.00364524 0)
(1.00187 0.00348407 0)
(1.00176 0.00384656 0)
(1.00211 0.0054056 0)
(1.00302 0.00512283 0)
(1.00336 0.00547231 0)
(1.00373 0.00618087 0)
(1.00518 0.00648157 0)
(1.00602 0.0058163 0)
(1.00615 0.0058285 0)
(1.00599 0.00597013 0)
(1.00688 0.00596327 0)
(1.00753 0.00546425 0)
(1.00794 0.00530325 0)
(1.0076 0.00528237 0)
(1.00756 0.00547219 0)
(1.0004 0.00107133 0)
(1.00054 0.00261251 0)
(1.00218 0.00163343 0)
(1.00161 0.0022143 0)
(1.00146 0.00347074 0)
(1.00185 0.00363702 0)
(1.00193 0.00388257 0)
(1.00224 0.0052993 0)
(1.00303 0.00517581 0)
(1.00349 0.00543381 0)
(1.00389 0.00589423 0)
(1.00514 0.00626357 0)
(1.00593 0.00575271 0)
(1.00618 0.00572378 0)
(1.00605 0.00577708 0)
(1.00679 0.00583736 0)
(1.0074 0.0054364 0)
(1.00791 0.00527402 0)
(1.00769 0.00519253 0)
(1.00764 0.00535983 0)
(1.00041 0.000958 0)
(1.00041 0.00244492 0)
(1.00198 0.00177507 0)
(1.00166 0.00220196 0)
(1.00151 0.00332641 0)
(1.00184 0.00375472 0)
(1.00209 0.00392034 0)
(1.00239 0.00519828 0)
(1.00305 0.00520339 0)
(1.00358 0.00541096 0)
(1.00404 0.00565624 0)
(1.00513 0.00602648 0)
(1.00586 0.00564851 0)
(1.0062 0.00562425 0)
(1.00612 0.00561169 0)
(1.00674 0.00569907 0)
(1.0073 0.00538453 0)
(1.00786 0.00524125 0)
(1.00775 0.00510717 0)
(1.00772 0.00523507 0)
(1.00042 0.000865003 0)
(1.0003 0.00228416 0)
(1.0018 0.00186939 0)
(1.00169 0.0022184 0)
(1.00159 0.00321529 0)
(1.00186 0.00382271 0)
(1.00223 0.00392773 0)
(1.00254 0.00507489 0)
(1.00309 0.00518354 0)
(1.00364 0.00540048 0)
(1.00415 0.00546402 0)
(1.00515 0.0057973 0)
(1.00583 0.00550959 0)
(1.00621 0.00551578 0)
(1.00617 0.00546829 0)
(1.00672 0.0055656 0)
(1.00722 0.00530481 0)
(1.00779 0.00520288 0)
(1.00778 0.00503949 0)
(1.00781 0.00511094 0)
(1.00043 0.000785235 0)
(1.00022 0.00214412 0)
(1.00163 0.0019416 0)
(1.00171 0.00225677 0)
(1.00167 0.00313316 0)
(1.00189 0.00387005 0)
(1.00236 0.00392519 0)
(1.00269 0.00492075 0)
(1.00316 0.0051076 0)
(1.00368 0.005379 0)
(1.00424 0.00531254 0)
(1.00517 0.00558262 0)
(1.00581 0.00534731 0)
(1.00622 0.00538721 0)
(1.00623 0.00532507 0)
(1.0067 0.00544279 0)
(1.00717 0.00520904 0)
(1.00774 0.0051372 0)
(1.00779 0.00498259 0)
(1.00787 0.00499433 0)
(1.00043 0.000718145 0)
(1.00015 0.00202538 0)
(1.00148 0.0020062 0)
(1.00172 0.00231002 0)
(1.00175 0.00305463 0)
(1.00192 0.00389496 0)
(1.00245 0.00391925 0)
(1.00284 0.00475059 0)
(1.00324 0.00498418 0)
(1.00371 0.00532819 0)
(1.00428 0.00519864 0)
(1.00519 0.0053935 0)
(1.00581 0.00517247 0)
(1.00624 0.00523978 0)
(1.00629 0.0051632 0)
(1.0067 0.00530995 0)
(1.00712 0.0051138 0)
(1.0077 0.00504158 0)
(1.00777 0.0049159 0)
(1.0079 0.00489714 0)
(1.00043 0.000666757 0)
(1.0001 0.00191926 0)
(1.00135 0.00205441 0)
(1.00171 0.0023542 0)
(1.00183 0.00296319 0)
(1.00196 0.00387297 0)
(1.00252 0.00390281 0)
(1.00297 0.00458616 0)
(1.00335 0.00481697 0)
(1.00375 0.00524471 0)
(1.0043 0.0051064 0)
(1.00518 0.0052446 0)
(1.0058 0.00500805 0)
(1.00626 0.00509073 0)
(1.00635 0.00499982 0)
(1.00672 0.00515296 0)
(1.00707 0.00502021 0)
(1.00766 0.00494235 0)
(1.00777 0.00482083 0)
(1.0079 0.00481924 0)
(1.00043 0.000628597 0)
(1.00007 0.00181424 0)
(1.00123 0.00206933 0)
(1.00168 0.00239457 0)
(1.00191 0.00288737 0)
(1.00201 0.00383811 0)
(1.00257 0.0039013 0)
(1.00307 0.00446276 0)
(1.00347 0.00463032 0)
(1.0038 0.0051221 0)
(1.00431 0.00500486 0)
(1.00515 0.00511591 0)
(1.00579 0.00484865 0)
(1.00627 0.00493035 0)
(1.0064 0.00483637 0)
(1.00676 0.0049739 0)
(1.00705 0.00489455 0)
(1.00761 0.00484868 0)
(1.00776 0.00469496 0)
(1.00788 0.0047321 0)
(1.00043 0.000595347 0)
(1.00005 0.00172045 0)
(1.00113 0.00206901 0)
(1.00164 0.00244067 0)
(1.00198 0.00281981 0)
(1.00207 0.00377069 0)
(1.0026 0.00388133 0)
(1.00313 0.00436058 0)
(1.00358 0.00444643 0)
(1.00387 0.00495431 0)
(1.00432 0.00489151 0)
(1.0051 0.00500521 0)
(1.00576 0.00471501 0)
(1.00628 0.00476587 0)
(1.00644 0.00467045 0)
(1.0068 0.00479879 0)
(1.00705 0.00472747 0)
(1.00755 0.00474595 0)
(1.00775 0.00456414 0)
(1.00787 0.00460933 0)
(1.00043 0.000569863 0)
(1.00004 0.00163259 0)
(1.00104 0.00204908 0)
(1.00158 0.00247266 0)
(1.00203 0.00276472 0)
(1.00214 0.00368515 0)
(1.00263 0.0038444 0)
(1.00317 0.00427872 0)
(1.00366 0.0042856 0)
(1.00395 0.00475155 0)
(1.00434 0.0047404 0)
(1.00505 0.00488384 0)
(1.00569 0.00459617 0)
(1.00626 0.00461207 0)
(1.00647 0.00449112 0)
(1.00682 0.0046259 0)
(1.00707 0.00454197 0)
(1.0075 0.00461023 0)
(1.00771 0.00444662 0)
(1.00786 0.0044601 0)
(1.00042 0.00054888 0)
(1.00003 0.00155561 0)
(1.00098 0.00200789 0)
(1.00153 0.00248989 0)
(1.00207 0.00271663 0)
(1.0022 0.00358972 0)
(1.00266 0.0037842 0)
(1.00319 0.00420706 0)