/*--------------------------------*- C++ -*----------------------------------*\
| =========                 |                                                 |
| \\      /  F ield         | OpenFOAM: The Open Source CFD Toolbox           |
|  \\    /   O peration     | Version:  v1906                                 |
|   \\  /    A nd           | Web:      www.OpenFOAM.com                      |
|    \\/     M anipulation  |                                                 |
\*---------------------------------------------------------------------------*/
FoamFile
{
    version     2.0;
    format      ascii;
    class       volScalarField;
    location    "1.9";
    object      p;
}
// * * * * * * * * * * * * * * * * * * * * * * * * * * * * * * * * * * * * * //

dimensions      [0 2 -2 0 0 0 0];


internalField   nonuniform List<scalar> 
9600
(
-5.67527e-11
0.00153906
0.00211468
0.00134342
-0.000368813
0.000556194
0.00104804
0.000756728
0.00129601
0.00125153
0.00079653
0.000100528
0.000288943
0.000429658
-0.000670997
0.000125261
-0.000905642
0.00134687
0.00218313
0.00408666
1.64774e-06
0.0015398
0.00210955
0.001339
-0.000355554
0.000560886
0.00104012
0.000755878
0.00129163
0.00124109
0.000820428
9.1777e-05
0.000309207
0.000419497
-0.000657502
0.000113099
-0.000822427
0.00130183
0.00220521
0.00389623
4.26765e-06
0.00154009
0.00210332
0.00133535
-0.000341369
0.000562404
0.00103162
0.000754808
0.00128127
0.00123323
0.000835968
7.96445e-05
0.000328315
0.000406106
-0.000633224
9.15201e-05
-0.000735219
0.00123485
0.0022206
0.00364451
7.94907e-06
0.00154104
0.00209632
0.00133194
-0.000327125
0.000561034
0.0010262
0.000753575
0.00126791
0.00122865
0.000845681
6.43903e-05
0.000347099
0.000392284
-0.000601963
6.49388e-05
-0.000657104
0.00116621
0.00221467
0.00339912
1.33979e-05
0.00154261
0.00208728
0.00132883
-0.00031108
0.000557101
0.00102431
0.0007517
0.00125233
0.00122606
0.000852658
4.75298e-05
0.000367555
0.000378366
-0.000565932
3.44103e-05
-0.00057975
0.00110003
0.00218508
0.00317099
2.0867e-05
0.00154407
0.00207608
0.00132648
-0.000292575
0.000551468
0.00102594
0.000749039
0.00123563
0.0012249
0.00085889
3.03746e-05
0.000389389
0.000364208
-0.000527036
3.03078e-06
-0.000502984
0.00103662
0.00213357
0.00296304
3.01173e-05
0.001545
0.00206332
0.00132487
-0.000271641
0.000545566
0.00103117
0.000746155
0.00121889
0.00122435
0.000865512
1.32763e-05
0.000411968
0.000350152
-0.000486851
-2.55165e-05
-0.000431112
0.000976296
0.00206456
0.00277132
4.07316e-05
0.00154539
0.0020496
0.00132373
-0.000248479
0.000540658
0.00103977
0.000743689
0.00120238
0.00122362
0.0008731
-3.82975e-06
0.000435084
0.000336484
-0.000446369
-4.90032e-05
-0.000367422
0.000922631
0.00198137
0.00258864
5.23196e-05
0.00154535
0.00203541
0.00132284
-0.000223326
0.000537317
0.00105113
0.000741948
0.00118597
0.0012222
0.000881766
-2.10013e-05
0.000458446
0.000323609
-0.000406331
-6.66247e-05
-0.000312947
0.000878465
0.00188417
0.00240877
6.46071e-05
0.00154502
0.00202107
0.00132203
-0.000196449
0.000535515
0.00106446
0.000740954
0.00116956
0.00121984
0.000891373
-3.82561e-05
0.000481724
0.000312256
-0.000368204
-7.76799e-05
-0.00026802
0.00084379
0.00177338
0.00222835
7.74483e-05
0.00154452
0.0020067
0.00132117
-0.000168081
0.000534906
0.00107901
0.000740582
0.00115314
0.0012165
0.000901658
-5.55017e-05
0.000504561
0.000303308
-0.000333629
-8.13697e-05
-0.000233434
0.000816445
0.00165223
0.00204519
9.07902e-05
0.00154391
0.00199236
0.0013201
-0.000138412
0.000535107
0.0010942
0.000740665
0.00113681
0.00121222
0.000912276
-7.24793e-05
0.000526442
0.000297647
-0.000303799
-7.76565e-05
-0.000212225
0.000793931
0.00152577
0.00185674
0.000104628
0.00154318
0.00197806
0.00131874
-0.000107598
0.000535799
0.00110962
0.000741057
0.00112067
0.00120715
0.000922858
-8.88203e-05
0.000546708
0.000296151
-0.000279674
-6.69539e-05
-0.000228942
0.000772716
0.00139915
0.00166113
0.00011898
0.00154231
0.00196385
0.00131698
-7.5711e-05
0.000536768
0.00112499
0.000741654
0.00110479
0.00120151
0.000933033
-0.000104093
0.000564596
0.000299715
-0.000262065
-4.94643e-05
-0.000236625
0.000747603
0.00127691
0.00145837
0.000133875
0.00154126
0.00194976
0.0013148
-4.27542e-05
0.0005379
0.00114013
0.000742418
0.00108919
0.00119561
0.000942382
-0.000117751
0.000579374
0.000308935
-0.000251604
-2.64327e-05
-0.000246589
0.000713433
0.00116257
0.00125046
0.000149349
0.00153996
0.00193588
0.00131215
-8.7341e-06
0.00053914
0.0011549
0.00074338
0.00107383
0.00118977
0.000950428
-0.000129187
0.00059037
0.000324076
-0.00024825
-2.22975e-07
-0.000258261
0.000666329
0.0010578
0.00104107
0.000165448
0.00153838
0.00192226
0.00130901
2.63382e-05
0.000540501
0.00116923
0.000744627
0.00105858
0.00118438
0.000956728
-0.000137984
0.000597019
0.000345236
-0.00025124
2.63963e-05
-0.000269924
0.00060364
0.000962132
0.000834981
0.000182224
0.00153642
0.001909
0.00130537
6.24433e-05
0.000542029
0.00118301
0.0007463
0.0010432
0.00117987
0.000960929
-0.000143928
0.000598963
0.000372137
-0.000259359
5.04021e-05
-0.000279677
0.000524216
0.000873695
0.00063733
0.000199736
0.00153402
0.00189616
0.00130124
9.95388e-05
0.000543809
0.0011961
0.000748601
0.0010274
0.0011766
0.000962763
-0.000146903
0.000596079
0.000403948
-0.000270905
6.8528e-05
-0.000285747
0.000429426
0.000789509
0.000453096
0.000218047
0.00153109
0.00188381
0.00129665
0.000137538
0.00054594
0.00120837
0.000751785
0.00101085
0.00117483
0.000962092
-0.000147064
0.000588792
0.00043933
-0.000284245
7.79851e-05
-0.000287388
0.00032242
0.000706098
0.000286843
0.00023722
0.00152754
0.00187201
0.00129164
0.000176343
0.000548562
0.00121959
0.000756118
0.000993306
0.00117476
0.000958964
-0.000144881
0.000577857
0.000476804
-0.000297843
7.69299e-05
-0.00028483
0.000206673
0.00061972
0.000142113
0.000257325
0.00152329
0.0018608
0.00128628
0.000215858
0.000551916
0.00122945
0.000761886
0.000974542
0.00117642
0.000953781
-0.000141082
0.000563983
0.00051508
-0.000310702
6.43435e-05
-0.000278896
8.56822e-05
0.000526618
2.06443e-05
0.000278429
0.00151829
0.00185019
0.00128067
0.000255902
0.000556277
0.00123769
0.00076933
0.000954458
0.00117967
0.000947321
-0.000136533
0.000547752
0.000553115
-0.000322316
4.0001e-05
-0.000270112
-3.69128e-05
0.000423737
-7.79899e-05
0.0003006
0.00151249
0.00184014
0.00127497
0.000296209
0.000561868
0.0012441
0.000778606
0.000933106
0.00118411
0.000940546
-0.000132029
0.000529424
0.000590013
-0.000331912
3.89909e-06
-0.000260267
-0.000157357
0.000309687
-0.000156146
0.000323912
0.00150586
0.00183058
0.0012694
0.000336536
0.00056891
0.00124852
0.000789792
0.000910772
0.00118889
0.000934332
-0.000128123
0.000508998
0.000625024
-0.00033909
-4.37223e-05
-0.000251066
-0.000271855
0.000184687
-0.000217293
0.000348414
0.00149839
0.00182141
0.00126421
0.00037668
0.000577638
0.00125085
0.000802801
0.000887859
0.00119296
0.000929293
-0.000125045
0.000486406
0.000657487
-0.000343822
-0.0001023
-0.000243662
-0.000376819
4.90758e-05
-0.000265511
0.000374124
0.00149016
0.0018125
0.0012596
0.000416446
0.000588231
0.00125116
0.000817402
0.000864766
0.00119558
0.000925899
-0.000122887
0.000461368
0.000686972
-0.000345947
-0.000171349
-0.00023919
-0.000468349
-9.7269e-05
-0.000306611
0.000401054
0.00148127
0.00180369
0.00125575
0.000455634
0.00060074
0.00124965
0.000833308
0.000841967
0.00119618
0.000924508
-0.000121624
0.000433194
0.000713127
-0.000344916
-0.000250299
-0.00023956
-0.000541975
-0.000252986
-0.000349763
0.000429219
0.00147193
0.00179475
0.00125284
0.000494159
0.000615033
0.00124671
0.000850219
0.000819843
0.00119442
0.00092525
-0.000121164
0.000400971
0.000735121
-0.000339939
-0.00033769
-0.000247952
-0.000593794
-0.000412507
-0.000406581
0.000458592
0.00146239
0.00178546
0.00125093
0.000532125
0.000630866
0.00124266
0.000867936
0.000798677
0.00119006
0.00092827
-0.000121213
0.000363793
0.000751786
-0.000330292
-0.000430944
-0.000267651
-0.000622622
-0.000565652
-0.000487099
0.0004891
0.00145291
0.00177571
0.00124996
0.000569672
0.000647984
0.00123774
0.000886362
0.000778757
0.00118342
0.000933442
-0.000121053
0.000320829
0.000761936
-0.000315073
-0.000526778
-0.000301281
-0.000631717
-0.000701119
-0.000593995
0.000520664
0.00144372
0.00176554
0.00124978
0.000607011
0.000666246
0.00123215
0.000905549
0.000760261
0.0011748
0.000940235
-0.000119914
0.000271442
0.000764326
-0.000293114
-0.000621672
-0.000350493
-0.000627712
-0.000810606
-0.000720139
0.000553184
0.00143503
0.00175511
0.00125003
0.000644482
0.000685671
0.00122581
0.00092562
0.000743307
0.00116341
0.000948027
-0.000116949
0.000215373
0.000757657
-0.000263497
-0.000712481
-0.000415207
-0.000617452
-0.00089103
-0.00085311
0.000586592
0.00142704
0.00174466
0.00125024
0.000682141
0.000706417
0.00121839
0.000946788
0.000728356
0.00114542
0.000955679
-0.000111256
0.000153111
0.000740897
-0.000225712
-0.000797243
-0.000494247
-0.000606768
-0.000943421
-0.000980913
0.000620855
0.00141992
0.00173462
0.00124992
0.000719668
0.000729058
0.00120935
0.000968968
0.000716353
0.00111675
0.000961124
-0.000102233
8.60683e-05
0.00071329
-0.000180091
-0.000877817
-0.000586003
-0.000600111
-0.000970043
-0.0010942
0.000655993
0.00141364
0.00172555
0.0012489
0.000756409
0.000754405
0.00119853
0.00099138
0.000708322
0.00107983
0.000961671
-8.92301e-05
1.6784e-05
0.000674232
-0.000128227
-0.000931809
-0.000688126
-0.000601651
-0.000973805
-0.00118614
0.000692086
0.00140801
0.00171817
0.0012473
0.000791168
0.000783088
0.00118626
0.00101267
0.000704947
0.00103379
0.000954247
-7.17442e-05
-5.10264e-05
0.00062372
-7.33887e-05
-0.000967588
-0.000797748
-0.000615771
-0.000958548
-0.00125163
0.000729249
0.00140282
0.00171295
0.00124566
0.000822411
0.000815322
0.00117331
0.00103083
0.000706186
0.000981284
0.000937921
-5.00175e-05
-0.000113463
0.000562386
-1.96194e-05
-0.000983499
-0.000910624
-0.000646391
-0.000929606
-0.00128752
0.000767643
0.00139785
0.00171004
0.00124499
0.00084869
0.000850524
0.00116078
0.00104361
0.000711491
0.00092902
0.000912829
-2.50955e-05
-0.000168078
0.000491661
2.90534e-05
-0.000979163
-0.00102123
-0.000696124
-0.000893962
-0.0012931
0.000807463
0.00139289
0.00170944
0.00124674
0.000868932
0.000886896
0.00115007
0.00104974
0.00071993
0.000880022
0.000879851
9.553e-07
-0.000213956
0.000413862
6.80146e-05
-0.00095615
-0.00112343
-0.000765432
-0.000859513
-0.00127016
0.000848954
0.00138787
0.00171064
0.00125269
0.000882759
0.000921506
0.00114262
0.00104913
0.000729264
0.000836743
0.000841785
2.62737e-05
-0.00025127
0.000331214
9.60874e-05
-0.000916913
-0.00121146
-0.000852158
-0.000834225
-0.00122309
0.000892316
0.00138286
0.00171279
0.00126446
0.000890602
0.000951137
0.00113878
0.00104234
0.000736718
0.000801077
0.00080355
5.00396e-05
-0.000281031
0.000245367
0.000112209
-0.000863793
-0.00128048
-0.000951789
-0.000825053
-0.00115896
0.000937678
0.00137801
0.0017151
0.00128321
0.00089397
0.000972912
0.00113795
0.00103006
0.000739908
0.000773896
0.000767822
7.21663e-05
-0.000304205
0.000157714
0.000115256
-0.000799646
-0.00132639
-0.00105812
-0.000836492
-0.00108697
0.000985179
0.00137366
0.0017162
0.0013098
0.000895525
0.000984391
0.00113816
0.00101298
0.000737627
0.000755206
0.000743012
9.39442e-05
-0.000321327
7.42388e-05
0.000104824
-0.000729247
-0.00134601
-0.00116362
-0.000869923
-0.00101714
0.00103479
0.00137046
0.00171442
0.0013443
0.000898848
0.000983706
0.00113631
0.000993398
0.00073019
0.000741527
0.000725581
0.000116917
-0.000332815
-1.04625e-05
8.04641e-05
-0.000658515
-0.00133829
-0.00125966
-0.00092358
-0.000958196
0.00108641
0.00136899
0.00170877
0.00138524
0.000906433
0.000969846
0.00113052
0.000979246
0.000719485
0.000727739
0.000713824
0.000142679
-0.000337582
-9.23378e-05
4.24283e-05
-0.000593208
-0.00130608
-0.00133798
-0.000992643
-0.000916053
0.00113979
0.00137006
0.00169828
0.00142912
0.000919671
0.000944019
0.00112124
0.000974743
0.000708353
0.000708929
0.000703767
0.00017301
-0.000333072
-0.000169247
-7.69583e-06
-0.000538011
-0.00125458
-0.00139284
-0.00107012
-0.000893841
0.00119446
0.00137476
0.00168184
0.00147158
0.000941055
0.000912016
0.00110623
0.000978898
0.000700147
0.000683467
0.000691165
0.000207809
-0.000317425
-0.000237891
-6.68019e-05
-0.000495896
-0.00118995
-0.00142179
-0.00114832
-0.000892155
0.0012499
0.00138389
0.00165989
0.00150879
0.000972573
0.000879283
0.00108033
0.000987144
0.000699142
0.000654312
0.00067249
0.000243577
-0.000290671
-0.000293367
-0.000130253
-0.000467914
-0.00111853
-0.00142486
-0.00121987
-0.000909516
0.00130546
0.00139808
0.00163405
0.00153767
0.0010139
0.000850846
0.00104338
0.00099407
0.000707911
0.000627104
0.000646739
0.000274859
-0.000254055
-0.000333297
-0.000193204
-0.000452735
-0.00104607
-0.00140377
-0.00127761
-0.000943008
0.00136037
0.00141778
0.00160643
0.00155581
0.00106261
0.000831191
0.000996449
0.000994287
0.00072602
0.000607414
0.000614964
0.000297836
-0.000210716
-0.000357817
-0.000251809
-0.00044758
-0.00097675
-0.00136211
-0.00131423
-0.000986528
0.00141386
0.0014431
0.00157944
0.00156183
0.00111455
0.000823905
0.00094332
0.000983511
0.000749999
0.00059904
0.000582139
0.000311442
-0.000166242
-0.00036772
-0.000303331
-0.000449587
-0.000912656
-0.00130579
-0.00132515
-0.00102954
0.0014652
0.00147373
0.00155581
0.00155527
0.00116449
0.000830874
0.000890585
0.000960025
0.000773334
0.000602641
0.000555393
0.000317719
-0.000125217
-0.000365478
-0.000345686
-0.000456186
-0.000854067
-0.00124078
-0.00131148
-0.00106034
0.00151395
0.00150861
0.00153755
0.00153773
0.0012077
0.00085179
0.00084563
0.000924448
0.000788898
0.000616828
0.000539256
0.000320939
-8.75791e-05
-0.000355283
-0.000378477
-0.000465431
-0.00080083
-0.00117049
-0.00127806
-0.00107125
0.00155979
0.00154598
0.00152634
0.00151258
0.00124058
0.000883697
0.000813696
0.000880578
0.000792084
0.000636476
0.000535208
0.000326461
-5.15283e-05
-0.000338972
-0.000403148
-0.000476244
-0.000753208
-0.00109655
-0.00122964
-0.00106072
0.00160255
0.00158355
0.00152322
0.00148418
0.00126114
0.000920967
0.000797163
0.00083615
0.000782488
0.00065324
0.000542327
0.000338382
-1.51681e-05
-0.000315263
-0.000419797
-0.000488406
-0.000711821
-0.00102047
-0.00116911
-0.0010308
0.00164225
0.00161969
0.00152798
0.00145687
0.00126929
0.000957797
0.000796677
0.000798545
0.000761841
0.000661313
0.000556258
0.000358837
2.45786e-05
-0.000283949
-0.000425967
-0.000501137
-0.000678245
-0.000944634
-0.00109843
-0.000984515
0.00167911
0.0016534
0.00153933
0.0014339
0.00126625
0.000991754
0.000809639
0.000772312
0.000735847
0.000659563
0.000569164
0.000386762
7.13246e-05
-0.000244079
-0.000419668
-0.000510671
-0.000653672
-0.000872833
-0.00102015
-0.000925231
0.00171354
0.00168404
0.00155481
0.00141739
0.00125147
0.00101384
0.000829563
0.000759259
0.000712331
0.000649642
0.000576167
0.000416959
0.000124836
-0.00019325
-0.00039995
-0.00051187
-0.000635713
-0.000809117
-0.000937758
-0.000855886
0.00174578
0.00171144
0.00157173
0.00140802
0.00123591
0.00102559
0.000850043
0.000758995
0.000696709
0.000635654
0.00057708
0.000444015
0.00018216
-0.000130512
-0.000364765
-0.000501378
-0.000618632
-0.000755076
-0.000855682
-0.000778827
0.00177593
0.00173566
0.00158806
0.0014053
0.00122187
0.0010276
0.000867019
0.000768571
0.000691867
0.000623974
0.000573146
0.000465734
0.000238281
-5.92762e-05
-0.000312002
-0.000476025
-0.000596561
-0.00070826
-0.000778094
-0.000696324
0.00180391
0.00175703
0.00160254
0.00140727
0.00121129
0.00102297
0.000878059
0.000782463
0.00069748
0.000620181
0.00056746
0.000481634
0.000290415
1.61568e-05
-0.000243785
-0.000432189
-0.000564297
-0.00066301
-0.000706534
-0.000611593
0.00182938
0.00177606
0.00161461
0.0014112
0.00120496
0.00101597
0.000882974
0.000795998
0.000711543
0.000626931
0.000566723
0.000493804
0.000336785
9.19477e-05
-0.000164846
-0.000368978
-0.000516448
-0.000612534
-0.000637999
-0.000527251
0.00185197
0.00179302
0.00162388
0.00141525
0.00120245
0.0010097
0.000882668
0.000806477
0.000730054
0.000643127
0.000576036
0.000507014
0.000377347
0.000165734
-7.91844e-05
-0.000290505
-0.000450137
-0.000551074
-0.000566901
-0.000442308
0.00187097
0.00180777
0.00163096
0.00141722
0.00120227
0.00100562
0.00087928
0.000812789
0.000749119
0.00066676
0.000596121
0.000527869
0.000416647
0.000236266
1.10282e-05
-0.00020031
-0.000366039
-0.000473835
-0.000488096
-0.000354652
0.00188634
0.00181993
0.00163637
0.00141694
0.00120147
0.00100318
0.000875443
0.000815235
0.000766324
0.000695426
0.000625561
0.000559112
0.000460458
0.000305783
0.000104988
-9.9468e-05
-0.000266819
-0.000378909
-0.00039714
-0.000260532
0.00189777
0.00182899
0.00164002
0.00141423
0.00119828
0.00100106
0.000872334
0.000815079
0.000779844
0.000726122
0.000663429
0.000600794
0.000513714
0.000380024
0.000204168
1.29725e-05
-0.000153314
-0.000266483
-0.000289649
-0.000155147
0.00190513
0.00183453
0.0016414
0.00140883
0.00119194
0.000997228
0.00086872
0.000813602
0.000789529
0.00075548
0.000707691
0.000652492
0.000577788
0.00046407
0.00031186
0.0001389
-2.2492e-05
-0.000135185
-0.000161744
-3.30544e-05
0.00190816
0.00183606
0.00163997
0.0014006
0.00118166
0.000989758
0.00086278
0.00081029
0.000796199
0.000781631
0.000754729
0.000713983
0.000654004
0.000561751
0.000433521
0.00028214
0.000131057
2.0114e-05
-8.69824e-06
0.000112126
0.00190678
0.00183303
0.001635
0.00138943
0.00116653
0.000976906
0.000852688
0.000803349
0.00079882
0.000803721
0.000800754
0.000782301
0.000743555
0.000676808
0.000576889
0.000451026
0.00031616
0.000209459
0.000178097
0.000289234
0.00190053
0.00182537
0.00162613
0.00137469
0.00114577
0.000956689
0.000835846
0.000790446
0.000794706
0.000819631
0.000843323
0.000853303
0.00084474
0.000811826
0.000749389
0.000658638
0.000549026
0.00045127
0.000415991
0.000513074
0.00188846
0.00181203
0.00161289
0.001355
0.00111873
0.000928308
0.000808986
0.000767349
0.000780028
0.000824225
0.000878331
0.000923944
0.000955764
0.000968457
0.000956484
0.000917056
0.000851607
0.000781748
0.000749974
0.000823594
0.00187384
0.00179458
0.0015921
0.00132761
0.00108366
0.000891026
0.000769869
0.000728316
0.000746741
0.000807423
0.000895578
0.000988208
0.00107583
0.00115042
0.00120167
0.00122958
0.00123173
0.00122756
0.00124333
0.00133146
0.00185678
0.00177276
0.00156275
0.0012928
0.0010415
0.000843836
0.000716561
0.000669725
0.000685662
0.000751095
0.00086138
0.0010111
0.00119687
0.00140489
0.00159767
0.00173881
0.00180278
0.00180585
0.00180047
0.00183668
0.00183155
0.00174085
0.00152738
0.00125465
0.000996925
0.00079123
0.000654496
0.000590753
0.00059325
0.000648207
0.00074169
0.000851737
0.000995334
0.00127417
0.0017666
0.00240242
0.00303164
0.00353299
0.00385507
0.00403447
0.0017997
0.00169871
0.00147979
0.00120033
0.000936188
0.000733832
0.000601312
0.000531442
0.000513474
0.000549645
0.000701178
0.00104099
0.00153193
0.00205305
0.00251194
0.00289708
0.00322713
0.00351934
0.00377509
0.00389927
0.00176879
0.00167723
0.00144475
0.0011394
0.000831073
0.00057313
0.000392176
0.00032863
0.000445056
0.000754221
0.00117067
0.00158795
0.00197111
0.00235031
0.00274231
0.00316411
0.00360456
0.00401808
0.00433555
0.00447232
0.00169314
0.00158293
0.001393
0.00115523
0.000909336
0.000720682
0.000628102
0.000634633
0.000726821
0.000856895
0.0010043
0.00116619
0.00133989
0.00160296
0.0020277
0.00263448
0.00339121
0.00414757
0.00472951
0.00499765
0.00168378
0.00157404
0.00131426
0.000988225
0.000683361
0.000505483
0.000493079
0.000590597
0.000778028
0.00103529
0.00135331
0.00173863
0.00215277
0.0025739
0.00300473
0.00343257
0.00384811
0.00420915
0.00446557
0.00455017
0.00160426
0.00150287
0.00131796
0.00108413
0.000826485
0.00060126
0.000476401
0.000484291
0.000669377
0.000999529
0.00137522
0.00174834
0.00209171
0.0024028
0.00273608
0.0031145
0.00351786
0.00390068
0.00419996
0.00434059
0.00653696
0.00305266
-0.0033444
-0.00815707
-0.00884857
-0.00723346
-0.00542768
-0.00406245
-0.00303304
-0.00219942
-0.00162163
-0.00130153
-0.00102883
-0.000633898
-0.000180097
0.00022213
0.000577983
0.000888564
0.00114309
0.00143216
0.00180848
0.00218912
0.00252172
0.00284324
0.00318884
0.00356535
0.0039512
0.0043128
0.00464774
0.00498484
0.00533681
0.00568052
0.00600084
0.00632286
0.00667544
0.00704287
0.0074036
0.00777007
0.00816097
0.00855995
0.00894358
0.0093253
0.00972213
0.0101267
0.0105175
0.0109076
0.0113164
0.0117407
0.0121623
0.0125878
0.013038
0.0135015
0.013963
0.0144435
0.0149413
0.0154312
0.0159237
0.0164233
0.016923
0.0174382
0.0179757
0.0185238
0.0190829
0.0196536
0.0202298
0.0208118
0.0214122
0.0220286
0.0226514
0.0232896
0.0239393
0.0246024
0.0252813
0.0259733
0.0266816
0.0274031
0.0281368
0.028885
0.0296425
0.0304249
0.0312183
0.0320282
0.0328533
0.033685
0.0345404
0.0354114
0.036292
0.037207
0.0381215
0.0390558
0.0400141
0.040981
0.0419683
0.0429751
0.0439978
0.0450327
0.0460904
0.0471458
0.0481458
0.0491585
0.00604688
0.0029362
-0.00324595
-0.00801709
-0.00877141
-0.00719773
-0.00540514
-0.00404596
-0.00302027
-0.00218867
-0.0016122
-0.00129362
-0.00102244
-0.000628534
-0.000175339
0.000226366
0.000581821
0.000892114
0.0011462
0.00143481
0.00181093
0.00219149
0.0025239
0.0028452
0.00319061
0.00356697
0.00395273
0.00431426
0.00464908
0.00498606
0.00533797
0.00568164
0.0060019
0.00632383
0.00667636
0.00704376
0.00740446
0.00777087
0.00816172
0.00856069
0.00894429
0.00932596
0.00972276
0.0101273
0.0105181
0.0109081
0.0113169
0.0117412
0.0121627
0.0125882
0.0130384
0.0135019
0.0139634
0.0144439
0.0149417
0.0154316
0.0159241
0.0164236
0.0169233
0.0174385
0.0179759
0.018524
0.0190832
0.0196538
0.02023
0.020812
0.0214124
0.0220288
0.0226516
0.0232898
0.0239395
0.0246026
0.0252815
0.0259735
0.0266818
0.0274033
0.028137
0.0288852
0.0296427
0.0304251
0.0312185
0.0320284
0.0328534
0.0336851
0.0345405
0.0354115
0.0362921
0.0372071
0.0381216
0.0390559
0.0400142
0.0409811
0.0419684
0.0429751
0.0439979
0.0450328
0.0460904
0.0471458
0.0481459
0.0491586
0.00551212
0.00278841
-0.00305394
-0.00774705
-0.00862955
-0.0071454
-0.00538029
-0.00402812
-0.00300582
-0.00217703
-0.00160258
-0.00128523
-0.00101499
-0.000622051
-0.000169913
0.000230789
0.000585607
0.000895563
0.00114922
0.0014374
0.0018133
0.00219369
0.00252589
0.00284703
0.00319229
0.00356851
0.00395418
0.0043156
0.0046503
0.00498718
0.00533903
0.00568265
0.00600283
0.00632468
0.00667717
0.00704455
0.0074052
0.00777157
0.00816239
0.00856135
0.00894492
0.00932655
0.00972332
0.0101278
0.0105186
0.0109086
0.0113174
0.0117417
0.0121632
0.0125886
0.0130388
0.0135023
0.0139637
0.0144442
0.014942
0.0154319
0.0159244
0.0164239
0.0169235
0.0174388
0.0179762
0.0185243
0.0190834
0.019654
0.0202302
0.0208122
0.0214126
0.022029
0.0226518
0.0232899
0.0239396
0.0246028
0.0252816
0.0259736
0.026682
0.0274034
0.0281371
0.0288853
0.0296428
0.0304252
0.0312186
0.0320285
0.0328535
0.0336852
0.0345406
0.0354116
0.0362922
0.0372072
0.0381217
0.0390559
0.0400143
0.0409812
0.0419685
0.0429752
0.043998
0.0450329
0.0460905
0.0471459
0.048146
0.0491587
0.00500111
0.0026512
-0.00279634
-0.00738821
-0.00842336
-0.00706669
-0.00534394
-0.00400232
-0.00298498
-0.00216166
-0.00159146
-0.00127539
-0.00100504
-0.000612705
-0.00016219
0.000236751
0.000590471
0.000900041
0.00115344
0.00144111
0.00181637
0.00219622
0.00252816
0.00284924
0.0031944
0.0035704
0.00395588
0.00431718
0.00465176
0.00498851
0.00534023
0.00568375
0.00600384
0.00632559
0.00667802
0.00704537
0.00740599
0.00777231
0.00816311
0.00856205
0.00894558
0.00932717
0.00972392
0.0101284
0.0105192
0.0109091
0.0113179
0.0117421
0.0121636
0.012589
0.0130392
0.0135027
0.0139641
0.0144446
0.0149423
0.0154322
0.0159247
0.0164242
0.0169238
0.017439
0.0179764
0.0185245
0.0190836
0.0196543
0.0202305
0.0208124
0.0214128
0.0220292
0.022652
0.0232901
0.0239398
0.0246029
0.0252818
0.0259738
0.0266821
0.0274036
0.0281373
0.0288855
0.0296429
0.0304253
0.0312187
0.0320286
0.0328536
0.0336853
0.0345407
0.0354117
0.0362923
0.0372073
0.0381218
0.039056
0.0400144
0.0409813
0.0419686
0.0429753
0.0439981
0.0450329
0.0460906
0.047146
0.0481461
0.049159
0.00451704
0.00251433
-0.00252255
-0.00700006
-0.00818913
-0.00697467
-0.00530151
-0.00397048
-0.00295779
-0.00214193
-0.0015782
-0.00126348
-0.0009918
-0.000599698
-0.000151492
0.000244779
0.000596795
0.000906061
0.00115978
0.00144706
0.00182099
0.00219954
0.00253104
0.00285223
0.00319732
0.00357292
0.00395801
0.00431918
0.00465374
0.00499034
0.0053418
0.00568512
0.00600509
0.00632674
0.00667904
0.00704629
0.00740688
0.00777318
0.00816395
0.00856285
0.00894634
0.00932791
0.00972462
0.0101291
0.0105198
0.0109097
0.0113184
0.0117427
0.0121641
0.0125895
0.0130396
0.0135031
0.0139645
0.0144449
0.0149427
0.0154326
0.015925
0.0164245
0.0169241
0.0174393
0.0179767
0.0185248
0.0190839
0.0196545
0.0202307
0.0208126
0.021413
0.0220294
0.0226522
0.0232903
0.02394
0.0246031
0.025282
0.0259739
0.0266823
0.0274037
0.0281374
0.0288856
0.029643
0.0304254
0.0312188
0.0320287
0.0328538
0.0336854
0.0345408
0.0354118
0.0362924
0.0372074
0.0381219
0.0390561
0.0400145
0.0409814
0.0419687
0.0429754
0.0439981
0.045033
0.0460907
0.0471461
0.0481463
0.0491594
0.00405429
0.00235623
-0.00225976
-0.00660294
-0.00793878
-0.00687575
-0.00525749
-0.00393595
-0.00292653
-0.00211885
-0.00156298
-0.00124975
-0.000975955
-0.000583805
-0.000138367
0.000254566
0.000604372
0.000913529
0.00116843
0.00145575
0.0018277
0.00220411
0.00253486
0.00285628
0.00320133
0.00357623
0.0039606
0.00432159
0.00465632
0.00499284
0.00534391
0.0056869
0.00600678
0.0063283
0.00668032
0.00704736
0.00740791
0.00777423
0.00816492
0.00856374
0.00894723
0.00932881
0.00972548
0.0101299
0.0105205
0.0109104
0.0113191
0.0117433
0.0121647
0.01259
0.0130402
0.0135036
0.013965
0.0144454
0.0149432
0.015433
0.0159254
0.0164249
0.0169245
0.0174397
0.017977
0.0185251
0.0190842
0.0196548
0.020231
0.0208129
0.0214133
0.0220296
0.0226524
0.0232905
0.0239402
0.0246033
0.0252822
0.0259741
0.0266824
0.0274039
0.0281376
0.0288858
0.0296432
0.0304256
0.031219
0.0320288
0.0328539
0.0336855
0.0345409
0.0354119
0.0362925
0.0372075
0.038122
0.0390562
0.0400146
0.0409815
0.0419687
0.0429755
0.0439982
0.0450331
0.0460908
0.0471463
0.0481465
0.0491599
0.00360924
0.00216851
-0.00201479
-0.00619812
-0.00767118
-0.00676907
-0.00521227
-0.00389988
-0.00289226
-0.00209286
-0.0015458
-0.00123455
-0.000958513
-0.000566247
-0.000123838
0.000265359
0.000612645
0.000921941
0.00117892
0.00146683
0.00183649
0.00221015
0.00253992
0.00286161
0.00320658
0.00358043
0.00396364
0.00432436
0.00465944
0.00499599
0.00534656
0.00568918
0.00600907
0.00633048
0.00668205
0.00704868
0.00740918
0.00777552
0.00816605
0.00856471
0.00894823
0.00932992
0.00972654
0.0101308
0.0105214
0.0109113
0.0113199
0.011744
0.0121654
0.0125907
0.0130408
0.0135042
0.0139655
0.0144459
0.0149437
0.0154335
0.0159259
0.0164254
0.0169249
0.01744
0.0179774
0.0185255
0.0190845
0.0196552
0.0202313
0.0208132
0.0214135
0.0220299
0.0226527
0.0232908
0.0239404
0.0246035
0.0252824
0.0259743
0.0266826
0.0274041
0.0281377
0.0288859
0.0296433
0.0304257
0.0312191
0.032029
0.032854
0.0336857
0.0345411
0.035412
0.0362926
0.0372076
0.0381221
0.0390563
0.0400147
0.0409816
0.0419689
0.0429755
0.0439983
0.0450332
0.0460909
0.0471464
0.0481468
0.0491605
0.00318354
0.00195757
-0.00178611
-0.00578394
-0.00738398
-0.00665293
-0.00516596
-0.00386326
-0.00285568
-0.00206407
-0.0015266
-0.00121811
-0.000940048
-0.000547667
-0.000108416
0.000276807
0.000621353
0.000930885
0.00119049
0.00147949
0.00184684
0.00221751
0.00254622
0.00286823
0.00321302
0.00358548
0.00396714
0.00432744
0.00466297
0.0049996
0.00534959
0.00569187
0.00601196
0.0063334
0.00668436
0.00705038
0.00741079
0.00777714
0.00816738
0.00856574
0.00894934
0.00933121
0.00972778
0.0101319
0.0105225
0.0109124
0.011321
0.0117449
0.0121662
0.0125915
0.0130415
0.0135048
0.0139661
0.0144466
0.0149443
0.0154341
0.0159265
0.0164259
0.0169254
0.0174405
0.0179779
0.0185259
0.019085
0.0196556
0.0202317
0.0208135
0.0214139
0.0220302
0.022653
0.023291
0.0239407
0.0246038
0.0252826
0.0259745
0.0266828
0.0274043
0.028138
0.0288861
0.0296435
0.0304259
0.0312193
0.0320292
0.0328542
0.0336858
0.0345412
0.0354122
0.0362927
0.0372078
0.0381222
0.0390564
0.0400148
0.0409817
0.041969
0.0429757
0.0439985
0.0450333
0.046091
0.0471466
0.0481472
0.0491614
0.00278435
0.00173377
-0.00157487
-0.00536382
-0.00707779
-0.00652683
-0.00511908
-0.00382713
-0.00281727
-0.00203247
-0.00150528
-0.00120047
-0.000920724
-0.000528229
-9.21784e-05
0.000288934
0.000630567
0.000940265
0.00120267
0.00149303
0.00185818
0.00222584
0.00255353
0.00287593
0.00322048
0.00359129
0.0039711
0.00433082
0.0046668
0.00500348
0.00535281
0.00569477
0.00601533
0.00633699
0.00668731
0.00705257
0.00741284
0.00777919
0.00816899
0.00856689
0.00895052
0.00933263
0.00972916
0.0101331
0.0105238
0.0109138
0.0113223
0.011746
0.0121673
0.0125925
0.0130423
0.0135056
0.0139669
0.0144473
0.014945
0.0154348
0.0159272
0.0164266
0.016926
0.0174411
0.0179784
0.0185264
0.0190855
0.0196561
0.0202321
0.020814
0.0214143
0.0220306
0.0226533
0.0232914
0.023941
0.0246041
0.0252829
0.0259748
0.0266831
0.0274045
0.0281382
0.0288864
0.0296437
0.0304261
0.0312195
0.0320293
0.0328544
0.033686
0.0345414
0.0354124
0.0362929
0.0372079
0.0381224
0.0390566
0.0400149
0.0409818
0.0419691
0.0429758
0.0439986
0.0450334
0.0460911
0.0471469
0.0481476
0.0491624
0.00241891
0.00150471
-0.00138662
-0.00494446
-0.00675408
-0.00638952
-0.00507121
-0.00379189
-0.00277733
-0.0019979
-0.0014816
-0.0011815
-0.000900504
-0.000507914
-7.50736e-05
0.000301836
0.000640404
0.000950124
0.00121534
0.00150719
0.0018702
0.00223488
0.00256159
0.00288442
0.00322869
0.00359771
0.00397548
0.00433451
0.00467091
0.00500756
0.00535609
0.00569773
0.00601895
0.00634108
0.00669079
0.00705524
0.00741535
0.00778167
0.00817092
0.0085682
0.00895181
0.00933417
0.00973062
0.0101344
0.0105252
0.0109154
0.0113238
0.0117474
0.0121686
0.0125938
0.0130434
0.0135064
0.0139677
0.0144481
0.0149458
0.0154356
0.015928
0.0164274
0.0169267
0.0174417
0.017979
0.018527
0.0190861
0.0196566
0.0202327
0.0208145
0.0214148
0.022031
0.0226538
0.0232918
0.0239414
0.0246045
0.0252833
0.0259751
0.0266834
0.0274048
0.0281385
0.0288866
0.029644
0.0304264
0.0312198