/*--------------------------------*- C++ -*----------------------------------*\
| =========                 |                                                 |
| \\      /  F ield         | OpenFOAM: The Open Source CFD Toolbox           |
|  \\    /   O peration     | Version:  v1812                                 |
|   \\  /    A nd           | Web:      www.OpenFOAM.com                      |
|    \\/     M anipulation  |                                                 |
\*---------------------------------------------------------------------------*/
FoamFile
{
    version     2.0;
    format      ascii;
    class       surfaceScalarField;
    location    "1.9";
    object      phi;
}
// * * * * * * * * * * * * * * * * * * * * * * * * * * * * * * * * * * * * * //

dimensions      [0 3 -1 0 0 0 0];
oriented        oriented;


internalField   nonuniform List<scalar> 
19000
(
1.1801e-06
-2.6987e-07
1.17129e-06
4.2911e-07
1.14855e-06
-8.95434e-08
1.15212e-06
-2.74458e-07
1.21465e-06
-4.19382e-07
1.20819e-06
-1.87319e-07
1.17819e-06
2.28773e-07
1.17651e-06
6.35256e-07
1.15907e-06
3.2136e-07
1.14307e-06
-9.61513e-08
1.17176e-06
-4.55328e-08
1.15198e-06
-5.81767e-07
1.18258e-06
-1.06952e-07
1.1587e-06
-3.74934e-07
1.17995e-06
-2.29388e-07
1.16806e-06
-1.10258e-07
1.17495e-06
-3.25247e-08
1.1663e-06
1.01684e-07
1.16084e-06
1.80373e-07
1.92064e-07
1.13438e-06
1.2366e-06
-2.8221e-07
1.23193e-06
4.33778e-07
1.20649e-06
-6.41017e-08
1.20968e-06
-2.77646e-07
1.2727e-06
-4.82405e-07
1.26703e-06
-1.81648e-07
1.2333e-06
2.62506e-07
1.23882e-06
6.2973e-07
1.21583e-06
3.44352e-07
1.20449e-06
-8.481e-08
1.22465e-06
-6.5689e-08
1.20943e-06
-5.66544e-07
1.23192e-06
-1.2945e-07
1.21965e-06
-3.62659e-07
1.22998e-06
-2.39723e-07
1.23475e-06
-1.15019e-07
1.22124e-06
-1.90233e-08
1.23724e-06
8.56915e-08
1.20167e-06
2.15935e-07
1.76617e-07
1.21712e-06
1.29387e-06
-2.93298e-07
1.29644e-06
4.31213e-07
1.26772e-06
-3.53886e-08
1.27142e-06
-2.81339e-07
1.32954e-06
-5.4053e-07
1.33064e-06
-1.82752e-07
1.29283e-06
3.00326e-07
1.30202e-06
6.20531e-07
1.27798e-06
3.68392e-07
1.27048e-06
-7.73065e-08
1.28137e-06
-7.65745e-08
1.27347e-06
-5.58646e-07
1.28688e-06
-1.42864e-07
1.2876e-06
-3.63382e-07
1.28647e-06
-2.38589e-07
1.29909e-06
-1.27641e-07
1.28205e-06
-1.97946e-09
1.29186e-06
7.58772e-08
1.27288e-06
2.34918e-07
1.88128e-07
1.26137e-06
1.35236e-06
-3.01558e-07
1.36147e-06
4.22107e-07
1.33123e-06
-5.1527e-09
1.33542e-06
-2.8553e-07
1.38418e-06
-5.89287e-07
1.3938e-06
-1.92367e-07
1.35782e-06
3.36299e-07
1.36504e-06
6.1332e-07
1.34487e-06
3.88558e-07
1.33822e-06
-7.06535e-08
1.3421e-06
-8.0459e-08
1.33846e-06
-5.55009e-07
1.34717e-06
-1.51571e-07
1.35333e-06
-3.69542e-07
1.34954e-06
-2.34796e-07
1.36016e-06
-1.38266e-07
1.35093e-06
7.24965e-09
1.35069e-06
7.61195e-08
1.34453e-06
2.41081e-07
2.05523e-07
1.32713e-06
1.41292e-06
-3.0612e-07
1.42585e-06
4.09171e-07
1.39746e-06
2.32339e-08
1.4009e-06
-2.88961e-07
1.43757e-06
-6.25965e-07
1.45374e-06
-2.08532e-07
1.427e-06
3.63035e-07
1.42959e-06
6.10735e-07
1.4151e-06
4.03042e-07
1.4078e-06
-6.33484e-08
1.40717e-06
-7.98307e-08
1.404e-06
-5.5184e-07
1.41069e-06
-1.58261e-07
1.41693e-06
-3.75778e-07
1.41453e-06
-2.32394e-07
1.42192e-06
-1.45661e-07
1.41888e-06
1.02895e-08
1.4157e-06
7.93054e-08
1.41393e-06
2.42849e-07
2.20985e-07
1.39847e-06
1.47671e-06
-3.07152e-07
1.49039e-06
3.95493e-07
1.46733e-06
4.62939e-08
1.4685e-06
-2.90138e-07
1.49244e-06
-6.49898e-07
1.51138e-06
-2.27479e-07
1.49745e-06
3.76968e-07
1.49696e-06
6.11228e-07
1.48732e-06
4.1268e-07
1.47977e-06
-5.57967e-08
1.47649e-06
-7.65479e-08
1.47173e-06
-5.47084e-07
1.47673e-06
-1.63262e-07
1.48108e-06
-3.80128e-07
1.47981e-06
-2.31127e-07
1.48503e-06
-1.50873e-07
1.48512e-06
1.01904e-08
1.482e-06
8.24328e-08
1.48328e-06
2.41566e-07
2.34459e-07
1.46981e-06
1.54464e-06
-3.05576e-07
1.55704e-06
3.8309e-07
1.54122e-06
6.21125e-08
1.53954e-06
-2.88456e-07
1.55161e-06
-6.61969e-07
1.56964e-06
-2.45506e-07
1.56713e-06
3.79474e-07
1.56692e-06
6.11445e-07
1.56104e-06
4.18553e-07
1.55425e-06
-4.90029e-08
1.54971e-06
-7.2008e-08
1.54287e-06
-5.40247e-07
1.54596e-06
-1.66349e-07
1.54777e-06
-3.81938e-07
1.5466e-06
-2.29952e-07
1.54986e-06
-1.54143e-07
1.55181e-06
8.24933e-09
1.54872e-06
8.55189e-08
1.55298e-06
2.37303e-07
2.4598e-07
1.54146e-06
1.61701e-06
-3.02453e-07
1.6276e-06
3.72495e-07
1.61887e-06
7.0847e-08
1.61484e-06
-2.84427e-07
1.61685e-06
-6.63978e-07
1.63131e-06
-2.5997e-07
1.63629e-06
3.74498e-07
1.63896e-06
6.08775e-07
1.63653e-06
4.20984e-07
1.63124e-06
-4.37154e-08
1.62643e-06
-6.72026e-08
1.61779e-06
-5.316e-07
1.61907e-06
-1.67638e-07
1.61805e-06
-3.80916e-07
1.61637e-06
-2.28268e-07
1.61732e-06
-1.55097e-07
1.62055e-06
5.02141e-09
1.61705e-06
8.90207e-08
1.62366e-06
2.3069e-07
2.55288e-07
1.61435e-06
1.69365e-06
-2.98533e-07
1.70288e-06
3.63271e-07
1.69968e-06
7.40416e-08
1.69441e-06
-2.79156e-07
1.6886e-06
-6.58161e-07
1.69824e-06
-2.69612e-07
1.70682e-06
3.6592e-07
1.71334e-06
6.02251e-07
1.71433e-06
4.19997e-07
1.71084e-06
-4.02265e-08
1.70638e-06
-6.27415e-08
1.69635e-06
-5.21572e-07
1.6963e-06
-1.67592e-07
1.69242e-06
-3.77031e-07
1.69008e-06
-2.25929e-07
1.68832e-06
-1.53333e-07
1.69236e-06
9.80345e-10
1.68819e-06
9.31906e-08
1.69626e-06
2.22617e-07
2.62229e-07
1.68932e-06
1.77437e-06
-2.94182e-07
1.78288e-06
3.54759e-07
1.78332e-06
7.36031e-08
1.77785e-06
-2.73689e-07
1.76651e-06
-6.46815e-07
1.77134e-06
-2.74443e-07
1.78093e-06
3.56326e-07
1.79101e-06
5.92175e-07
1.79513e-06
4.1588e-07
1.7933e-06
-3.83996e-08
1.78949e-06
-5.89317e-08
1.7784e-06
-5.10479e-07
1.77761e-06
-1.66801e-07
1.77106e-06
-3.70489e-07
1.76822e-06
-2.23085e-07
1.76358e-06
-1.48698e-07
1.76798e-06
-3.41258e-09
1.76307e-06
9.80939e-08
1.77169e-06
2.14e-07
2.66724e-07
1.76719e-06
1.85909e-06
-2.89526e-07
1.86734e-06
3.46508e-07
1.86981e-06
7.11362e-08
1.8648e-06
-2.68679e-07
1.84994e-06
-6.31956e-07
1.85084e-06
-2.75344e-07
1.86018e-06
3.46985e-07
1.87296e-06
5.79403e-07
1.87958e-06
4.09253e-07
1.87899e-06
-3.7804e-08
1.87592e-06
-5.58619e-08
1.86392e-06
-4.9848e-07
1.86292e-06
-1.65804e-07
1.85406e-06
-3.61629e-07
1.85103e-06
-2.2005e-07
1.84368e-06
-1.41348e-07
1.84804e-06
-7.77474e-09
1.84252e-06
1.03618e-07
1.85078e-06
2.05731e-07
2.68693e-07
1.84882e-06
1.94792e-06
-2.84609e-07
1.95613e-06
3.383e-07
1.95952e-06
6.77488e-08
1.9552e-06
-2.64364e-07
1.93834e-06
-6.15089e-07
1.93653e-06
-2.73539e-07
1.94523e-06
3.38287e-07
1.95981e-06
5.64823e-07
1.96821e-06
4.00848e-07
1.96832e-06
-3.79092e-08
1.96595e-06
-5.34923e-08
1.95308e-06
-4.85611e-07
1.95229e-06
-1.65012e-07
1.94146e-06
-3.50803e-07
1.93859e-06
-2.1718e-07
1.92895e-06
-1.31705e-07
1.933e-06
-1.18235e-08
1.92717e-06
1.09445e-07
1.93426e-06
1.98643e-07
2.68039e-07
1.93491e-06
2.04103e-06
-2.79454e-07
2.04932e-06
3.30016e-07
2.05295e-06
6.41185e-08
2.0493e-06
-2.60712e-07
2.03137e-06
-5.97163e-07
2.02799e-06
-2.70159e-07
2.0361e-06
3.30179e-07
2.0518e-06
5.49118e-07
2.06137e-06
3.91283e-07
2.0617e-06
-3.82429e-08
2.05995e-06
-5.17424e-08
2.04617e-06
-4.71833e-07
2.04585e-06
-1.64688e-07
2.03335e-06
-3.38307e-07
2.03093e-06
-2.14758e-07
2.01958e-06
-1.20361e-07
2.02309e-06
-1.53278e-08
2.01747e-06
1.15067e-07
2.02278e-06
1.93328e-07
2.6482e-07
2.026e-06
2.13862e-06
-2.74076e-07
2.1471e-06
3.21543e-07
2.15059e-06
6.06242e-08
2.14745e-06
-2.57568e-07
2.12895e-06
-5.78661e-07
2.12482e-06
-2.66033e-07
2.13255e-06
3.22455e-07
2.14894e-06
5.32726e-07
2.15926e-06
3.80963e-07
2.15947e-06
-3.84563e-08
2.15828e-06
-5.05536e-08
2.14353e-06
-4.5708e-07
2.14381e-06
-1.64969e-07
2.12987e-06
-3.24365e-07
2.12803e-06
-2.12915e-07
2.11563e-06
-1.07965e-07
2.11837e-06
-1.80662e-08
2.11356e-06
1.19874e-07
2.11686e-06
1.90028e-07
2.59335e-07
2.12235e-06
2.24089e-06
-2.68477e-07
2.24968e-06
3.12757e-07
2.25284e-06
5.74575e-08
2.25005e-06
-2.54774e-07
2.23116e-06
-5.59776e-07
2.22679e-06
-2.61661e-07
2.23436e-06
3.14889e-07
2.25119e-06
5.15894e-07
2.26206e-06
3.70096e-07
2.26191e-06
-3.83142e-08
2.26127e-06
-4.99123e-08
2.24549e-06
-4.41301e-07
2.24642e-06
-1.65893e-07
2.23122e-06
-3.09169e-07
2.2299e-06
-2.11597e-07
2.2171e-06
-9.51667e-08
2.21879e-06
-1.97566e-08
2.2154e-06
1.23273e-07
2.21682e-06
1.88606e-07
2.52153e-07
2.224e-06
2.34805e-06
-2.62648e-07
2.35725e-06
3.03552e-07
2.36001e-06
5.47014e-08
2.35744e-06
-2.52212e-07
2.33822e-06
-5.40551e-07
2.33384e-06
-2.57286e-07
2.34144e-06
3.07294e-07
2.35856e-06
4.9877e-07
2.36991e-06
3.58749e-07
2.36926e-06
-3.76598e-08
2.36918e-06
-4.98408e-08
2.35237e-06
-4.24488e-07
2.3539e-06
-1.67419e-07
2.33766e-06
-2.92932e-07
2.33664e-06
-2.10574e-07
2.32403e-06
-8.2562e-08
2.32434e-06
-2.00656e-08
2.3228e-06
1.24815e-07
2.32273e-06
1.88678e-07
2.43984e-07
2.3309e-06
2.46032e-06
-2.56573e-07
2.47002e-06
2.93853e-07
2.47234e-06
5.23795e-08
2.46994e-06
-2.49811e-07
2.45038e-06
-5.20992e-07
2.44608e-06
-2.52983e-07
2.45384e-06
2.99535e-07
2.47113e-06
4.81471e-07
2.48298e-06
3.46904e-07
2.48171e-06
-3.63885e-08
2.48224e-06
-5.03721e-08
2.46446e-06
-4.06704e-07
2.46647e-06
-1.69437e-07
2.44946e-06
-2.75915e-07
2.44839e-06
-2.09506e-07
2.43649e-06
-7.0667e-08
2.43512e-06
-1.86925e-08
2.43561e-06
1.24324e-07
2.43456e-06
1.8973e-07
2.35532e-07
2.44301e-06
2.57796e-06
-2.50238e-07
2.58819e-06
2.83619e-07
2.59009e-06
5.04861e-08
2.5878e-06
-2.47526e-07
2.56793e-06
-5.01115e-07
2.56368e-06
-2.48733e-07
2.5717e-06
2.91515e-07
2.58905e-06
4.64119e-07
2.60145e-06
3.34497e-07
2.5995e-06
-3.44376e-08
2.60065e-06
-5.15153e-08
2.58203e-06
-3.88086e-07
2.58435e-06
-1.71755e-07
2.56689e-06
-2.58459e-07
2.56536e-06
-2.07978e-07
2.55459e-06
-5.98937e-08
2.55141e-06
-1.55068e-08
2.55373e-06
1.21995e-07
2.55233e-06
1.91136e-07
2.27433e-07
2.56043e-06
2.70123e-06
-2.43635e-07
2.71201e-06
2.72836e-07
2.7135e-06
4.89999e-08
2.71129e-06
-2.45316e-07
2.69114e-06
-4.80972e-07
2.68688e-06
-2.44472e-07
2.69524e-06
2.83155e-07
2.71251e-06
4.46851e-07
2.72555e-06
3.21458e-07
2.7229e-06
-3.17901e-08
2.72461e-06
-5.32225e-08
2.70538e-06
-3.68853e-07
2.70774e-06
-1.74119e-07
2.69022e-06
-2.4094e-07
2.68782e-06
-2.05582e-07
2.67846e-06
-5.05297e-08
2.67354e-06
-1.05853e-08
2.67721e-06
1.18322e-07
2.67611e-06
1.92237e-07
2.20185e-07
2.68336e-06
2.83039e-06
-2.36761e-07
2.84172e-06
2.61508e-07
2.84283e-06
4.78877e-08
2.84065e-06
-2.43128e-07
2.82032e-06
-4.60647e-07
2.81596e-06
-2.40108e-07
2.82474e-06
2.74372e-07
2.84178e-06
4.29808e-07
2.85551e-06
3.07733e-07
2.8522e-06
-2.84787e-08
2.85435e-06
-5.53748e-08
2.83478e-06
-3.49285e-07
2.83688e-06
-1.76221e-07
2.81968e-06
-2.23737e-07
2.81607e-06
-2.01974e-07
2.80825e-06
-4.27069e-08
2.80185e-06
-4.18002e-09
2.80627e-06
1.13893e-07
2.80602e-06
1.92491e-07
2.14061e-07
2.81214e-06
2.96575e-06
-2.29618e-07
2.9776e-06
2.49656e-07
2.97839e-06
4.71019e-08
2.97615e-06
-2.40888e-07
2.95576e-06
-4.40257e-07
2.95118e-06
-2.35532e-07
2.96049e-06
2.65069e-07
2.97717e-06
4.13121e-07
2.9916e-06
2.9331e-07
2.98771e-06
-2.45951e-08
2.99012e-06
-5.77763e-08
2.97054e-06
-3.29707e-07
2.97206e-06
-1.77741e-07
2.95549e-06
-2.07168e-07
2.95047e-06
-1.96955e-07
2.94413e-06
-3.63717e-08
2.93662e-06
3.32926e-09
2.94127e-06
1.09245e-07
2.94221e-06
1.91554e-07
2.0909e-07
2.94718e-06
3.1076e-06
-2.22214e-07
3.11994e-06
2.37316e-07
3.12047e-06
4.65765e-08
3.11808e-06
-2.38502e-07
3.09776e-06
-4.19937e-07
3.09286e-06
-2.30627e-07
3.10278e-06
2.55147e-07
3.11902e-06
3.96882e-07
3.13409e-06
2.78234e-07
3.12979e-06
-2.02927e-08
3.13218e-06
-6.017e-08
3.11293e-06
-3.10452e-07
3.11357e-06
-1.78385e-07
3.09786e-06
-1.91453e-07
3.09137e-06
-1.90468e-07
3.08633e-06
-3.13294e-08
3.07814e-06
1.15211e-08
3.0826e-06
1.04776e-07
3.08488e-06
1.89277e-07
2.05104e-07
3.08887e-06
3.25626e-06
-2.1456e-07
3.26903e-06
2.24544e-07
3.26938e-06
4.62242e-08
3.26674e-06
-2.3586e-07
3.24664e-06
-3.99842e-07
3.24128e-06
-2.25267e-07
3.25191e-06
2.44522e-07
3.26766e-06
3.81133e-07
3.28328e-06
2.62615e-07
3.27876e-06
-1.57785e-08
3.28086e-06
-6.22728e-08
3.26223e-06
-2.91813e-07
3.26179e-06
-1.77946e-07
3.24701e-06
-1.76677e-07
3.23913e-06
-1.82587e-07
3.23512e-06
-2.73215e-08
3.22663e-06
2.00176e-08
3.23066e-06
1.00741e-07
3.23428e-06
1.85659e-07
2.0183e-07
3.23755e-06
3.41205e-06
-2.06674e-07
3.42518e-06
2.11414e-07
3.42546e-06
4.59365e-08
3.42245e-06
-2.32847e-07
3.40274e-06
-3.80131e-07
3.39681e-06
-2.19335e-07
3.40818e-06
2.33152e-07
3.42346e-06
3.65852e-07
3.43945e-06
2.46624e-07
3.43497e-06
-1.12973e-08
3.4365e-06
-6.38077e-08
3.4187e-06
-2.74014e-07
3.41708e-06
-1.76324e-07
3.4032e-06
-1.62796e-07
3.39409e-06
-1.73476e-07
3.39087e-06
-2.41052e-08
3.38237e-06
2.85182e-08
3.38581e-06
9.73028e-08
3.3907e-06
1.80768e-07
1.98962e-07
3.39357e-06
3.57532e-06
-1.98579e-07
3.58871e-06
1.98021e-07
3.58906e-06
4.55875e-08
3.58556e-06
-2.29348e-07
3.56638e-06
-3.60955e-07
3.55979e-06
-2.12746e-07
3.57189e-06
2.21056e-07
3.58679e-06
3.50956e-07
3.60293e-06
2.30475e-07
3.59874e-06
-7.10638e-09
3.59948e-06
-6.45449e-08
3.58264e-06
-2.57169e-07
3.57985e-06
-1.73543e-07
3.56671e-06
-1.49654e-07
3.55658e-06
-1.63342e-07
3.55396e-06
-2.14833e-08
3.54571e-06
3.67698e-08
3.54839e-06
9.46162e-08
3.55447e-06
1.74689e-07
1.96189e-07
3.55724e-06
3.74643e-06
-1.90301e-07
3.75997e-06
1.84478e-07
3.76052e-06
4.50433e-08
3.75643e-06
-2.25266e-07
3.73791e-06
-3.42438e-07
3.73064e-06
-2.0547e-07
3.74336e-06
2.08334e-07
3.75801e-06
3.36311e-07
3.77408e-06
2.14399e-07
3.77041e-06
-3.4343e-09
3.77021e-06
-6.43415e-08
3.75431e-06
-2.41276e-07
3.75049e-06
-1.69722e-07
3.7379e-06
-1.37057e-07
3.72692e-06
-1.52365e-07
3.72476e-06
-1.93226e-08
3.717e-06
4.45313e-08
3.71877e-06
9.2846e-08
3.7259e-06
1.67559e-07
1.9317e-07
3.72892e-06
3.92576e-06
-1.81873e-07
3.93933e-06
1.70909e-07
3.9402e-06
4.41701e-08
3.93547e-06
-2.20532e-07
3.91768e-06
-3.24653e-07
3.90976e-06
-1.9755e-07
3.92294e-06
1.95154e-07
3.9375e-06
3.21755e-07
3.95327e-06
1.98629e-07
3.9503e-06
-4.60117e-10
3.94911e-06
-6.31511e-08
3.93406e-06
-2.26234e-07
3.92938e-06
-1.65036e-07
3.91715e-06
-1.24827e-07
3.90545e-06
-1.40672e-07
3.90364e-06
-1.75059e-08
3.89663e-06
5.15442e-08
3.89736e-06
9.21136e-08
3.90527e-06
1.59646e-07
1.89501e-07
3.90894e-06
4.11371e-06
-1.73328e-07
4.12717e-06
1.57444e-07
4.12849e-06
4.28522e-08
4.12309e-06
-2.1513e-07
4.10604e-06
-3.07604e-07
4.09761e-06
-1.89121e-07
4.11102e-06
1.81743e-07
4.12565e-06
3.07123e-07
4.14092e-06
1.83365e-07
4.13874e-06
1.71745e-09
4.13661e-06
-6.10226e-08
4.12226e-06
-2.11881e-07
4.11687e-06
-1.59648e-07
4.10492e-06
-1.12879e-07
4.09259e-06
-1.28346e-07
4.09098e-06
-1.58877e-08
4.08495e-06
5.75695e-08
4.08467e-06
9.23969e-08
4.0929e-06
1.51414e-07
1.84767e-07
4.09763e-06
4.31067e-06
-1.64701e-07
4.32391e-06
1.44204e-07
4.32575e-06
4.10126e-08
4.31974e-06
-2.09113e-07
4.30335e-06
-2.91217e-07
4.29463e-06
-1.80399e-07
4.30801e-06
1.6836e-07
4.32286e-06
2.92272e-07
4.33748e-06
1.68749e-07
4.33609e-06
3.10859e-09
4.33315e-06
-5.80832e-08
4.3193e-06
-1.98032e-07
4.31334e-06
-1.53691e-07
4.30165e-06
-1.01185e-07
4.28876e-06
-1.15463e-07
4.2872e-06
-1.432e-08
4.28233e-06
6.24399e-08
4.28122e-06
9.35068e-08
4.2892e-06
1.43435e-07
1.78696e-07
4.29527e-06
4.51709e-06
-1.56022e-07
4.53001e-06
1.31289e-07
4.53239e-06
3.86349e-08
4.52588e-06
-2.0261e-07
4.51001e-06
-2.75347e-07
4.50126e-06
-1.71647e-07
4.51437e-06
1.5525e-07
4.52953e-06
2.77111e-07
4.54344e-06
1.54844e-07
4.54275e-06
3.80016e-09
4.53913e-06
-5.44657e-08
4.52561e-06
-1.84517e-07
4.51919e-06
-1.4727e-07
4.50774e-06
-8.97366e-08
4.4944e-06
-1.02116e-07
4.49277e-06
-1.26958e-08
4.48912e-06
6.60947e-08
4.48749e-06
9.51323e-08
4.49472e-06
1.3621e-07
1.71321e-07
4.50209e-06
4.73341e-06
-1.47317e-07
4.74594e-06
1.1876e-07
4.74879e-06
3.57844e-08
4.74202e-06
-1.95836e-07
4.72646e-06
-2.59793e-07
4.71796e-06
-1.63141e-07
4.73061e-06
1.42599e-07
4.74606e-06
2.61662e-07
4.7593e-06
1.41605e-07
4.75917e-06
3.93037e-09
4.75499e-06
-5.0289e-08
4.74165e-06
-1.71178e-07
4.73483e-06
-1.40452e-07
4.72361e-06
-7.85157e-08
4.70997e-06
-8.84738e-08
4.70819e-06
-1.09207e-08
4.70573e-06
6.85542e-08
4.70394e-06
9.69254e-08
4.71011e-06
1.30037e-07
1.63013e-07
4.71842e-06
4.96009e-06
-1.38608e-07
4.97222e-06
1.06627e-07
4.9754e-06
3.26044e-08
4.96864e-06
-1.89072e-07
4.95318e-06
-2.4434e-07
4.94514e-06
-1.55093e-07
4.95723e-06
1.30501e-07
4.97283e-06
2.46066e-07
4.98551e-06
1.28923e-07
4.98584e-06
3.60035e-09
4.98115e-06
-4.56025e-08
4.96785e-06
-1.5787e-07
4.96066e-06
-1.33265e-07
4.94971e-06
-6.75706e-08
4.93594e-06
-7.47033e-08
4.93397e-06
-8.95003e-09
4.93266e-06
6.98718e-08
4.93096e-06
9.86244e-08
4.93603e-06
1.24961e-07
1.5435e-07
4.9447e-06
5.19762e-06
-1.29906e-07
5.20939e-06
9.48558e-08
5.21268e-06
2.9315e-08
5.20627e-06
-1.82663e-07
5.19072e-06
-2.28795e-07
5.1832e-06
-1.47567e-07
5.19483e-06
1.18862e-07
5.21029e-06
2.30607e-07
5.22252e-06
1.16701e-07
5.22327e-06
2.85038e-09
5.21808e-06
-4.04169e-08
5.20463e-06
-1.44417e-07
5.19708e-06
-1.25721e-07
5.18661e-06
-5.71014e-08
5.17284e-06
-6.09294e-08
5.17062e-06
-6.734e-09
5.17039e-06
7.01061e-08
5.16896e-06
1.00057e-07
5.17305e-06
1.20867e-07
1.45891e-07
5.18151e-06
5.4465e-06
-1.21221e-07
5.45799e-06
8.33648e-08
5.46113e-06
2.61809e-08
5.45541e-06
-1.7694e-07
5.43972e-06
-2.13108e-07
5.43253e-06
-1.40378e-07
5.44402e-06
1.07373e-07
5.45901e-06
2.15621e-07
5.47071e-06
1.05002e-07
5.47191e-06
1.64556e-09
5.46621e-06
-3.47139e-08
5.45242e-06
-1.30631e-07
5.44456e-06
-1.17864e-07
5.43488e-06
-4.74148e-08
5.42126e-06
-4.73161e-08
5.41868e-06
-4.15046e-09
5.41945e-06
6.9335e-08
5.41842e-06
1.01088e-07
5.42169e-06
1.17596e-07
1.38018e-07
5.42956e-06
5.70729e-06
-1.12555e-07
5.71861e-06
7.20476e-08
5.72133e-06
2.34619e-08
5.71651e-06
-1.72122e-07
5.70087e-06
-1.97473e-07
5.69363e-06
-1.33137e-07
5.70527e-06
9.57394e-08
5.71958e-06
2.01312e-07
5.73048e-06
9.41035e-08
5.73212e-06
-7.61153e-13
5.72594e-06
-2.85362e-08
5.71175e-06
-1.16437e-07
5.70364e-06
-1.09754e-07
5.69506e-06
-3.88292e-08
5.68183e-06
-3.40936e-08
5.67869e-06
-1.00415e-09
5.68035e-06
6.76762e-08
5.67986e-06
1.01578e-07
5.68247e-06
1.14986e-07
1.3093e-07
5.68955e-06
5.98055e-06
-1.03911e-07
5.99181e-06
6.07848e-08
5.99392e-06
2.13493e-08
5.99003e-06
-1.68228e-07
5.97488e-06
-1.82319e-07
5.96705e-06
-1.25311e-07
5.97896e-06
8.38294e-08
5.99259e-06
1.87678e-07
6.00218e-06
8.45147e-08
6.00406e-06
-1.87939e-09
5.99768e-06
-2.21549e-08
5.98325e-06
-1.02007e-07
5.97501e-06
-1.01511e-07
5.96771e-06
-3.15295e-08
5.95513e-06
-2.15166e-08
5.95126e-06
2.86574e-09
5.9536e-06
6.53333e-08
5.95381e-06
1.01372e-07
5.95591e-06
1.12883e-07
1.24688e-07
5.96215e-06
6.26687e-06
-9.52978e-08
6.27818e-06
4.94799e-08
6.27961e-06
1.99197e-08
6.27639e-06
-1.65012e-07
6.26238e-06
-1.68306e-07
6.25351e-06
-1.16443e-07
6.2655e-06
7.18417e-08
6.27858e-06
1.74597e-07
6.28627e-06
7.68273e-08
6.28797e-06
-3.58075e-09
6.28203e-06
-1.6213e-08
6.26773e-06
-8.77111e-08
6.25939e-06
-9.31721e-08
6.25338e-06
-2.55165e-08
6.2417e-06
-9.83287e-09
6.23706e-06
7.4984e-09
6.23979e-06
6.26066e-08
6.24084e-06
1.00327e-07
6.24259e-06
1.11126e-07
1.19266e-07
6.24802e-06
6.5669e-06
-8.67326e-08
6.5783e-06
3.80885e-08
6.5791e-06
1.91199e-08
6.57606e-06
-1.61976e-07
6.56393e-06
-1.56177e-07
6.55389e-06
-1.06403e-07
6.56539e-06
6.03458e-08
6.57813e-06
1.61853e-07
6.58367e-06
7.1287e-08
6.58496e-06
-4.8683e-09
6.58002e-06
-1.12745e-08
6.56614e-06
-7.38259e-08
6.55755e-06
-8.45821e-08
6.55263e-06
-2.06017e-08
6.54209e-06
7.11003e-10
6.53678e-06
1.2808e-08
6.53955e-06
5.98364e-08
6.54151e-06
9.83688e-08
6.5431e-06
1.09536e-07
1.14595e-07
6.54777e-06
6.8813e-06
-7.82458e-08
6.89275e-06
2.66437e-08
6.8931e-06
1.87639e-08
6.8897e-06
-1.58569e-07
6.87999e-06
-1.46472e-07
6.86908e-06
-9.54951e-08
6.87937e-06
5.00636e-08
6.89208e-06
1.49139e-07
6.89573e-06
6.7641e-08
6.89624e-06
-5.3776e-09
6.89241e-06
-7.45199e-09
6.8792e-06
-6.06095e-08
6.87021e-06
-7.55971e-08
6.8661e-06
-1.64893e-08
6.85686e-06
9.94528e-09
6.85107e-06
1.86015e-08
6.85357e-06
5.73398e-08
6.85641e-06
9.55225e-08
6.85804e-06
1.07907e-07
1.10595e-07
6.86204e-06
7.21077e-06
-6.98833e-08
7.22216e-06
1.52576e-08
7.22235e-06
1.85749e-08
7.21804e-06
-1.54262e-07
7.211e-06
-1.39431e-07
7.19986e-06
-8.43549e-08
7.20831e-06
4.16136e-08
7.22121e-06
1.36242e-07
7.22335e-06
6.54982e-08
7.22262e-06
-4.65162e-09
7.21972e-06
-4.54535e-09
7.20749e-06
-4.83824e-08
7.19814e-06
-6.62437e-08
7.1945e-06
-1.28488e-08
7.18665e-06
1.77943e-08
7.18062e-06
2.46314e-08
7.1826e-06
5.53593e-08
7.18619e-06
9.19273e-08
7.18808e-06
1.06019e-07
1.0718e-07
7.1915e-06
7.55605e-06
-6.17099e-08
7.5672e-06
4.11042e-09
7.56755e-06
1.82205e-08
7.56188e-06
-1.4859e-07
7.5573e-06
-1.34848e-07
7.54692e-06
-7.39776e-08
7.5532e-06
3.53372e-08
7.56606e-06
1.23378e-07
7.56722e-06
6.43409e-08
7.56499e-06
-2.42079e-09
7.56258e-06
-2.13132e-09
7.55161e-06
-3.74189e-08
7.54205e-06
-5.66828e-08
7.5386e-06
-9.39699e-09
7.53212e-06
2.42722e-08
7.5261e-06
3.065e-08
7.52742e-06
5.40457e-08
7.53154e-06
8.78074e-08
7.53388e-06
1.03678e-07
1.04217e-07
7.53684e-06
7.91791e-06
-5.38108e-08
7.92857e-06
-6.55004e-09
7.92951e-06
1.7286e-08
7.9221e-06
-1.41188e-07
7.91955e-06
-1.32291e-07
7.91074e-06
-6.51719e-08
7.91494e-06
3.11349e-08
7.92727e-06
1.11051e-07
7.9278e-06
6.38119e-08
7.92416e-06
1.21801e-09
7.92183e-06
2.03427e-10
7.9122e-06
-2.77933e-08
7.90265e-06
-4.71336e-08
7.89922e-06
-5.9633e-09
7.89402e-06
2.94676e-08
7.88824e-06
3.64322e-08
7.88883e-06
5.34544e-08
7.89321e-06
8.34302e-08
7.89611e-06
1.00774e-07
1.01517e-07
7.89881e-06
8.29716e-06
-4.62856e-08
8.30704e-06
-1.64346e-08
8.30891e-06
1.54154e-08
8.29955e-06
-1.31825e-07
8.29842e-06
-1.31159e-07
8.29175e-06
-5.85043e-08
8.29409e-06
2.87905e-08
8.30521e-06
9.9935e-08
8.30558e-06
6.34375e-08
8.30101e-06
5.79195e-09
8.29841e-06
2.80031e-09
8.28996e-06
-1.93449e-08
8.28065e-06
-3.78223e-08
8.2772e-06
-2.51207e-09
8.27312e-06
3.35484e-08
8.26779e-06
4.17622e-08
8.26767e-06
5.35768e-08
8.27204e-06
7.90533e-08
8.27552e-06
9.72973e-08
9.88755e-08
8.27816e-06
8.69462e-06
-3.92475e-08
8.70345e-06
-2.52562e-08
8.70642e-06
1.24445e-08
8.69512e-06
-1.2053e-07
8.69435e-06
-1.3039e-07
8.69018e-06
-5.43275e-08
8.69046e-06
2.8502e-08
8.69978e-06
9.06176e-08
8.70113e-06
6.20859e-08
8.69638e-06
1.05496e-08
8.69332e-06
5.85658e-09
8.68568e-06
-1.17024e-08
8.67685e-06
-2.89957e-08
8.67335e-06
9.90147e-10
8.67023e-06
3.66627e-08
8.66555e-06
4.64423e-08
8.66479e-06
5.43431e-08
8.66892e-06
7.49223e-08
8.67291e-06
9.33035e-08
9.61332e-08
8.67565e-06
9.11118e-06
-3.28108e-08
9.11868e-06
-3.27584e-08
9.1228e-06
8.32597e-09
9.10979e-06
-1.07516e-07
9.1073e-06
-1.27901e-07
9.1044e-06
-5.1428e-08
9.10245e-06
3.04557e-08
9.11158e-06
8.14875e-08
9.11517e-06
5.84883e-08
9.11111e-06
1.46133e-08
9.10747e-06
9.49605e-09
9.10034e-06
-4.56945e-09
9.09201e-06
-2.06696e-08
9.08852e-06
4.47783e-09
9.08622e-06
3.8964e-08
9.08233e-06
5.03308e-08
9.08109e-06
5.5586e-08
9.08474e-06
7.12708e-08
9.08916e-06
8.88868e-08
9.31815e-08
9.09211e-06
9.54774e-06
-2.70905e-08
9.55365e-06
-3.86737e-08
9.55898e-06
3.00487e-09
9.54454e-06
-9.30819e-08
9.53854e-06
-1.21895e-07
9.53638e-06
-4.92741e-08
9.53512e-06
3.17181e-08
9.54338e-06
7.32267e-08
9.54864e-06
5.32291e-08
9.54581e-06
1.74425e-08
9.54183e-06
1.34818e-08
9.53496e-06
2.29478e-09
9.52708e-06
-1.27897e-08
9.52367e-06
7.89311e-09
9.52203e-06
4.05956e-08
9.519e-06
5.33653e-08
9.51751e-06
5.70781e-08
9.5205e-06
6.8274e-08
9.52517e-06
8.42174e-08
8.99345e-08
9.52842e-06
1.00052e-05
-2.21789e-08
1.00093e-05
-4.27936e-08
1.00157e-05
-3.38864e-09
1.00009e-05
-7.82422e-08
9.9918e-06
-1.12799e-07
9.9915e-06
-4.89744e-08
9.9912e-06
3.20152e-08
9.99727e-06
6.71636e-08
1.00026e-05
4.79081e-08
1.00011e-05
1.8934e-08
9.99726e-06
1.73181e-08
9.99064e-06
8.9117e-09
9.98305e-06
-5.1923e-09
9.97974e-06
1.12013e-08
9.97863e-06
4.17004e-08
9.97646e-06
5.5536e-08
9.97495e-06
5.85873e-08
9.97724e-06
6.59892e-08
9.98191e-06
7.95416e-08
8.63271e-08
9.98552e-06
1.04846e-05
-1.81352e-08
1.04868e-05
-4.50189e-08
1.0494e-05
-1.05556e-08
1.048e-05
-6.42175e-08
1.04684e-05
-1.01265e-07
1.0469e-05
-4.95135e-08
1.04701e-05
3.09042e-08
1.04741e-05
6.31174e-08
1.04783e-05
4.3719e-08
1.04778e-05
1.94101e-08
1.04746e-05
2.05273e-08
1.04684e-05
1.51577e-08
1.0461e-05
2.17252e-09
1.04577e-05
1.44797e-08
1.0457e-05
4.2391e-08
1.04557e-05
5.68878e-08
1.04544e-05
5.99034e-08
1.0456e-05
6.43624e-08
1.04604e-05
7.51171e-08
8.23533e-08
1.04644e-05
1.09869e-05
-1.49734e-08
1.09872e-05
-4.53502e-08
1.09948e-05
-1.81312e-08
1.09824e-05
-5.18932e-08
1.0969e-05
-8.77834e-08
1.09692e-05
-4.97295e-08
1.0972e-05
2.80891e-08
1.09747e-05
6.03644e-08
1.09772e-05
4.12615e-08
1.09772e-05
1.94397e-08
1.09748e-05
2.28587e-08
1.09692e-05
2.08291e-08
1.09621e-05
9.22686e-09
1.09587e-05
1.78432e-08
1.09584e-05
4.27706e-08
1.09577e-05
5.75258e-08
1.09568e-05
6.0847e-08
1.09579e-05
6.32557e-08
1.09618e-05
7.1165e-08
7.8102e-08
1.09661e-05
1.15131e-05
-1.26603e-08
1.15116e-05
-4.39279e-08
1.15191e-05
-2.55887e-08
1.15091e-05
-4.18857e-08
1.14943e-05
-7.30064e-08
1.14932e-05
-4.86057e-08
1.14975e-05
2.37237e-08
1.14999e-05
5.80059e-08
1.15006e-05
4.05197e-08
1.15004e-05
1.97245e-08
1.14989e-05
2.43609e-08
1.14941e-05
2.56109e-08
1.14874e-05
1.59251e-08
1.14839e-05
2.12891e-08
1.14837e-05
4.29816e-08
1.14837e-05
5.75865e-08
1.14832e-05
6.13081e-08
1.1484e-05
6.24474e-08
1.14873e-05
6.78289e-08
7.37479e-08
1.14917e-05
1.20643e-05
-1.11041e-08
1.20613e-05
-4.10077e-08
1.20681e-05
-3.23002e-08
1.20607e-05
-3.45645e-08
1.20454e-05
-5.77006e-08
1.20423e-05
-4.54813e-08
1.20476e-05
1.83878e-08
1.20505e-05
5.5184e-08
1.20499e-05
4.10879e-08
1.20488e-05
2.08365e-08
1.20479e-05
2.52814e-08
1.20441e-05
2.93913e-08
1.2038e-05
2.20471e-08
1.20344e-05
2.48063e-08
1.20343e-05
4.31341e-08
1.20347e-05
5.72029e-08
1.20347e-05
6.1304e-08
1.20354e-05
6.16834e-08
1.20382e-05
6.51128e-08
6.95322e-08
1.20424e-05
1.26416e-05
-1.01572e-08
1.26376e-05
-3.69485e-08
1.26428e-05
-3.75461e-08
1.26382e-05
-2.99456e-08
1.26233e-05
-4.28207e-08
1.2618e-05
-4.01895e-08
1.26234e-05
1.29829e-08
1.26273e-05
5.1341e-08
1.26261e-05
4.232e-08
1.26239e-05
2.29607e-08
1.26231e-05
2.6093e-08
1.26203e-05
3.22008e-08
1.2615e-05
2.73302e-08
1.26115e-05
2.83533e-08
1.26113e-05
4.33018e-08
1.2612e-05
5.64839e-08
1.26124e-05
6.09188e-08
1.26133e-05
6.08018e-08
1.26156e-05
6.28502e-08
6.57162e-08
1.26194e-05
1.32464e-05
-9.6269e-09
1.32417e-05
-3.22399e-08
1.32447e-05
-4.05218e-08
1.32425e-05
-2.77363e-08
1.32291e-05
-2.94747e-08
1.32219e-05
-3.29604e-08
1.32264e-05
8.49007e-09
1.32313e-05
4.63741e-08
1.32302e-05
4.34392e-08
1.32272e-05
2.59899e-08
1.3226e-05
2.72849e-08
1.32241e-05
3.41384e-08
1.32197e-05
3.17273e-08
1.32163e-05
3.17104e-08
1.32161e-05
4.35654e-08
1.3217e-05
5.55121e-08
1.32177e-05
6.02073e-08
1.32187e-05
5.97889e-08
1.32208e-05
6.07907e-08
6.24482e-08
1.32241e-05
1.38798e-05
-9.29704e-09
1.3875e-05
-2.73819e-08
1.38753e-05
-4.0799e-08
1.38748e-05
-2.73114e-08
1.38639e-05
-1.84978e-08
1.38553e-05
-2.44347e-08
1.38581e-05
5.74601e-09
1.38638e-05
4.0684e-08
1.38634e-05
4.37573e-08
1.38599e-05
2.95715e-08
1.38581e-05
2.90537e-08
1.38567e-05
3.55608e-08
1.38532e-05
3.52317e-08
1.38502e-05
3.47203e-08
1.38498e-05
4.38886e-08
1.3851e-05
5.43859e-08
1.3852e-05
5.91916e-08
1.38531e-05
5.86934e-08
1.38551e-05
5.87717e-08
5.9653e-08
1.38579e-05
1.45433e-05
-8.96356e-09
1.45386e-05
-2.26956e-08
1.45364e-05
-3.85902e-08
1.45369e-05
-2.7783e-08
1.45287e-05
-1.02899e-08
1.45197e-05
-1.54315e-08
1.45203e-05
5.13374e-09
1.45259e-05
3.50575e-08
1.45267e-05
4.29694e-08
1.45232e-05
3.30467e-08
1.45208e-05
3.14582e-08
1.45195e-05
3.68658e-08
1.45169e-05
3.78545e-08
1.45143e-05
3.73373e-08
1.4514e-05
4.41701e-08
1.45152e-05
5.31681e-08
1.45165e-05
5.79008e-08
1.45177e-05
5.75229e-08
1.45197e-05
5.67804e-08
5.71158e-08
1.45222e-05
1.52384e-05
-8.4822e-09
1.52343e-05
-1.86009e-08
1.52301e-05
-3.43723e-08
1.52304e-05
-2.80677e-08
1.52249e-05
-4.82601e-09
1.52163e-05
-6.79569e-09
1.52148e-05
6.59136e-09
1.52195e-05
3.03759e-08
1.52213e-05
4.11584e-08
1.52186e-05
3.57685e-08
1.52157e-05
3.43232e-08
1.52143e-05
3.82902e-08
1.52123e-05
3.98415e-08
1.52102e-05
3.94654e-08
1.52099e-05
4.44105e-08
1.52113e-05
5.18454e-08
1.52128e-05
5.63726e-08
1.52141e-05
5.62393e-08
1.5216e-05
5.48572e-08
5.46635e-08
1.52185e-05
1.59666e-05
-7.76821e-09
1.59634e-05
-1.53384e-08
1.59578e-05
-2.87742e-08
1.5957e-05
-2.73477e-08
1.59538e-05
-1.61795e-09
1.59463e-05
7.06077e-10
1.59432e-05
9.72652e-09
1.59463e-05
2.72597e-08
1.59487e-05
3.87545e-08
1.5947e-05
3.74811e-08
1.59442e-05
3.71251e-08
1.59425e-05
3.99514e-08
1.59409e-05
4.14555e-08
1.59393e-05
4.10923e-08
1.59391e-05
4.45933e-08
1.59405e-05
5.04565e-08
1.59423e-05
5.45964e-08
1.59437e-05
5.48157e-08
1.59455e-05
5.30235e-08
5.22507e-08
1.59479e-05
1.67296e-05
-6.81078e-09
1.67271e-05
-1.28276e-08
1.67209e-05
-2.25504e-08
1.67188e-05
-2.52478e-08
1.6717e-05
1.56517e-10
1.67111e-05
6.65219e-09
1.6707e-05
1.38392e-08
1.67083e-05
2.59111e-08
1.67106e-05
3.64615e-08
1.67099e-05
3.81825e-08
1.67077e-05
3.93811e-08
1.67058e-05
4.17677e-08
1.67044e-05
4.28769e-08
1.67032e-05
4.23501e-08
1.67031e-05
4.46339e-08
1.67045e-05
4.91079e-08
1.67065e-05
5.25734e-08
1.67081e-05
5.31741e-08
1.67099e-05
5.12714e-08
4.98955e-08
1.67122e-05
1.75292e-05
-5.66033e-09
1.75273e-05
-1.09596e-08
1.75211e-05
-1.63363e-08
1.75176e-05
-2.16788e-08
1.75163e-05
1.39363e-09
1.7512e-05
1.09656e-08
1.75077e-05
1.818e-08
1.75074e-05
2.62079e-08
1.75089e-05
3.49278e-08
1.7509e-05
3.80838e-08
1.75075e-05
4.09009e-08
1.75059e-05
4.33955e-08
1.75045e-05
4.41949e-08
1.75035e-05
4.33819e-08
1.75036e-05
4.45246e-08
1.75049e-05
4.78104e-08
1.7507e-05
5.04492e-08
1.7509e-05
5.12129e-08
1.75107e-05
4.95442e-08
4.76341e-08
1.7513e-05
1.83671e-05
-4.39411e-09
1.83656e-05
-9.43686e-09
1.83598e-05
-1.06069e-08
1.83551e-05
-1.69332e-08
1.83536e-05
2.8334e-09
1.83507e-05
1.38913e-08
1.83467e-05
2.21583e-08
1.83452e-05
2.77618e-08
1.83457e-05
3.44232e-08
1.8346e-05
3.77243e-08
1.83453e-05
4.16663e-08
1.83441e-05
4.45726e-08
1.8343e-05
4.5344e-08
1.83421e-05
4.4236e-08
1.83423e-05
4.43632e-08
1.83436e-05
4.64957e-08
1.83456e-05
4.838e-08
1.83479e-05
4.89587e-08
1.83498e-05
4.76858e-08
4.54869e-08
1.83519e-05