/*--------------------------------*- C++ -*----------------------------------*\
| =========                 |                                                 |
| \\      /  F ield         | OpenFOAM: The Open Source CFD Toolbox           |
|  \\    /   O peration     | Version:  v1812                                 |
|   \\  /    A nd           | Web:      www.OpenFOAM.com                      |
|    \\/     M anipulation  |                                                 |
\*---------------------------------------------------------------------------*/
FoamFile
{
    version     2.0;
    format      ascii;
    class       surfaceScalarField;
    location    "5.3";
    object      phi;
}
// * * * * * * * * * * * * * * * * * * * * * * * * * * * * * * * * * * * * * //

dimensions      [0 3 -1 0 0 0 0];
oriented        oriented;


internalField   nonuniform List<scalar> 
19000
(
1.15841e-06
9.33424e-08
1.14106e-06
-6.17263e-07
1.16715e-06
1.09916e-06
1.13593e-06
-2.30502e-06
1.18618e-06
1.28819e-06
1.1812e-06
4.50855e-07
1.13925e-06
7.2185e-07
1.14313e-06
7.89584e-07
1.13839e-06
4.83367e-07
1.07932e-06
-1.34914e-06
1.14148e-06
3.58192e-07
1.08856e-06
-1.65341e-06
1.15921e-06
-1.72839e-07
1.13008e-06
-6.06486e-07
1.18663e-06
4.33161e-08
1.15703e-06
1.32879e-07
1.18443e-06
1.54171e-07
1.19074e-06
4.94238e-07
1.19024e-06
3.3425e-07
4.96269e-07
1.19344e-06
1.2147e-06
1.02899e-07
1.19681e-06
-5.99372e-07
1.22198e-06
1.074e-06
1.19341e-06
-2.27646e-06
1.23649e-06
1.24511e-06
1.24013e-06
4.47216e-07
1.19037e-06
7.71612e-07
1.19719e-06
7.82761e-07
1.19339e-06
4.87176e-07
1.13959e-06
-1.29534e-06
1.18872e-06
3.09061e-07
1.13733e-06
-1.60202e-06
1.20047e-06
-2.35971e-07
1.18422e-06
-5.90246e-07
1.22511e-06
2.42662e-09
1.2311e-06
1.26893e-07
1.22351e-06
1.61761e-07
1.27582e-06
4.41927e-07
1.23046e-06
3.79616e-07
4.49667e-07
1.27706e-06
1.27451e-06
1.11174e-07
1.25533e-06
-5.80192e-07
1.27945e-06
1.04988e-06
1.25206e-06
-2.24907e-06
1.29118e-06
1.206e-06
1.29984e-06
4.38551e-07
1.24959e-06
8.21868e-07
1.25289e-06
7.79456e-07
1.25381e-06
4.86255e-07
1.20724e-06
-1.24877e-06
1.24525e-06
2.71051e-07
1.20495e-06
-1.56172e-06
1.25144e-06
-2.82463e-07
1.25111e-06
-5.89914e-07
1.27425e-06
-2.07109e-08
1.29926e-06
1.01883e-07
1.27905e-06
1.81969e-07
1.3248e-06
3.96172e-07
1.30187e-06
4.02551e-07
4.47276e-07
1.30426e-06
1.33757e-06
1.17706e-07
1.31776e-06
-5.60377e-07
1.33905e-06
1.02858e-06
1.314e-06
-2.22402e-06
1.34893e-06
1.17106e-06
1.36244e-06
4.25044e-07
1.31696e-06
8.67346e-07
1.31532e-06
7.811e-07
1.31925e-06
4.82328e-07
1.27981e-06
-1.20934e-06
1.30535e-06
2.45513e-07
1.27787e-06
-1.53424e-06
1.31075e-06
-3.15338e-07
1.32497e-06
-6.04132e-07
1.33754e-06
-3.32822e-08
1.36554e-06
7.38797e-08
1.35156e-06
1.95953e-07
1.37377e-06
3.73963e-07
1.37448e-06
4.01839e-07
4.56582e-07
1.36517e-06
1.40354e-06
1.22522e-07
1.38449e-06
-5.41331e-07
1.40127e-06
1.0118e-06
1.37849e-06
-2.20123e-06
1.41126e-06
1.13829e-06
1.42744e-06
4.08855e-07
1.39113e-06
9.03658e-07
1.38621e-06
7.86022e-07
1.39068e-06
4.77855e-07
1.35536e-06
-1.17401e-06
1.37168e-06
2.29186e-07
1.35271e-06
-1.51527e-06
1.37663e-06
-3.39259e-07
1.39728e-06
-6.24789e-07
1.41077e-06
-4.67671e-08
1.43437e-06
5.02785e-08
1.43176e-06
1.98566e-07
1.43972e-06
3.66e-07
1.44714e-06
3.9442e-07
4.629e-07
1.44082e-06
1.47202e-06
1.26176e-07
1.45578e-06
-5.25089e-07
1.46704e-06
1.00054e-06
1.44532e-06
-2.17951e-06
1.47841e-06
1.1052e-06
1.49433e-06
3.92934e-07
1.46884e-06
9.29145e-07
1.46401e-06
7.9086e-07
1.46746e-06
4.74401e-07
1.43336e-06
-1.13991e-06
1.44393e-06
2.18618e-07
1.42684e-06
-1.49818e-06
1.44538e-06
-3.57795e-07
1.46627e-06
-6.45681e-07
1.48567e-06
-6.61689e-08
1.50548e-06
3.04667e-08
1.51131e-06
1.92738e-07
1.51467e-06
3.62645e-07
1.52269e-06
3.86395e-07
4.66598e-07
1.51899e-06
1.54284e-06
1.29547e-07
1.53142e-06
-5.13668e-07
1.53724e-06
9.94716e-07
1.51488e-06
-2.15715e-06
1.54968e-06
1.07041e-06
1.56253e-06
3.80078e-07
1.5475e-06
9.44179e-07
1.54618e-06
7.92183e-07
1.54848e-06
4.72094e-07
1.51437e-06
-1.1058e-06
1.52194e-06
2.11048e-07
1.50149e-06
-1.47772e-06
1.51604e-06
-3.72345e-07
1.53383e-06
-6.63477e-07
1.55875e-06
-9.10915e-08
1.57688e-06
1.23444e-08
1.58871e-06
1.80903e-07
1.59124e-06
3.60118e-07
1.60002e-06
3.77614e-07
4.68549e-07
1.59807e-06
1.61623e-06
1.33444e-07
1.61079e-06
-5.08229e-07
1.61221e-06
9.93295e-07
1.58772e-06
-2.13265e-06
1.6241e-06
1.03403e-06
1.6319e-06
3.72279e-07
1.6264e-06
9.49677e-07
1.63115e-06
7.87437e-07
1.63269e-06
4.70554e-07
1.59872e-06
-1.07183e-06
1.60511e-06
2.04658e-07
1.57851e-06
-1.45113e-06
1.58986e-06
-3.83688e-07
1.60255e-06
-6.76171e-07
1.63105e-06
-1.19594e-07
1.64835e-06
-4.95185e-09
1.66539e-06
1.63863e-07
1.66853e-06
3.56974e-07
1.67894e-06
3.67211e-07
4.68223e-07
1.67926e-06
1.69275e-06
1.38264e-07
1.69315e-06
-5.08623e-07
1.69175e-06
9.94698e-07
1.66428e-06
-2.10519e-06
1.70124e-06
9.97068e-07
1.7033e-06
3.70217e-07
1.70661e-06
9.46367e-07
1.71855e-06
7.755e-07
1.71948e-06
4.69622e-07
1.68617e-06
-1.03852e-06
1.69263e-06
1.98197e-07
1.65934e-06
-1.41784e-06
1.66829e-06
-3.92631e-07
1.67436e-06
-6.82244e-07
1.70472e-06
-1.4995e-07
1.72096e-06
-2.11935e-08
1.74287e-06
1.4195e-07
1.74785e-06
3.51998e-07
1.76037e-06
3.54691e-07
4.64846e-07
1.76374e-06
1.77308e-06
1.43902e-07
1.77799e-06
-5.13532e-07
1.77541e-06
9.97278e-07
1.74488e-06
-2.07465e-06
1.78147e-06
9.60474e-07
1.77861e-06
3.73079e-07
1.78998e-06
9.34993e-07
1.8085e-06
7.5699e-07
1.80867e-06
4.69452e-07
1.7761e-06
-1.00595e-06
1.78355e-06
1.90746e-07
1.74442e-06
-1.37872e-06
1.75187e-06
-4.00081e-07
1.7503e-06
-6.80673e-07
1.78112e-06
-1.80768e-07
1.79559e-06
-3.56614e-08
1.82176e-06
1.15774e-07
1.82956e-06
3.44198e-07
1.8442e-06
3.40054e-07
4.57775e-07
1.85127e-06
1.85776e-06
1.49891e-07
1.86523e-06
-5.21004e-07
1.86293e-06
9.99584e-07
1.82972e-06
-2.04145e-06
1.86557e-06
9.24631e-07
1.85975e-06
3.78894e-07
1.87795e-06
9.16794e-07
1.90086e-06
7.34081e-07
1.90027e-06
4.70037e-07
1.86782e-06
-9.73503e-07
1.87691e-06
1.81657e-07
1.83344e-06
-1.33524e-06
1.8403e-06
-4.0694e-07
1.8308e-06
-6.71173e-07
1.86076e-06
-2.10734e-07
1.87255e-06
-4.74468e-08
1.90175e-06
8.65749e-08
1.91275e-06
3.33193e-07
1.92883e-06
3.23978e-07
4.46571e-07
1.94003e-06
1.94708e-06
1.55647e-07
1.95513e-06
-5.29055e-07
1.95426e-06
1.00046e-06
1.91887e-06
-2.00606e-06
1.95403e-06
8.89479e-07
1.94762e-06
3.85302e-07
1.97079e-06
8.93619e-07
1.99514e-06
7.09738e-07
1.9944e-06
4.70777e-07
1.96112e-06
-9.40229e-07
1.97223e-06
1.70554e-07
1.9258e-06
-1.28881e-06
1.93283e-06
-4.13969e-07
1.91599e-06
-6.54331e-07
1.9439e-06
-2.38646e-07
1.95211e-06
-5.56619e-08
1.98235e-06
5.63341e-08
1.99624e-06
3.19303e-07
2.01242e-06
3.07806e-07
4.31159e-07
2.02783e-06
2.04114e-06
1.60695e-07
2.04823e-06
-5.36142e-07
2.04963e-06
9.99051e-07
2.01227e-06
-1.9687e-06
2.0468e-06
8.54946e-07
2.04172e-06
3.9038e-07
2.06784e-06
8.67503e-07
2.0909e-06
6.86681e-07
2.09118e-06
4.70494e-07
2.0564e-06
-9.05447e-07
2.06965e-06
1.573e-07
2.02115e-06
-1.24031e-06
2.02883e-06
-4.2165e-07
2.00597e-06
-6.31472e-07
2.03102e-06
-2.63694e-07
2.03513e-06
-5.97771e-08
2.064e-06
2.74679e-08
2.07997e-06
3.03336e-07
2.09456e-06
2.93216e-07
4.11965e-07
2.11375e-06
2.13989e-06
1.64805e-07
2.14515e-06
-5.41403e-07
2.14934e-06
9.94861e-07
2.10988e-06
-1.92924e-06
2.14361e-06
8.21217e-07
2.14079e-06
3.93197e-07
2.16823e-06
8.40061e-07
2.1883e-06
6.66609e-07
2.19091e-06
4.67887e-07
2.15456e-06
-8.69096e-07
2.16995e-06
1.41905e-07
2.11968e-06
-1.19004e-06
2.12817e-06
-4.30141e-07
2.10093e-06
-6.0423e-07
2.12289e-06
-2.85647e-07
2.12302e-06
-5.99152e-08
2.14832e-06
2.17034e-09
2.16549e-06
2.8617e-07
2.17708e-06
2.81625e-07
3.89996e-07
2.19905e-06
2.24329e-06
1.68e-07
2.24652e-06
-5.44634e-07
2.25371e-06
9.87677e-07
2.21187e-06
-1.8874e-06
2.24442e-06
7.8867e-07
2.24372e-06
3.93901e-07
2.27164e-06
8.12143e-07
2.28823e-06
6.50016e-07
2.29409e-06
4.62026e-07
2.25663e-06
-8.31635e-07
2.27411e-06
1.24424e-07
2.22212e-06
-1.13805e-06
2.23129e-06
-4.39309e-07
2.20111e-06
-5.74054e-07
2.22014e-06
-3.04676e-07
2.21712e-06
-5.68982e-08
2.23737e-06
-1.80767e-08
2.25523e-06
2.6831e-07
2.26317e-06
2.73682e-07
3.66761e-07
2.28641e-06
2.35141e-06
1.70461e-07
2.35283e-06
-5.46054e-07
2.36299e-06
9.77521e-07
2.3186e-06
-1.84301e-06
2.34962e-06
7.57645e-07
2.35016e-06
3.93365e-07
2.37839e-06
7.83915e-07
2.39189e-06
6.36517e-07
2.40136e-06
4.52549e-07
2.36336e-06
-7.93628e-07
2.38286e-06
1.04918e-07
2.32927e-06
-1.08446e-06
2.3388e-06
-4.48832e-07
2.30669e-06
-5.41948e-07
2.32298e-06
-3.20969e-07
2.31802e-06
-5.19355e-08
2.33246e-06
-3.25154e-08
2.35101e-06
2.49765e-07
2.35546e-06
2.69228e-07
3.43914e-07
2.37831e-06
2.46444e-06
1.72413e-07
2.46442e-06
-5.46029e-07
2.47737e-06
9.64573e-07
2.43038e-06
-1.79602e-06
2.45977e-06
7.28262e-07
2.4605e-06
3.9263e-07
2.48924e-06
7.55174e-07
2.5004e-06
6.2536e-07
2.51341e-06
4.39539e-07
2.47518e-06
-7.55398e-07
2.49658e-06
8.35167e-08
2.44175e-06
-1.02963e-06
2.45122e-06
-4.58301e-07
2.41783e-06
-5.08558e-07
2.43134e-06
-3.34478e-07
2.42557e-06
-4.61718e-08
2.43394e-06
-4.08864e-08
2.45331e-06
2.30402e-07
2.45497e-06
2.67564e-07
3.22884e-07
2.476e-06
2.58266e-06
1.74045e-07
2.58153e-06
-5.44897e-07
2.59698e-06
9.4912e-07
2.54748e-06
-1.74652e-06
2.57539e-06
7.0035e-07
2.57553e-06
3.92488e-07
2.60507e-06
7.25633e-07
2.6146e-06
6.15834e-07
2.63081e-06
4.23327e-07
2.5924e-06
-7.16982e-07
2.6154e-06
6.05138e-08
2.55986e-06
-9.7409e-07
2.56884e-06
-4.6728e-07
2.53472e-06
-4.7444e-07
2.54513e-06
-3.44886e-07
2.53952e-06
-4.05563e-08
2.54183e-06
-4.31994e-08
2.56183e-06
2.10397e-07
2.56173e-06
2.6767e-07
3.04747e-07
2.57987e-06
2.70638e-06
1.75498e-07
2.7044e-06
-5.42923e-07
2.722e-06
9.31525e-07
2.6701e-06
-1.69462e-06
2.69695e-06
6.73502e-07
2.69608e-06
3.93354e-07
2.72665e-06
6.95069e-07
2.73504e-06
6.07439e-07
2.75399e-06
4.04374e-07
2.71532e-06
-6.78308e-07
2.73944e-06
3.63981e-08
2.68379e-06
-9.18442e-07
2.69185e-06
-4.75346e-07
2.65762e-06
-4.40209e-07
2.66454e-06
-3.51806e-07
2.65986e-06
-3.58761e-08
2.65642e-06
-3.97613e-08
2.67645e-06
1.9037e-07
2.67574e-06
2.68378e-07
2.90151e-07
2.69034e-06
2.8359e-06
1.76871e-07
2.83329e-06
-5.40321e-07
2.85264e-06
9.12179e-07
2.7985e-06
-1.64049e-06
2.82484e-06
6.47164e-07
2.82282e-06
3.95376e-07
2.85454e-06
6.63351e-07
2.8621e-06
5.99879e-07
2.88324e-06
3.8323e-07
2.84431e-06
-6.39379e-07
2.8689e-06
1.18144e-08
2.81371e-06
-8.63258e-07
2.82044e-06
-4.82074e-07
2.78678e-06
-4.06547e-07
2.78994e-06
-3.54962e-07
2.78679e-06
-3.2726e-08
2.77831e-06
-3.12869e-08
2.79753e-06
1.71151e-07
2.79737e-06
2.68539e-07
2.79297e-07
2.80822e-06
2.97153e-06
1.78235e-07
2.96847e-06
-5.37258e-07
2.9892e-06
8.91448e-07
2.93301e-06
-1.58429e-06
2.95941e-06
6.20759e-07
2.95621e-06
3.98576e-07
2.98912e-06
6.30439e-07
2.99603e-06
5.92972e-07
3.01877e-06
3.60493e-07
2.97973e-06
-6.00347e-07
3.00407e-06
-1.25254e-08
2.94989e-06
-8.09069e-07
2.95488e-06
-4.87069e-07
2.92244e-06
-3.74108e-07
2.9217e-06
-3.54222e-07
2.92048e-06
-3.15074e-08
2.9081e-06
-1.89081e-08
2.92565e-06
1.53608e-07
2.9271e-06
2.67092e-07
2.71968e-07
2.93442e-06
3.1136e-06
1.79636e-07
3.11021e-06
-5.33861e-07
3.13203e-06
8.69627e-07
3.07395e-06
-1.52621e-06
3.10092e-06
5.93782e-07
3.09656e-06
4.02936e-07
3.13064e-06
5.96363e-07
3.13705e-06
5.86561e-07
3.16077e-06
3.36771e-07
3.12193e-06
-5.61509e-07
3.14528e-06
-3.5872e-08
3.09261e-06
-7.56395e-07
3.09551e-06
-4.8997e-07
3.06483e-06
-3.43431e-07
3.06022e-06
-3.49615e-07
3.06109e-06
-3.23772e-08
3.04612e-06
-3.93893e-09
3.06132e-06
1.38415e-07
3.06516e-06
2.63254e-07
2.6756e-07
3.06956e-06
3.26245e-06
1.81101e-07
3.25879e-06
-5.30207e-07
3.28149e-06
8.46926e-07
3.22166e-06
-1.46638e-06
3.2496e-06
5.65841e-07
3.24411e-06
4.08425e-07
3.27926e-06
5.61209e-07
3.28536e-06
5.80461e-07
3.30946e-06
3.12671e-07
3.27125e-06
-5.23299e-07
3.29284e-06
-5.74549e-08
3.24219e-06
-7.05746e-07
3.24271e-06
-4.90488e-07
3.21418e-06
-3.14904e-07
3.20586e-06
-3.41294e-07
3.20875e-06
-3.52695e-08
3.19251e-06
1.22977e-08
3.20482e-06
1.26105e-07
3.21154e-06
2.56541e-07
2.65236e-07
3.21386e-06
3.41839e-06
1.8264e-07
3.41452e-06
-5.26332e-07
3.43798e-06
8.23461e-07
3.37649e-06
-1.40488e-06
3.40566e-06
5.36668e-07
3.39909e-06
4.14996e-07
3.43518e-06
5.25117e-07
3.4412e-06
5.74441e-07
3.46508e-06
2.88796e-07
3.42806e-06
-4.86277e-07
3.44712e-06
-7.65226e-08
3.39893e-06
-6.57548e-07
3.39692e-06
-4.88478e-07
3.37072e-06
-2.88704e-07
3.35898e-06
-3.29557e-07
3.36364e-06
-3.99313e-08
3.34729e-06
2.86478e-08
3.35647e-06
1.16927e-07
3.36605e-06
2.46962e-07
2.63965e-07
3.36732e-06
3.5818e-06
1.84251e-07
3.5777e-06
-5.22236e-07
3.60189e-06
7.99277e-07
3.5388e-06
-1.34179e-06
3.56936e-06
5.0611e-07
3.56177e-06
4.22585e-07
3.5986e-06
4.88281e-07
3.60484e-06
5.68201e-07
3.62787e-06
2.65769e-07
3.59269e-06
-4.51094e-07
3.60859e-06
-9.24273e-08
3.5631e-06
-6.12056e-07
3.55859e-06
-4.83964e-07
3.53467e-06
-2.64788e-07
3.51996e-06
-3.14849e-07
3.52598e-06
-4.59489e-08
3.51049e-06
4.41391e-08
3.51643e-06
1.10981e-07
3.52856e-06
2.34841e-07
2.62687e-07
3.52983e-06
3.75303e-06
1.85922e-07
3.74868e-06
-5.17885e-07
3.77361e-06
7.74352e-07
3.70895e-06
-1.27714e-06
3.74096e-06
4.741e-07
3.73245e-06
4.31102e-07
3.76978e-06
4.50946e-07
3.7766e-06
5.61384e-07
3.79813e-06
2.4424e-07
3.76546e-06
-4.18431e-07
3.77774e-06
-1.04705e-07
3.73498e-06
-5.69291e-07
3.72816e-06
-4.77151e-07
3.70638e-06
-2.43011e-07
3.68909e-06
-2.97558e-07
3.69604e-06
-5.28989e-08
3.68219e-06
5.79948e-08
3.68493e-06
1.08243e-07
3.69898e-06
2.20793e-07
2.60384e-07
3.70128e-06
3.93248e-06
1.87629e-07
3.92781e-06
-5.13218e-07
3.95354e-06
7.48629e-07
3.88734e-06
-1.21094e-06
3.9208e-06
4.40645e-07
3.91148e-06
4.40422e-07
3.94901e-06
4.13416e-07
3.95681e-06
5.5358e-07
3.97621e-06
2.24847e-07
3.94664e-06
-3.88865e-07
3.95511e-06
-1.13171e-07
3.91484e-06
-5.29028e-07
3.90606e-06
-4.68365e-07
3.88622e-06
-2.23171e-07
3.8667e-06
-2.78041e-07
3.87413e-06
-6.0327e-08
3.86252e-06
6.95988e-08
3.86228e-06
1.08486e-07
3.87729e-06
2.05778e-07
2.56086e-07
3.88159e-06
4.12054e-06
1.8934e-07
4.11548e-06
-5.08155e-07
4.14208e-06
7.22023e-07
4.07437e-06
-1.14323e-06
4.10921e-06
4.05804e-07
4.09926e-06
4.5037e-07
4.13661e-06
3.76064e-07
4.14589e-06
5.44303e-07
4.16255e-06
2.08184e-07
4.13646e-06
-3.62774e-07
4.14125e-06
-1.17957e-07
4.10301e-06
-4.90785e-07
4.09267e-06
-4.58028e-07
4.07455e-06
-2.05053e-07
4.05314e-06
-2.56624e-07
4.06052e-06
-6.77145e-08
4.05169e-06
7.84361e-08
4.0488e-06
1.11372e-07
4.06368e-06
1.90899e-07
2.49007e-07
4.07076e-06
4.31763e-06
1.91008e-07
4.31207e-06
-5.02591e-07
4.33967e-06
6.94424e-07
4.27045e-06
-1.07402e-06
4.30658e-06
3.69681e-07
4.29624e-06
4.60705e-07
4.33296e-06
3.39348e-07
4.34423e-06
5.33036e-07
4.35768e-06
1.94729e-07
4.33513e-06
-3.40228e-07
4.33674e-06
-1.1956e-07
4.29985e-06
-4.53903e-07
4.28832e-06
-4.46494e-07
4.2719e-06
-1.88628e-07
4.24872e-06
-2.33448e-07
4.25556e-06
-7.45607e-08
4.24988e-06
8.41192e-08
4.24494e-06
1.16319e-07
4.25848e-06
1.77357e-07
2.38744e-07
4.26874e-06
4.5242e-06
1.9258e-07
4.51801e-06
-4.96399e-07
4.54673e-06
6.65707e-07
4.47605e-06
-1.00333e-06
4.51329e-06
3.32433e-07
4.50289e-06
4.71105e-07
4.53842e-06
3.03818e-07
4.55222e-06
5.19241e-07
4.56211e-06
1.84834e-07
4.5429e-06
-3.21016e-07
4.54207e-06
-1.18732e-07
4.50586e-06
-4.17692e-07
4.49334e-06
-4.33974e-07
4.4787e-06
-1.73989e-07
4.45389e-06
-2.08641e-07
4.45959e-06
-8.02574e-08
4.4573e-06
8.64072e-08
4.45112e-06
1.22497e-07
4.46231e-06
1.66174e-07
2.25601e-07
4.47545e-06
4.74071e-06
1.93989e-07
4.73374e-06
-4.8943e-07
4.76371e-06
6.35731e-07
4.69163e-06
-9.31249e-07
4.72978e-06
2.94282e-07
4.71972e-06
4.8116e-07
4.75342e-06
2.7012e-07
4.77023e-06
5.02434e-07
4.77642e-06
1.78647e-07
4.76006e-06
-3.04662e-07
4.75773e-06
-1.16398e-07
4.72157e-06
-3.81536e-07
4.70813e-06
-4.20531e-07
4.69539e-06
-1.61247e-07
4.66922e-06
-1.82471e-07
4.67306e-06
-8.40971e-08
4.67419e-06
8.52726e-08
4.66782e-06
1.28872e-07
4.67599e-06
1.58003e-07
2.10603e-07
4.69099e-06
4.96763e-06
1.95161e-07
4.95971e-06
-4.81513e-07
4.99108e-06
6.04355e-07
4.91772e-06
-8.57884e-07
4.95647e-06
2.55533e-07
4.94726e-06
4.90369e-07
4.9784e-06
2.38977e-07
4.99861e-06
4.82222e-07
5.0012e-06
1.76057e-07
4.98699e-06
-2.90449e-07
4.98413e-06
-1.13537e-07
4.94762e-06
-3.45026e-07
4.93307e-06
-4.05979e-07
4.92243e-06
-1.50605e-07
4.89536e-06
-1.55408e-07
4.89656e-06
-8.52911e-08
4.90091e-06
8.0923e-08
4.89542e-06
1.34359e-07
4.90037e-06
1.53049e-07
1.95193e-07
4.91578e-06
5.20546e-06
1.96013e-07
5.19641e-06
-4.72454e-07
5.22929e-06
5.71467e-07
5.15486e-06
-7.83454e-07
5.19382e-06
2.16582e-07
5.18602e-06
4.98162e-07
5.21385e-06
2.11149e-07
5.23772e-06
4.58357e-07
5.2371e-06
1.76671e-07
5.22412e-06
-2.77464e-07
5.22168e-06
-1.11103e-07
5.18468e-06
-3.08027e-07
5.16855e-06
-3.89847e-07
5.16037e-06
-1.42422e-07
5.13304e-06
-1.28082e-07
5.13083e-06
-8.30819e-08
5.13789e-06
7.38654e-08
5.13421e-06
1.3804e-07
5.1364e-06
1.50858e-07
1.81055e-07
5.15054e-06
5.45475e-06
1.96453e-07
5.44434e-06
-4.62047e-07
5.47881e-06
5.36999e-07
5.40364e-06
-7.08283e-07
5.4423e-06
1.77924e-07
5.43655e-06
5.03909e-07
5.46032e-06
1.87384e-07
5.48789e-06
4.3078e-07
5.48473e-06
1.79828e-07
5.47196e-06
-2.64694e-07
5.47073e-06
-1.09868e-07
5.43345e-06
-2.70747e-07
5.41516e-06
-3.71552e-07
5.40962e-06
-1.3689e-07
5.38288e-06
-1.01335e-07
5.3769e-06
-7.71045e-08
5.38561e-06
6.51517e-08
5.3844e-06
1.39251e-07
5.38481e-06
1.50448e-07
1.69458e-07
5.39641e-06
5.71603e-06
1.96383e-07
5.70406e-06
-4.50079e-07
5.7401e-06
5.00958e-07
5.66464e-06
-6.32827e-07
5.70241e-06
1.40156e-07
5.6994e-06
5.06924e-07
5.71842e-06
1.68357e-07
5.74953e-06
3.99678e-07
5.74474e-06
1.84619e-07
5.73115e-06
-2.51108e-07
5.73159e-06
-1.10312e-07
5.69462e-06
-2.33778e-07
5.67355e-06
-3.50477e-07
5.67049e-06
-1.33836e-07
5.64543e-06
-7.62662e-08
5.63562e-06
-6.73022e-08
5.64476e-06
5.60174e-08
5.64628e-06
1.37728e-07
5.64609e-06
1.50636e-07
1.60959e-07
5.65459e-06
5.98987e-06
1.95705e-07
5.97614e-06
-4.36345e-07
6.01366e-06
4.63439e-07
5.93851e-06
-5.57679e-07
5.9747e-06
1.03963e-07
5.97512e-06
5.06504e-07
5.98892e-06
1.54558e-07
6.02307e-06
3.65532e-07
6.01769e-06
1.89994e-07
6.00239e-06
-2.35805e-07
6.00461e-06
-1.12534e-07
5.96887e-06
-1.9804e-07
5.94451e-06
-3.2611e-07
5.94338e-06
-1.3271e-07
5.92108e-06
-5.39686e-08
5.90781e-06
-5.40285e-08
5.91616e-06
4.76628e-08
5.92024e-06
1.33652e-07
5.92044e-06
1.50438e-07
1.55214e-07
5.92618e-06
6.27688e-06
1.94313e-07
6.26119e-06
-4.20658e-07
6.3e-06
4.24632e-07
6.2259e-06
-4.83577e-07
6.25974e-06
7.01185e-08
6.26425e-06
5.01998e-07
6.27263e-06
1.46177e-07
6.30902e-06
3.29141e-07
6.30418e-06
1.94836e-07
6.28648e-06
-2.1811e-07
6.29022e-06
-1.16276e-07
6.25675e-06
-1.64562e-07
6.22891e-06
-2.98278e-07
6.22885e-06
-1.32646e-07
6.21014e-06
-3.52565e-08
6.19422e-06
-3.81085e-08
6.20067e-06
4.12138e-08
6.20684e-06
1.27475e-07
6.20807e-06
1.49213e-07
1.5132e-07
6.21196e-06
6.57767e-06
1.92108e-07
6.55989e-06
-4.02869e-07
6.59976e-06
3.84758e-07
6.52753e-06
-4.11345e-07
6.55819e-06
3.9461e-08
6.5673e-06
4.92886e-07
6.5704e-06
1.43073e-07
6.60794e-06
2.91605e-07
6.60474e-06
1.98034e-07
6.58432e-06
-1.97686e-07
6.58893e-06
-1.20891e-07
6.55873e-06
-1.34356e-07
6.52771e-06
-2.67261e-07
6.5275e-06
-1.32431e-07
6.51295e-06
-2.07105e-08
6.49542e-06
-2.05824e-08
6.49921e-06
3.74319e-08
6.50682e-06
1.1986e-07
6.50935e-06
1.46684e-07
1.48277e-07
6.51239e-06
6.89291e-06
1.88989e-07
6.8729e-06
-3.82855e-07
6.91361e-06
3.44042e-07
6.84407e-06
-3.41807e-07
6.87074e-06
1.27913e-08
6.88483e-06
4.78797e-07
6.88308e-06
1.4482e-07
6.92049e-06
2.54201e-07
6.91986e-06
1.98657e-07
6.89682e-06
-1.74643e-07
6.90138e-06
-1.2545e-07
6.87524e-06
-1.08212e-07
6.84178e-06
-2.33802e-07
6.84008e-06
-1.30733e-07
6.82979e-06
-1.04257e-08
6.81195e-06
-2.73404e-09
6.81265e-06
3.67319e-08
6.82101e-06
1.11493e-07
6.82486e-06
1.4284e-07
1.45435e-07
6.8277e-06
7.22326e-06
1.84862e-07
7.20093e-06
-3.60523e-07
7.24223e-06
3.0274e-07
7.17617e-06
-2.75749e-07
7.19815e-06
-9.18716e-09
7.21742e-06
4.59529e-07
7.21155e-06
1.50687e-07
7.24739e-06
2.18363e-07
7.25004e-06
1.96007e-07
7.22486e-06
-1.49466e-07
7.22831e-06
-1.28898e-07
7.20669e-06
-8.6594e-08
7.17182e-06
-1.9893e-07
7.16741e-06
-1.26317e-07
7.16106e-06
-4.08014e-09
7.14428e-06
1.40521e-08
7.1419e-06
3.91046e-08
7.1502e-06
1.03192e-07
7.15525e-06
1.37796e-07
1.42358e-07
7.15833e-06
7.56944e-06
1.79651e-07
7.54473e-06
-3.35821e-07
7.58631e-06
2.6116e-07
7.52449e-06
-2.13925e-07
7.54121e-06
-2.59036e-08
7.56556e-06
4.35179e-07
7.55672e-06
1.59524e-07
7.58944e-06
1.85638e-07
7.59575e-06
1.89705e-07
7.56923e-06
-1.22946e-07
7.57059e-06
-1.3026e-07
7.55354e-06
-6.95423e-08
7.51842e-06
-1.6381e-07
7.51046e-06
-1.1836e-07
7.50739e-06
-1.00618e-09
7.49271e-06
2.8732e-08
7.48786e-06
4.39473e-08
7.49515e-06
9.59041e-08
7.50132e-06
1.31626e-07
1.38836e-07
7.50484e-06
7.93216e-06
1.73304e-07
7.90513e-06
-3.08793e-07
7.94658e-06
2.19714e-07
7.88971e-06
-1.57058e-07
7.90075e-06
-3.69425e-08
7.92978e-06
4.06148e-07
7.9194e-06
1.69905e-07
7.94758e-06
1.57459e-07
7.9574e-06
1.79882e-07
7.93062e-06
-9.61654e-08
7.92908e-06
-1.28715e-07
7.91615e-06
-5.66115e-08
7.88198e-06
-1.29641e-07
7.87031e-06
-1.06698e-07
7.8694e-06
-8.95857e-11
7.85767e-06
4.04583e-08
7.8512e-06
5.04163e-08
7.85679e-06
9.03186e-08
7.8638e-06
1.24611e-07
1.34792e-07
7.86785e-06
8.31218e-06
1.65806e-07
8.28301e-06
-2.79621e-07
8.32376e-06
1.78966e-07
8.27257e-06
-1.05872e-07
8.27771e-06
-4.20805e-08
8.31084e-06
3.73017e-07
8.30025e-06
1.80495e-07
8.32267e-06
1.35035e-07
8.3355e-06
1.67059e-07
8.30956e-06
-7.02264e-08
8.30461e-06
-1.23764e-07
8.29502e-06
-4.7026e-08
8.26293e-06
-9.75472e-08
8.24796e-06
-9.17326e-08
8.24793e-06
-5.47236e-11
8.23954e-06
4.88464e-08
8.23247e-06
5.749e-08
8.23617e-06
8.66124e-08
8.2433e-06
1.17479e-07
1.29947e-07
8.24815e-06
8.71026e-06
1.57208e-07
8.67928e-06
-2.48638e-07
8.71858e-06
1.3966e-07
8.67377e-06
-6.10614e-08
8.67284e-06
-4.11439e-08
8.70839e-06
3.37458e-07
8.69939e-06
1.895e-07
8.71565e-06
1.18777e-07
8.73046e-06
1.52248e-07
8.70639e-06
-4.61612e-08
8.6978e-06
-1.15168e-07
8.69061e-06
-3.98358e-08
8.66174e-06
-6.86818e-08
8.64434e-06
-7.43366e-08
8.64407e-06
2.16609e-10
8.63885e-06
5.40679e-08
8.63222e-06
6.41202e-08
8.63415e-06
8.46794e-08
8.64086e-06
1.10773e-07
1.24427e-07
8.64638e-06
9.12719e-06
1.47634e-07
9.09498e-06
-2.16423e-07
9.13185e-06
1.02792e-07
9.09418e-06
-2.33922e-08
9.08719e-06
-3.41603e-08
9.1237e-06
3.00955e-07
9.11759e-06
1.95606e-07
9.12784e-06
1.08531e-07
9.14297e-06
1.37113e-07
9.12149e-06
-2.46811e-08
9.10936e-06
-1.03042e-07
9.10368e-06
-3.4155e-08
9.07907e-06
-4.40666e-08
9.06044e-06
-5.57065e-08
9.05903e-06
1.62435e-09
9.05646e-06
5.6637e-08
9.05094e-06
6.96442e-08
9.05152e-06
8.40958e-08
9.05755e-06
1.04746e-07
1.18639e-07
9.06334e-06
9.56381e-06
1.37282e-07
9.53126e-06
-1.83875e-07
9.56449e-06
6.95658e-08
9.53476e-06
6.33898e-09
9.52246e-06
-2.18561e-08
9.55774e-06
2.65668e-07
9.55526e-06
1.98084e-07
9.56034e-06
1.03451e-07
9.57429e-06
1.23166e-07
9.55577e-06
-6.16027e-09
9.5407e-06
-8.79665e-08
9.5358e-06
-2.92599e-08
9.5159e-06
-2.41636e-08
9.49708e-06
-3.68936e-08
9.49415e-06
4.5595e-09
9.49344e-06
5.73478e-08
9.48935e-06
7.37369e-08
9.48912e-06
8.43187e-08
9.49431e-06
9.95631e-08
1.1289e-07
9.50005e-06
1.0021e-05
1.26409e-07
9.9892e-06
-1.52068e-07
1.00176e-05
4.11891e-08
9.996e-06
2.79134e-08
9.97985e-06
-5.70545e-09
1.00118e-05
2.3377e-07
1.0013e-05
1.96868e-07
1.00142e-05
1.02177e-07
1.00262e-05
1.11241e-07
1.00105e-05
9.52453e-09
9.99366e-06
-7.11394e-08
9.98879e-06
-2.43936e-08
9.97321e-06
-8.58637e-09
9.95519e-06
-1.88745e-08
9.95064e-06
9.10984e-09
9.95092e-06
5.70718e-08
9.94845e-06
7.62004e-08
9.9478e-06
8.49773e-08
9.9521e-06
9.52588e-08
1.07286e-07
9.9577e-06
1.04998e-05
1.15299e-07
1.04697e-05
-1.22012e-07
1.04923e-05
1.85773e-08
1.04784e-05
4.18363e-08
1.04603e-05
1.24063e-08
1.04873e-05
2.06692e-07
1.04919e-05
1.92355e-07
1.04907e-05
1.03353e-07
1.05001e-05
1.01843e-07
1.0487e-05
2.25773e-08
1.04696e-05
-5.37531e-08
1.04641e-05
-1.88149e-08
1.0452e-05
3.45628e-09
1.04356e-05
-2.46608e-09
1.04297e-05
1.5044e-08
1.04302e-05
5.65801e-08
1.04293e-05
7.7102e-08
1.04285e-05
8.57362e-08
1.04319e-05
9.18965e-08
1.01769e-07
1.04374e-05
1.10011e-05
1.04226e-07
1.09736e-05
-9.44733e-08
1.09901e-05
1.98322e-09
1.09825e-05
4.94773e-08
1.09645e-05
3.03874e-08
1.09864e-05
1.84855e-07
1.09934e-05
1.85349e-07
1.09907e-05
1.06e-07
1.09974e-05
9.5145e-08
1.09868e-05
3.32164e-08
1.09696e-05
-3.65465e-08
1.0963e-05
-1.21953e-08
1.09535e-05
1.2901e-08
1.09392e-05
1.18777e-08
1.09323e-05
2.19093e-08
1.09324e-05
5.64516e-08
1.09328e-05
7.67711e-08
1.09324e-05
8.61039e-08
1.09348e-05
8.94889e-08
9.64782e-08
1.09401e-05
1.15262e-05
9.34227e-08
1.15016e-05
-6.98665e-08
1.15127e-05
-9.11121e-09
1.15095e-05
5.26171e-08
1.14934e-05
4.65139e-08
1.15103e-05
1.67941e-07
1.15186e-05
1.77069e-07
1.15153e-05
1.09256e-07
1.15195e-05
9.09681e-08
1.15107e-05
4.1998e-08
1.14943e-05
-2.01117e-08
1.14865e-05
-4.42267e-09
1.1479e-05
2.04459e-08
1.14667e-05
2.41774e-08
1.14595e-05
2.911e-08
1.1459e-05
5.68817e-08
1.14601e-05
7.57442e-08
1.14604e-05
8.5738e-08
1.14622e-05
8.77134e-08
9.18755e-08
1.14668e-05
1.20762e-05
8.30819e-08
1.20546e-05
-4.83477e-08
1.20611e-05
-1.55358e-08
1.20607e-05
5.29629e-08
1.20474e-05
5.98061e-08
1.20603e-05
1.55021e-07
1.20688e-05
1.68605e-07
1.20654e-05
1.1264e-07
1.20673e-05
8.9056e-08
1.20599e-05
4.94544e-08
1.20447e-05
-4.93864e-09
1.2036e-05
4.28297e-09
1.20296e-05
2.68653e-08
1.20192e-05
3.45338e-08
1.20122e-05
3.61581e-08
1.20112e-05
5.78524e-08
1.20124e-05
7.45413e-08
1.20136e-05
8.45497e-08
1.20152e-05
8.60927e-08
8.82115e-08
1.20189e-05
1.26523e-05
7.33596e-08
1.26339e-05
-2.9979e-08
1.26366e-05
-1.8161e-08
1.26376e-05
5.19127e-08
1.26274e-05
7.00397e-08
1.26374e-05
1.45038e-07
1.26455e-05
1.60523e-07
1.26419e-05
1.16178e-07
1.26419e-05
8.90599e-08
1.26355e-05
5.58615e-08
1.26218e-05
8.78319e-09
1.26126e-05
1.35127e-08
1.26067e-05
3.27238e-08
1.25981e-05
4.31168e-08
1.25914e-05
4.2825e-08
1.25901e-05
5.92104e-08
1.25913e-05
7.32804e-08
1.2593e-05
8.29396e-08
1.25949e-05
8.41303e-08
8.53537e-08
1.25978e-05
1.32559e-05
6.43736e-08
1.32406e-05
-1.46504e-08
1.32403e-05
-1.78439e-08
1.32418e-05
5.03414e-08
1.32342e-05
7.77014e-08
1.32422e-05
1.37016e-07
1.32495e-05
1.53179e-07
1.32459e-05
1.19848e-07
1.32443e-05
9.06056e-08
1.32387e-05
6.15255e-08
1.32267e-05
2.07707e-08
1.32174e-05
2.28343e-08
1.32117e-05
3.83669e-08
1.32046e-05
5.02768e-08
1.31985e-05
4.8929e-08
1.31968e-05
6.08605e-08
1.31981e-05
7.19362e-08
1.31999e-05
8.11934e-08
1.32023e-05
8.17433e-08
8.27995e-08
1.32048e-05
1.38884e-05
5.61829e-08
1.38762e-05
-2.52259e-09
1.38735e-05
-1.51076e-08
1.38749e-05
4.89361e-08
1.3869e-05
8.36266e-08
1.38755e-05
1.30495e-07
1.38823e-05
1.4641e-07
1.38787e-05
1.23384e-07
1.38759e-05
9.34655e-08
1.38707e-05
6.66475e-08
1.38605e-05
3.10458e-08
1.38516e-05
3.17496e-08
1.3846e-05
4.38849e-08
1.384e-05
5.63241e-08
1.38346e-05
5.43604e-08
1.38327e-05
6.27342e-08
1.3834e-05
7.05825e-08
1.38359e-05
7.92951e-08
1.38385e-05
7.92009e-08
8.00953e-08
1.38412e-05
1.4551e-05
4.88023e-08
1.45413e-05
7.17716e-09
1.4537e-05
-1.07817e-08
1.45379e-05
4.80786e-08
1.4533e-05
8.84555e-08
1.45384e-05
1.25182e-07
1.4545e-05
1.3975e-07
1.4542e-05
1.26439e-07
1.4538e-05
9.74049e-08
1.4533e-05
7.17003e-08
1.45244e-05
3.95912e-08
1.45163e-05
3.98884e-08
1.45111e-05
4.90896e-08
1.45059e-05
6.15429e-08
1.45011e-05
5.91244e-08
1.44991e-05
6.47583e-08
1.45004e-05
6.92913e-08
1.45025e-05
7.71936e-08
1.4505e-05
7.67016e-08
7.70841e-08
1.4508e-05
1.52455e-05
4.21744e-08
1.52379e-05
1.4775e-08
1.52325e-05
-5.40145e-09
1.52319e-05
4.86999e-08
1.52278e-05
9.2519e-08
1.5232e-05
1.20992e-07
1.5239e-05
1.32826e-07
1.5237e-05
1.28408e-07
1.52324e-05
1.01988e-07
1.5227e-05
7.70613e-08
1.52198e-05
4.68266e-08
1.52128e-05
4.68569e-08
1.52081e-05
5.38005e-08
1.52037e-05
6.59685e-08
1.51995e-05
6.3297e-08
1.51976e-05
6.67196e-08
1.51985e-05
6.83241e-08
1.5201e-05
7.4766e-08
1.52034e-05
7.4291e-08
7.40214e-08
1.52064e-05
1.59733e-05
3.62329e-08
1.59671e-05
2.09957e-08
1.59605e-05
1.10265e-09
1.59586e-05
5.06325e-08
1.59553e-05
9.58487e-08
1.59581e-05
1.18168e-07
1.59655e-05
1.25444e-07
1.59653e-05
1.28627e-07
1.59606e-05
1.06681e-07
1.59548e-05
8.2871e-08
1.59482e-05
5.34124e-08
1.59425e-05
5.25511e-08
1.59386e-05
5.768e-08
1.5935e-05
6.95865e-08
1.59315e-05
6.68277e-08
1.59296e-05
6.85953e-08
1.59302e-05
6.77266e-08
1.59327e-05
7.2221e-08
1.59353e-05
7.17067e-08
7.115e-08
1.59382e-05
1.67358e-05
3.10505e-08
1.67282e-05
2.85802e-08
1.67213e-05
7.97307e-09
1.67199e-05
5.20503e-08
1.67174e-05
9.83621e-08
1.67189e-05
1.16637e-07
1.67264e-05
1.17965e-07
1.67282e-05
1.26787e-07
1.67241e-05
1.10804e-07
1.67178e-05
8.91457e-08
1.67115e-05
5.97624e-08
1.67067e-05
5.73779e-08
1.67039e-05
6.04866e-08
1.67012e-05
7.22376e-08
1.66984e-05
6.96465e-08
1.66967e-05
7.02953e-08
1.6697e-05
6.73744e-08
1.66993e-05
6.9922e-08
1.67023e-05
6.87291e-08
6.85075e-08
1.6705e-05
1.75349e-05
2.65374e-08
1.7529e-05
3.44241e-08
1.75206e-05
1.63654e-08
1.75185e-05
5.42182e-08
1.75165e-05
1.00282e-07
1.75168e-05
1.16387e-07
1.75235e-05
1.11271e-07
1.75274e-05
1.22921e-07
1.75245e-05
1.13616e-07
1.7518e-05
9.56465e-08
1.75117e-05
6.61022e-08
1.75073e-05
6.17683e-08
1.75054e-05
6.24356e-08
1.75039e-05
7.37041e-08
1.75019e-05
7.16522e-08
1.75006e-05
7.16352e-08
1.75008e-05
6.71629e-08
1.75026e-05
6.80474e-08
1.75058e-05
6.55717e-08
6.57481e-08
1.75086e-05
1.83721e-05
2.27459e-08
1.83669e-05
3.96591e-08
1.83584e-05
2.49084e-08
1.83562e-05
5.63529e-08
1.83552e-05
1.01295e-07
1.83541e-05
1.1754e-07
1.83588e-05
1.06501e-07
1.83641e-05
1.1761e-07
1.83632e-05
1.14516e-07
1.83571e-05
1.01775e-07
1.83507e-05
7.25545e-08
1.83464e-05
6.60144e-08
1.8345e-05
6.38907e-08
1.83446e-05
7.40937e-08
1.83436e-05
7.25804e-08
1.83427e-05
7.25889e-08
1.83431e-05
6.6775e-08
1.83445e-05
6.66357e-08
1.83475e-05
6.25381e-08
6.26799e-08
1.83506e-05
1.92495e-05
1.9672e-08
1.92452e-05
4.38739e-08
1.92366e-05
3.35315e-08
1.92342e-05
5.87353e-08
1.92345e-05
1.01066e-07
1.92326e-05
1.19393e-07
1.92348e-05