/*--------------------------------*- C++ -*----------------------------------*\
| =========                 |                                                 |
| \\      /  F ield         | OpenFOAM: The Open Source CFD Toolbox           |
|  \\    /   O peration     | Version:  v1906                                 |
|   \\  /    A nd           | Web:      www.OpenFOAM.com                      |
|    \\/     M anipulation  |                                                 |
\*---------------------------------------------------------------------------*/
FoamFile
{
    version     2.0;
    format      ascii;
    class       volVectorField;
    location    "5.3";
    object      U;
}
// * * * * * * * * * * * * * * * * * * * * * * * * * * * * * * * * * * * * * //

dimensions      [0 1 -1 0 0 0 0];


internalField   nonuniform List<vector> 
9600
(
(0.991918 0.000858359 0)
(0.990027 -0.00689382 0)
(0.968072 0.0132807 0)
(1.02317 -0.0301674 0)
(0.932328 0.0185299 0)
(1.08292 0.00687894 0)
(0.95127 0.0116404 0)
(0.990651 0.0143831 0)
(0.967804 0.00955429 0)
(0.979288 -0.0300727 0)
(0.878432 0.00954168 0)
(1.0619 -0.0432524 0)
(0.816258 -0.00314821 0)
(1.14983 -0.0188627 0)
(0.803242 0.00262841 0)
(1.20411 0.00412789 0)
(0.799176 0.00622472 0)
(1.20045 0.0217327 0)
(0.853064 0.0147573 0)
(1.16618 0.0255462 0)
(0.993664 0.000986663 0)
(0.989905 -0.00665808 0)
(0.969014 0.0129723 0)
(1.02151 -0.0296676 0)
(0.934968 0.0180384 0)
(1.07606 0.00691627 0)
(0.957854 0.0123936 0)
(0.983162 0.0142901 0)
(0.973304 0.00955322 0)
(0.975429 -0.028283 0)
(0.895032 0.00771272 0)
(1.03475 -0.0412962 0)
(0.835661 -0.00575554 0)
(1.11231 -0.0179766 0)
(0.832359 0.000853297 0)
(1.15911 0.00470765 0)
(0.860485 0.00642775 0)
(1.12878 0.0197916 0)
(0.961631 0.016856 0)
(1.04537 0.0233453 0)
(0.996741 0.00108331 0)
(0.989654 -0.00644631 0)
(0.971374 0.0126352 0)
(1.01766 -0.029291 0)
(0.941209 0.0172825 0)
(1.06341 0.00681854 0)
(0.970422 0.0133098 0)
(0.974774 0.0141647 0)
(0.978813 0.00964094 0)
(0.975392 -0.0274012 0)
(0.915078 0.00666306 0)
(1.01538 -0.0402893 0)
(0.873963 -0.00743106 0)
(1.06681 -0.0177097 0)
(0.890259 -0.000494004 0)
(1.09102 0.0041889 0)
(0.937831 0.00685021 0)
(1.05232 0.0173129 0)
(1.01499 0.01852 0)
(1.01443 0.0222806 0)
(1.0003 0.00115679 0)
(0.98942 -0.00623623 0)
(0.975216 0.0123615 0)
(1.0116 -0.0289649 0)
(0.950071 0.0166733 0)
(1.04929 0.00662474 0)
(0.984391 0.0141217 0)
(0.97253 0.0141533 0)
(0.98461 0.00956886 0)
(0.977869 -0.0264657 0)
(0.934326 0.00594829 0)
(0.997962 -0.0395337 0)
(0.912587 -0.00845007 0)
(1.02978 -0.0180782 0)
(0.945157 -0.00100686 0)
(1.04307 0.00310694 0)
(0.988812 0.00732932 0)
(1.02068 0.0160969 0)
(1.02459 0.0187175 0)
(1.01983 0.0225067 0)
(1.0034 0.00121146 0)
(0.989322 -0.00601837 0)
(0.980582 0.0121343 0)
(1.00392 -0.0286809 0)
(0.959745 0.0162312 0)
(1.03712 0.00639223 0)
(0.99576 0.0148187 0)
(0.977027 0.0142361 0)
(0.991537 0.00948662 0)
(0.982849 -0.025669 0)
(0.949645 0.00548256 0)
(0.988667 -0.0389991 0)
(0.940658 -0.00915569 0)
(1.00747 -0.0186915 0)
(0.978824 -0.00123424 0)
(1.02377 0.00209124 0)
(1.01245 0.00777707 0)
(1.0192 0.0157259 0)
(1.02729 0.0182878 0)
(1.02638 0.0231452 0)
(1.00544 0.00125178 0)
(0.98926 -0.005819 0)
(0.987445 0.0119608 0)
(0.995718 -0.0284061 0)
(0.968853 0.0158109 0)
(1.02799 0.00614171 0)
(1.00278 0.0153489 0)
(0.984803 0.0143487 0)
(0.999552 0.00942167 0)
(0.988782 -0.0249191 0)
(0.961708 0.00519326 0)
(0.985666 -0.038532 0)
(0.956581 -0.00971923 0)
(0.995691 -0.0192914 0)
(0.993543 -0.00175449 0)
(1.01881 0.00136122 0)
(1.02147 0.0078392 0)
(1.02436 0.0154582 0)
(1.03131 0.0179438 0)
(1.03076 0.0236001 0)
(1.00632 0.00128503 0)
(0.989023 -0.00566495 0)
(0.995331 0.0118552 0)
(0.988235 -0.0281207 0)
(0.97668 0.0153454 0)
(1.02115 0.00591482 0)
(1.00546 0.015691 0)
(0.992449 0.0144236 0)
(1.00785 0.00937638 0)
(0.994527 -0.0241776 0)
(0.972267 0.00500412 0)
(0.986515 -0.0380285 0)
(0.964656 -0.0101605 0)
(0.989182 -0.019854 0)
(0.997484 -0.00254777 0)
(1.01657 0.000766651 0)
(1.02398 0.0073959 0)
(1.02751 0.0152808 0)
(1.03424 0.0176302 0)
(1.03376 0.0237015 0)
(1.00639 0.00132008 0)
(0.988543 -0.00557355 0)
(1.00321 0.0118131 0)
(0.982422 -0.0278086 0)
(0.982898 0.0148474 0)
(1.01543 0.00575257 0)
(1.00483 0.0158653 0)
(0.998487 0.0144062 0)
(1.01562 0.00934399 0)
(0.999275 -0.0234393 0)
(0.982403 0.00485384 0)
(0.988941 -0.0374087 0)
(0.969519 -0.0104996 0)
(0.985261 -0.020326 0)
(0.996751 -0.00344748 0)
(1.01346 0.000144356 0)
(1.02328 0.00672239 0)
(1.02823 0.015234 0)
(1.0355 0.0171734 0)
(1.03579 0.0236464 0)
(1.0061 0.00136345 0)
(0.988008 -0.00554939 0)
(1.00988 0.0118178 0)
(0.978751 -0.0274612 0)
(0.987405 0.0143348 0)
(1.0103 0.00567697 0)
(1.00251 0.0158896 0)
(1.00302 0.0142592 0)
(1.02237 0.00932337 0)
(1.00275 -0.0227157 0)
(0.992024 0.00471165 0)
(0.991737 -0.0366319 0)
(0.973879 -0.0107763 0)
(0.982954 -0.0206185 0)
(0.994542 -0.00441739 0)
(1.00954 -0.000480995 0)
(1.02082 0.00595177 0)
(1.02753 0.0151358 0)
(1.03584 0.0165856 0)
(1.03737 0.0235487 0)
(1.00575 0.00141667 0)
(0.98774 -0.0055832 0)
(1.01445 0.0118479 0)
(0.977257 -0.0270783 0)
(0.99029 0.0138181 0)
(1.00602 0.00568895 0)
(1.00029 0.0157683 0)
(1.00661 0.0139786 0)
(1.02774 0.00931572 0)
(1.00511 -0.0220131 0)
(1.00026 0.0045576 0)
(0.994419 -0.0356969 0)
(0.978444 -0.0110008 0)
(0.981887 -0.0206814 0)
(0.992139 -0.00544499 0)
(1.00529 -0.00103353 0)
(1.01722 0.0050112 0)
(1.02578 0.0148752 0)
(1.03537 0.0159211 0)
(1.03836 0.0233167 0)
(1.00544 0.00147645 0)
(0.987991 -0.00565586 0)
(1.0166 0.0118831 0)
(0.977684 -0.0266642 0)
(0.991759 0.0133067 0)
(1.00312 0.00576712 0)
(0.999401 0.0155127 0)
(1.00953 0.0135916 0)
(1.03143 0.00931454 0)
(1.00674 -0.0213232 0)
(1.00612 0.00437195 0)
(0.996878 -0.0346265 0)
(0.982741 -0.0111992 0)
(0.981821 -0.0204967 0)
(0.989867 -0.00646875 0)
(1.00092 -0.00149738 0)
(1.01261 0.00389227 0)
(1.02273 0.0144673 0)
(1.03338 0.0151945 0)
(1.03779 0.0228424 0)
(1.00517 0.00153688 0)
(0.988814 -0.00574489 0)
(1.01663 0.0119075 0)
(0.979612 -0.0262224 0)
(0.992021 0.0128039 0)
(1.00172 0.00587285 0)
(1.00011 0.0151512 0)
(1.01155 0.0131435 0)
(1.03321 0.00932475 0)
(1.00803 -0.0206192 0)
(1.0092 0.00414218 0)
(0.999098 -0.0334609 0)
(0.986015 -0.0113978 0)
(0.982461 -0.020072 0)
(0.987779 -0.00742905 0)
(0.996529 -0.0018687 0)
(1.00709 0.0026856 0)
(1.01802 0.0139381 0)
(1.02921 0.0144409 0)
(1.03468 0.02211 0)
(1.0049 0.00159211 0)
(0.990056 -0.00583012 0)
(1.01516 0.0119092 0)
(0.982504 -0.0257536 0)
(0.991288 0.0123092 0)
(1.00136 0.00596716 0)
(1.0018 0.0147222 0)
(1.01232 0.0126952 0)
(1.03314 0.00933154 0)
(1.00916 -0.0198814 0)
(1.0099 0.00386084 0)
(1.00103 -0.0322353 0)
(0.987897 -0.0116121 0)
(0.983419 -0.0194387 0)
(0.985999 -0.00830495 0)
(0.992372 -0.00208775 0)
(1.00117 0.001504 0)
(1.01185 0.013306 0)
(1.02299 0.0137348 0)
(1.02894 0.0211627 0)
(1.00463 0.00163823 0)
(0.991452 -0.00589771 0)
(1.01299 0.0118784 0)
(0.985791 -0.0252558 0)
(0.989879 0.011823 0)
(1.0013 0.00602683 0)
(1.00357 0.0142636 0)
(1.01179 0.0122924 0)
(1.03161 0.00930032 0)
(1.01007 -0.0191107 0)
(1.0092 0.00352637 0)
(1.0026 -0.0309705 0)
(0.988626 -0.0118478 0)
(0.984335 -0.0186483 0)
(0.984728 -0.00909576 0)
(0.98878 -0.00214249 0)
(0.995684 0.000440407 0)
(1.00507 0.0125906 0)
(1.01569 0.0131485 0)
(1.02157 0.0200618 0)
(1.00435 0.00167442 0)
(0.992746 -0.00594296 0)
(1.01077 0.0118112 0)
(0.988991 -0.0247264 0)
(0.988228 0.0113486 0)
(1.001 0.00604806 0)
(1.00471 0.0137957 0)
(1.01028 0.0119529 0)
(1.02924 0.00921309 0)
(1.01066 -0.0183105 0)
(1.00807 0.00313818 0)
(1.00379 -0.0296705 0)
(0.988798 -0.0120951 0)
(0.985009 -0.017764 0)
(0.984064 -0.00978008 0)
(0.98597 -0.00208826 0)
(0.991282 -0.000416302 0)
(0.998754 0.0118124 0)
(1.00856 0.0127365 0)
(1.01401 0.0188841 0)
(1.0041 0.00170222 0)
(0.993798 -0.00596735 0)
(1.00885 0.0117078 0)
(0.991809 -0.0241645 0)
(0.986731 0.0108931 0)
(1.0003 0.00604116 0)
(1.00502 0.0133257 0)
(1.00827 0.0116785 0)
(1.02661 0.00905885 0)
(1.01091 -0.0174929 0)
(1.00706 0.00269583 0)
(1.00465 -0.0283237 0)
(0.988934 -0.012357 0)
(0.985422 -0.016819 0)
(0.983905 -0.0103619 0)
(0.983912 -0.00193916 0)
(0.98808 -0.00107112 0)
(0.993569 0.0109886 0)
(1.0024 0.0125126 0)
(1.0073 0.0177089 0)
(1.00389 0.00172379 0)
(0.994593 -0.00597404 0)
(1.00733 0.0115691 0)
(0.994137 -0.0235699 0)
(0.985586 0.0104627 0)
(0.999316 0.00602491 0)
(1.00466 0.0128525 0)
(1.00623 0.011457 0)
(1.02412 0.0088353 0)
(1.0109 -0.0166711 0)
(1.00624 0.00221007 0)
(1.00527 -0.0269384 0)
(0.989265 -0.0126237 0)
(0.98565 -0.015824 0)
(0.984056 -0.0108524 0)
(0.982412 -0.00172299 0)
(0.985774 -0.00151871 0)
(0.989564 0.0101329 0)
(0.997359 0.0124337 0)
(1.00174 0.0166049 0)
(1.0037 0.0017412 0)
(0.995186 -0.00596675 0)
(1.00615 0.0113982 0)
(0.995971 -0.0229439 0)
(0.984804 0.010058 0)
(0.998273 0.00601577 0)
(1.00394 0.0123681 0)
(1.0044 0.0112725 0)
(1.02195 0.00854456 0)
(1.01075 -0.0158429 0)
(1.00552 0.0016819 0)
(1.00566 -0.0255205 0)
(0.989783 -0.0128858 0)
(0.985768 -0.0147991 0)
(0.984368 -0.0112503 0)
(0.981295 -0.00152352 0)
(0.984027 -0.00171621 0)
(0.986488 0.00926132 0)
(0.993208 0.0124458 0)
(0.997157 0.0156342 0)
(1.00353 0.00175626 0)
(0.995642 -0.00594881 0)
(1.0052 0.0111994 0)
(0.997347 -0.0222877 0)
(0.984327 0.00967487 0)
(0.99734 0.00602105 0)
(1.00319 0.0118684 0)
(1.00292 0.0111107 0)
(1.02015 0.00819349 0)
(1.01056 -0.0150073 0)
(1.00485 0.00112809 0)
(1.00584 -0.0240926 0)
(0.990394 -0.013125 0)
(0.985819 -0.0137638 0)
(0.984773 -0.0115398 0)
(0.980499 -0.0013431 0)
(0.982679 -0.00166937 0)
(0.98416 0.00839179 0)
(0.9898 0.0124898 0)
(0.993387 0.0148288 0)
(1.00337 0.00177017 0)
(0.996009 -0.00592271 0)
(1.00444 0.0109776 0)
(0.998322 -0.021602 0)
(0.984108 0.00930369 0)
(0.996611 0.0060437 0)
(1.00257 0.0113495 0)
(1.0018 0.0109663 0)
(1.01867 0.00779118 0)
(1.01037 -0.0141658 0)
(1.00423 0.000548267 0)
(1.00581 -0.0226727 0)
(0.99102 -0.0133358 0)
(0.985834 -0.0127381 0)
(0.985245 -0.0116896 0)
(0.980035 -0.00120446 0)
(0.981703 -0.001406 0)
(0.982541 0.00755284 0)
(0.987144 0.0125098 0)
(0.99042 0.0141989 0)
(1.00321 0.0017837 0)
(0.996317 -0.00589087 0)
(1.0038 0.0107384 0)
(0.99897 -0.0208892 0)
(0.984115 0.00893549 0)
(0.996107 0.00608423 0)
(1.00215 0.0108087 0)
(1.00101 0.0108378 0)
(1.01746 0.00734862 0)
(1.01017 -0.0133195 0)
(1.00368 -4.42408e-05 0)
(1.00561 -0.0212704 0)
(0.991614 -0.0135097 0)
(0.985845 -0.0117498 0)
(0.985747 -0.0117082 0)
(0.979907 -0.00114864 0)
(0.981097 -0.00097656 0)
(0.981618 0.0067779 0)
(0.98529 0.0124724 0)
(0.988287 0.0137552 0)
(1.00306 0.0017974 0)
(0.996585 -0.00585521 0)
(1.00327 0.0104851 0)
(0.999376 -0.0201505 0)
(0.984303 0.00856184 0)
(0.9958 0.00614306 0)
(1.0019 0.0102478 0)
(1.00049 0.0107171 0)
(1.01643 0.00688869 0)
(1.00999 -0.0124771 0)
(1.0032 -0.000611004 0)
(1.00529 -0.0199102 0)
(0.992155 -0.0136115 0)
(0.985879 -0.0108112 0)
(0.986248 -0.0116059 0)
(0.980088 -0.00114954 0)
(0.980815 -0.000423651 0)
(0.98131 0.00609506 0)
(0.984206 0.0123494 0)
(0.986936 0.0134803 0)
(1.00292 0.00181185 0)
(0.996823 -0.00581661 0)
(1.00281 0.0102194 0)
(0.999617 -0.0193886 0)
(0.984624 0.00817749 0)
(0.995643 0.00621975 0)
(1.00178 0.00967094 0)
(1.00016 0.0106024 0)
(1.01552 0.00641182 0)
(1.00982 -0.0116438 0)
(1.00276 -0.00114693 0)
(1.00489 -0.018596 0)
(0.99264 -0.0136419 0)
(0.985958 -0.00992968 0)
(0.986722 -0.0113805 0)
(0.980523 -0.00121747 0)
(0.980789 0.000184738 0)
(0.981477 0.00551985 0)
(0.983771 0.0121153 0)
(0.986227 0.0133461 0)
(1.0028 0.00182701 0)
(0.997038 -0.00577565 0)
(1.0024 0.009944 0)
(0.999752 -0.0186043 0)
(0.985035 0.00777717 0)
(0.995584 0.0063141 0)
(1.00174 0.00907182 0)
(0.999955 0.0105005 0)
(1.01469 0.00592387 0)
(1.00966 -0.0108231 0)
(1.00236 -0.00162778 0)
(1.00447 -0.017347 0)
(0.993075 -0.0136018 0)
(0.98609 -0.00910857 0)
(0.987158 -0.0110456 0)
(0.981151 -0.00135505 0)
(0.980949 0.00080878 0)
(0.981967 0.00505949 0)
(0.983829 0.0117417 0)
(0.985987 0.0133106 0)
(1.00269 0.0018428 0)
(0.997233 -0.00573317 0)
(1.00203 0.00966047 0)
(0.999824 -0.0177965 0)
(0.985507 0.00735716 0)
(0.995582 0.006423 0)
(1.00175 0.00845511 0)
(0.999836 0.0103967 0)
(1.0139 0.00545264 0)
(1.00952 -0.0100372 0)
(1.00199 -0.00203288 0)
(1.00404 -0.0161709 0)
(0.993478 -0.0135032 0)
(0.986276 -0.00835302 0)
(0.987553 -0.0106006 0)
(0.98192 -0.00154404 0)
(0.98124 0.00142501 0)
(0.98264 0.00472568 0)
(0.984231 0.0112303 0)
(0.986061 0.0133205 0)
(1.00259 0.00185933 0)
(0.997414 -0.00568798 0)
(1.0017 0.00936745 0)
(0.999859 -0.0169696 0)
(0.986022 0.00691621 0)
(0.995604 0.00654615 0)
(1.00179 0.00783047 0)
(0.999767 0.0102809 0)
(1.01314 0.00500812 0)
(1.00938 -0.00931008 0)
(1.00164 -0.00234899 0)
(1.00362 -0.0150675 0)
(0.993863 -0.0133394 0)
(0.986516 -0.00766357 0)
(0.98791 -0.0100747 0)
(0.982782 -0.00176791 0)
(0.981622 0.00201191 0)
(0.983384 0.00452926 0)
(0.984858 0.0106023 0)
(0.98633 0.0133136 0)
(1.0025 0.00187698 0)
(0.997584 -0.0056412 0)
(1.00139 0.00906715 0)
(0.99987 -0.0161213 0)
(0.98657 0.0064509 0)
(0.99563 0.00668752 0)
(1.00185 0.00719982 0)
(0.999726 0.0101538 0)
(1.01239 0.0046103 0)
(1.00925 -0.00863731 0)
(1.00133 -0.00257985 0)
(1.00319 -0.0140249 0)
(0.994249 -0.0131097 0)
(0.986799 -0.00703369 0)
(0.988235 -0.00948763 0)
(0.983705 -0.00202277 0)
(0.982078 0.00254537 0)
(0.984117 0.00447339 0)
(0.985617 0.00987626 0)
(0.986723 0.0132034 0)
(1.00242 0.0018943 0)
(0.997749 -0.00558959 0)
(1.0011 0.00875736 0)
(0.999862 -0.0152525 0)
(0.987143 0.00597088 0)
(0.995652 0.00683956 0)
(1.00192 0.00656882 0)
(0.999701 0.0100063 0)
(1.01165 0.00425165 0)
(1.00912 -0.00804381 0)
(1.00106 -0.00271811 0)
(1.00277 -0.0130361 0)
(0.994645 -0.0128407 0)
(0.987122 -0.00645727 0)
(0.988534 -0.00881795 0)
(0.984662 -0.00229391 0)
(0.982604 0.00298189 0)
(0.984787 0.00455368 0)
(0.986439 0.0091021 0)
(0.987209 0.0129326 0)
(1.00234 0.00191133 0)
(0.997915 -0.00553239 0)
(1.00083 0.00843756 0)
(0.999837 -0.0143676 0)
(0.987736 0.00547091 0)
(0.995666 0.00699959 0)
(1.00199 0.00594543 0)
(0.999685 0.00982386 0)
(1.01091 0.00394252 0)
(1.00898 -0.00753725 0)
(1.00082 -0.00276497 0)
(1.00234 -0.0120896 0)
(0.995056 -0.0125452 0)
(0.987483 -0.00592832 0)
(0.98881 -0.00807727 0)
(0.98563 -0.00256228 0)
(0.983207 0.00328785 0)
(0.985375 0.00475698 0)
(0.987273 0.00836725 0)
(0.987788 0.0124739 0)
(1.00226 0.00192841 0)
(0.998084 -0.00547039 0)
(1.00058 0.00810517 0)
(0.999797 -0.013462 0)
(0.988347 0.00494593 0)
(0.995675 0.00716441 0)
(1.00208 0.00534015 0)
(0.999677 0.00959651 0)
(1.01018 0.00371436 0)
(1.00882 -0.00710372 0)
(1.00063 -0.0027555 0)
(1.0019 -0.0111576 0)
(0.99548 -0.0122198 0)
(0.987884 -0.00544536 0)
(0.989065 -0.00728528 0)
(0.986593 -0.00281266 0)
(0.983896 0.0034463 0)
(0.98589 0.00505707 0)
(0.988076 0.0077485 0)
(0.988458 0.0118184 0)
(1.00217 0.00194362 0)
(0.998259 -0.00539959 0)
(1.00035 0.00775633 0)
(0.999744 -0.0125349 0)
(0.988973 0.00440838 0)
(0.995684 0.00732619 0)
(1.00217 0.00475928 0)
(0.999677 0.00931874 0)
(1.00946 0.00355724 0)
(1.00864 -0.00674103 0)
(1.00048 -0.00270804 0)
(1.00145 -0.01023 0)
(0.99591 -0.0118696 0)
(0.98833 -0.00502513 0)
(0.989296 -0.00643847 0)
(0.987533 -0.00300657 0)
(0.984682 0.00345497 0)
(0.986355 0.00539866 0)
(0.988808 0.00728807 0)
(0.989209 0.0110009 0)
(1.00207 0.00195701 0)
(0.998437 -0.0053195 0)
(1.00014 0.007392 0)
(0.999679 -0.0115887 0)
(0.989613 0.00385871 0)
(0.995693 0.00748134 0)
(1.00225 0.00421584 0)
(0.999686 0.00898135 0)
(1.00874 0.00348158 0)
(1.00845 -0.00643136 0)
(1.00037 -0.00264249 0)
(1.00098 -0.00929192 0)
(0.996335 -0.0115002 0)
(0.988829 -0.00467536 0)
(0.98951 -0.00555232 0)
(0.988434 -0.00308992 0)
(0.985558 0.00331896 0)
(0.986803 0.00571221 0)
(0.989442 0.0070168 0)
(0.990015 0.0101121 0)
(1.00197 0.00196783 0)
(0.998617 -0.00522796 0)
(0.999942 0.00700916 0)
(0.999605 -0.0106273 0)
(0.990264 0.00330502 0)
(0.995708 0.00761423 0)
(1.00233 0.00372599 0)
(0.999709 0.00857498 0)
(1.00803 0.00347936 0)
(1.00824 -0.00615469 0)
(1.0003 -0.00258464 0)
(1.00052 -0.0083305 0)
(0.996744 -0.0110931 0)
(0.989387 -0.00439048 0)
(0.989713 -0.00463641 0)
(0.989276 -0.00306847 0)
(0.986512 0.00304859 0)
(0.987273 0.00593963 0)
(0.989968 0.00692107 0)
(0.990824 0.00927407 0)
(1.00187 0.00197479 0)
(0.998798 -0.00512309 0)
(0.999768 0.00660748 0)
(0.999524 -0.00965399 0)
(0.990926 0.00275237 0)
(0.99573 0.00772352 0)
(1.00239 0.00329505 0)
(0.999748 0.00809782 0)
(1.00732 0.00353152 0)
(1.00801 -0.005888 0)
(1.00028 -0.00254342 0)
(1.00005 -0.00735977 0)
(0.997123 -0.0106276 0)
(0.990011 -0.00419345 0)
(0.989913 -0.00371978 0)
(0.99004 -0.0029227 0)
(0.987525 0.00268759 0)
(0.987798 0.00604172 0)
(0.990399 0.00694709 0)
(0.99158 0.00858845 0)
(1.00177 0.00197717 0)
(0.998976 -0.0050011 0)
(0.999616 0.00618411 0)
(0.999435 -0.00867454 0)
(0.991595 0.00220786 0)
(0.995763 0.00779482 0)
(1.00243 0.00293845 0)
(0.999809 0.00755109 0)
(1.00663 0.00362687 0)
(1.00775 -0.00561176 0)
(1.0003 -0.0025454 0)
(0.999597 -0.00639208 0)
(0.997458 -0.0100824 0)
(0.9907 -0.00407844 0)
(0.990129 -0.00286721 0)
(0.990713 -0.00263309 0)
(0.988569 0.00229531 0)
(0.988403 0.00600709 0)
(0.99077 0.00702453 0)
(0.992237 0.0081116 0)
(1.00167 0.00197377 0)
(0.999149 -0.00486073 0)
(0.999491 0.00574166 0)
(0.999339 -0.00769656 0)
(0.992266 0.00168534 0)
(0.995808 0.00781557 0)
(1.00245 0.0026671 0)
(0.999894 0.00694448 0)
(1.00595 0.00373346 0)
(1.00748 -0.00530375 0)
(1.00037 -0.00259637 0)
(0.99917 -0.00544416 0)
(0.99774 -0.00943888 0)
(0.991442 -0.00403201 0)
(0.990381 -0.00208658 0)
(0.991295 -0.00220552 0)
(0.989615 0.00192889 0)
(0.989094 0.00584556 0)
(0.991119 0.00707369 0)
(0.992772 0.00782274 0)
(1.00157 0.00196335 0)
(0.999317 -0.00469875 0)
(0.999394 0.00528186 0)
(0.999236 -0.00672508 0)
(0.992935 0.00118967 0)
(0.995871 0.00778095 0)
(1.00243 0.00248579 0)
(1 0.0062912 0)
(1.0053 0.00383453 0)
(1.00717 -0.00494018 0)
(1.00048 -0.00268849 0)
(0.99878 -0.00454584 0)
(0.997955 -0.00869917 0)
(0.992229 -0.00403583 0)
(0.99069 -0.00141567 0)
(0.991784 -0.00165746 0)
(0.990628 0.00162727 0)
(0.989864 0.00558164 0)
(0.991485 0.00704963 0)
(0.993197 0.00766622 0)
(1.00148 0.0019456 0)
(0.999476 -0.00451648 0)
(0.999328 0.0048076 0)
(0.999129 -0.00577078 0)
(0.993595 0.000732686 0)
(0.995954 0.00767234 0)
(1.00239 0.0023996 0)
(1.00013 0.00560863 0)
(1.00469 0.00391708 0)
(1.00684 -0.00451301 0)
(1.00064 -0.00281208 0)
(0.998443 -0.00373018 0)
(0.998101 -0.00786545 0)
(0.993039 -0.00405013 0)
(0.991076 -0.000874842 0)
(0.992197 -0.00103226 0)
(0.991579 0.00142878 0)
(0.990698 0.0052481 0)
(0.991897 0.00694344 0)
(0.993548 0.00757031 0)
(1.00138 0.00191996 0)
(0.999626 -0.00431151 0)
(0.999293 0.00432482 0)
(0.999018 -0.00484789 0)
(0.994241 0.000328269 0)
(0.996062 0.00748968 0)
(1.00232 0.00239835 0)
(1.00028 0.004919 0)
(1.00412 0.0039597 0)
(1.00647 -0.00402534 0)
(1.00082 -0.00292918 0)
(0.998174 -0.00301975 0)
(0.998178 -0.0069483 0)
(0.993851 -0.00403093 0)
(0.99155 -0.000468169 0)
(0.992551 -0.00038552 0)
(0.992445 0.00135735 0)
(0.991573 0.00487744 0)
(0.99237 0.00676924 0)
(0.993864 0.00746366 0)
(1.0013 0.0018834 0)
(0.999765 -0.00407823 0)
(0.999291 0.00383424 0)
(0.998905 -0.00396564 0)
(0.994868 -9.1754e-06 0)
(0.996198 0.00722797 0)
(1.00221 0.00247162 0)
(1.00044 0.00424751 0)
(1.0036 0.00393225 0)
(1.00607 -0.00348436 0)
(1.00103 -0.00303141 0)
(0.997983 -0.00242612 0)
(0.998196 -0.00597666 0)
(0.994638 -0.00393574 0)
(0.992113 -0.000199674 0)
(0.992878 0.000264225 0)
(0.993213 0.00141898 0)
(0.992463 0.00450415 0)
(0.992905 0.00654958 0)
(0.994177 0.00732533 0)
(1.00121 0.0018364 0)
(0.999891 -0.00381979 0)
(0.99932 0.00333753 0)
(0.998793 -0.00313367 0)
(0.995467 -0.000278384 0)
(0.996366 0.00688125 0)
(1.00207 0.00260411 0)
(1.0006 0.00362283 0)
(1.00315 0.00383417 0)
(1.00564 -0.00290637 0)
(1.00125 -0.00308989 0)
(0.99788 -0.00194761 0)
(0.998169 -0.00498981 0)
(0.995378 -0.00374266 0)
(0.992765 -6.88845e-05 0)
(0.993205 0.000851152 0)
(0.993869 0.0015932 0)
(0.993343 0.00415949 0)
(0.993503 0.00627626 0)
(0.994508 0.00715897 0)
(1.00113 0.00177951 0)
(1 -0.00353869 0)
(0.99938 0.00284303 0)
(0.998686 -0.00236599 0)
(0.996031 -0.000471542 0)
(0.996569 0.00645873 0)
(1.00191 0.0027749 0)
(1.00075 0.00307341 0)
(1.00276 0.00366221 0)
(1.0052 -0.00231967 0)
(1.00145 -0.00307983 0)
(0.997867 -0.00158423 0)
(0.998114 -0.00401327 0)
(0.996044 -0.003437 0)
(0.993483 -3.5321e-05 0)
(0.993567 0.00132219 0)
(0.99443 0.00184968 0)
(0.994181 0.00387687 0)
(0.994155 0.00594359 0)
(0.994875 0.00696829 0)
(1.00106 0.00170844 0)
(1.0001 -0.00322734 0)
(0.999466 0.00234985 0)
(0.998586 -0.00166474 0)
(0.996555 -0.00058207 0)
(0.996805 0.00596602 0)
(1.00173 0.00295723 0)
(1.00088 0.00261596 0)
(1.00244 0.00342507 0)
(1.00475 -0.00174859 0)
(1.00164 -0.00299773 0)
(0.997943 -0.00131741 0)
(0.998056 -0.00308944 0)
(0.996622 -0.00301892 0)
(0.994244 -3.10958e-05 0)
(0.993983 0.00167484 0)
(0.994909 0.00214527 0)
(0.99495 0.00368994 0)
(0.994849 0.00558586 0)
(0.995295 0.00674274 0)
(1.00099 0.0016277 0)
(1.00017 -0.00289282 0)
(0.999576 0.00186918 0)
(0.998499 -0.0010431 0)
(0.997031 -0.000605781 0)
(0.997071 0.0054206 0)
(1.00155 0.0031198 0)
(1.00098 0.00227449 0)
(1.00219 0.00314225 0)
(1.00431 -0.00121388 0)
(1.0018 -0.00283255 0)
(0.998098 -0.00111686 0)
(0.998012 -0.00224989 0)
(0.99711 -0.00251476 0)
(0.995016 -3.37543e-05 0)
(0.994461 0.00189428 0)
(0.995342 0.00243082 0)
(0.995641 0.00359294 0)
(0.995558 0.00522889 0)
(0.995776 0.00645299 0)
(1.00093 0.00153457 0)
(1.00022 -0.00253734 0)
(0.999706 0.00141483 0)
(0.99843 -0.000512242 0)
(0.997454 -0.00054301 0)
(0.997362 0.00485774 0)
(1.00138 0.00324737 0)
(1.00105 0.00205146 0)
(1.00199 0.002839 0)
(1.00388 -0.00073042 0)
(1.00193 -0.00258225 0)
(0.998323 -0.000960847 0)
(0.998 -0.00151555 0)
(0.997506 -0.00195104 0)
(0.995769 -7.7555e-06 0)
(0.995003 0.00201234 0)
(0.995752 0.00267428 0)
(0.996246 0.00356391 0)
(0.996249 0.00491686 0)
(0.996313 0.00612261 0)
(1.00088 0.00143212 0)
(1.00026 -0.00217432 0)
(0.999847 0.000995193 0)
(0.998384 -7.54519e-05 0)
(0.997822 -0.000404662 0)
(0.997668 0.00430289 0)
(1.00123 0.00331261 0)
(1.00108 0.00192342 0)
(1.00183 0.00254982 0)
(1.00349 -0.000310405 0)
(1.00202 -0.00225238 0)
(0.998598 -0.000824627 0)
(0.998035 -0.000906197 0)
(0.997826 -0.00137304 0)
(0.996477 7.1155e-05 0)
(0.995595 0.00205467 0)
(0.996165 0.00285454 0)
(0.996783 0.00357695 0)
(0.996902 0.00466613 0)
(0.996879 0.00579768 0)
(1.00083 0.00132416 0)
(1.00027 -0.00181734 0)
(0.999996 0.000629987 0)
(0.998364 0.000247932 0)
(0.998138 -0.000198293 0)
(0.997978 0.00378936 0)
(1.0011 0.00330512 0)
(1.00109 0.00186987 0)
(1.00171 0.00229704 0)
(1.00314 5.11273e-05 0)
(1.00208 -0.0018673 0)
(0.998906 -0.000696558 0)
(0.998123 -0.000421858 0)
(0.998087 -0.000818722 0)
(0.997127 0.000208439 0)
(0.996219 0.0020544 0)
(0.996592 0.002976 0)
(0.997262 0.00361044 0)
(0.997508 0.00446067 0)
(0.997454 0.00549861 0)
(1.00079 0.00121002 0)
(1.00026 -0.00147372 0)
(1.00014 0.000332302 0)
(0.998375 0.000466037 0)
(0.998408 5.95512e-05 0)
(0.998279 0.00334191 0)
(1.00099 0.0032447 0)
(1.00107 0.00187171 0)
(1.00162 0.00208946 0)
(1.00283 0.000360379 0)
(1.00211 -0.00145666 0)
(0.999227 -0.00056385 0)
(0.998266 -4.84662e-05 0)
(0.998312 -0.00029669 0)
(0.997709 0.000399317 0)
(0.996857 0.00203588 0)
(0.997047 0.00303518 0)
(0.997697 0.0036544 0)
(0.998062 0.00429166 0)
(0.998018 0.00521419 0)
(1.00075 0.0010986 0)
(1.00023 -0.00116093 0)
(1.00028 0.000102293 0)
(0.998417 0.000597212 0)
(0.998638 0.000326324 0)
(0.998564 0.0029796 0)
(1.00092 0.00314367 0)
(1.00103 0.00190904 0)
(1.00155 0.00192913 0)
(1.00256 0.000612519 0)
(1.00211 -0.00103984 0)
(0.999546 -0.000403559 0)
(0.998463 0.000236915 0)
(0.998521 0.00017504 0)
(0.99822 0.000614828 0)
(0.997484 0.0020183 0)
(0.997531 0.00303368 0)
(0.998105 0.00368614 0)
(0.998556 0.00416321 0)
(0.99857 0.00493929 0)
(1.00072 0.000988959 0)
(1.00019 -0.000878581 0)
(1.00041 -5.69204e-05 0)
(0.998488 0.000656666 0)
(0.998843 0.000565041 0)
(0.998829 0.00270324 0)
(1.00087 0.00301565 0)
(1.00098 0.00195972 0)
(1.00149 0.0018244 0)
(1.00234 0.000817905 0)
(1.00209 -0.000638599 0)
(0.999848 -0.000218004 0)
(0.998702 0.000460486 0)
(0.998725 0.000576059 0)
(0.998665 0.000842305 0)
(0.998087 0.00202157 0)
(0.99804 0.00299688 0)
(0.998507 0.00368793 0)
(0.998994 0.0040857 0)
(0.999096 0.00468929 0)
(1.00069 0.000881252 0)
(1.00014 -0.00062764 0)
(1.00053 -0.000154525 0)
(0.998583 0.000675347 0)
(0.999027 0.000766134 0)
(0.999071 0.00248 0)
(1.00084 0.00287929 0)
(1.00093 0.0020159 0)
(1.00144 0.00177005 0)
(1.00216 0.000987697 0)
(1.00207 -0.000271814 0)
(1.00013 -3.90653e-06 0)
(0.998974 0.000649079 0)
(0.998935 0.000903365 0)
(0.999056 0.00107596 0)
(0.998651 0.00204506 0)
(0.998559 0.0029423 0)
(0.998919 0.00365471 0)
(0.999384 0.00403557 0)
(0.999569 0.00448873 0)
(1.00067 0.000781139 0)
(1.00008 -0.000412464 0)
(1.00062 -0.000205244 0)
(0.998696 0.000669947 0)
(0.999197 0.000921156 0)
(0.999292 0.0023025 0)
(1.00083 0.00274649 0)
(1.00088 0.00208041 0)
(1.00139 0.00175115 0)
(1.00201 0.00113863 0)
(1.00205 6.00329e-05 0)
(1.00039 0.000235026 0)
(0.99926 0.000823442 0)
(0.999155 0.00118239 0)
(0.999404 0.00129898 0)
(0.999171 0.00207958 0)
(0.999078 0.00288418 0)
(0.999348 0.00358838 0)
(0.999753 0.00397217 0)
(0.999979 0.0043512 0)
(1.00065 0.000686558 0)
(1.00002 -0.000230021 0)
(1.0007 -0.000215828 0)
(0.998823 0.000652967 0)
(0.999357 0.0010398 0)
(0.999495 0.00216198 0)
(1.00084 0.00262083 0)
(1.00083 0.00214927 0)
(1.00134 0.00176522 0)
(1.0019 0.00126169 0)
(1.00203 0.000363581 0)
(1.00063 0.00048207 0)
(0.999558 0.000998235 0)
(0.999385 0.00142521 0)
(0.999712 0.00150683 0)
(0.999646 0.00212859 0)
(0.999583 0.00282764 0)
(0.999783 0.00350525 0)
(1.00012 0.00387128 0)
(1.00034 0.00424634 0)
(1.00064 0.000600505 0)
(0.99996 -8.21321e-05 0)
(1.00077 -0.000195758 0)
(0.998961 0.000634796 0)
(0.99951 0.00113238 0)
(0.99968 0.00204577 0)
(1.00088 0.00250024 0)
(1.00079 0.0022195 0)
(1.00129 0.00181787 0)
(1.0018 0.00136893 0)
(1.00203 0.000621925 0)
(1.00085 0.000721541 0)
(0.999857 0.00116341 0)
(0.999621 0.00163157 0)
(0.99999 0.00170188 0)
(1.00008 0.00219157 0)
(1.00007 0.00276329 0)
(1.00021 0.00341502 0)
(1.0005 0.00374593 0)
(1.00068 0.00413185 0)
(1.00063 0.000523412 0)
(0.999898 3.35123e-05 0)
(1.00083 -0.000152188 0)
(0.999107 0.000624087 0)
(0.999659 0.00120401 0)
(0.999852 0.00194661 0)
(1.00094 0.00238507 0)
(1.00078 0.00228622 0)
(1.00124 0.00189843 0)
(1.00173 0.00148095 0)
(1.00204 0.000826117 0)
(1.00106 0.000931206 0)
(1.00016 0.00131699 0)
(0.999869 0.00181134 0)
(1.00024 0.00188262 0)
(1.00045 0.00226238 0)
(1.00053 0.00269638 0)
(1.00064 0.00331529 0)
(1.00088 0.00361948 0)
(1.00101 0.00398642 0)
(1.00062 0.000453531 0)
(0.99984 0.000126549 0)
(1.00087 -9.4371e-05 0)
(0.999257 0.000627142 0)
(0.999804 0.00126962 0)
(1.00001 0.00186709 0)
(1.00102 0.00226745 0)
(1.00078 0.00233795 0)
(1.00119 0.00198728 0)
(1.00165 0.00159881 0)
(1.00205 0.00100396 0)
(1.00127 0.00110591 0)
(1.00046 0.0014521 0)
(1.00013 0.00196346 0)
(1.00048 0.00204276 0)
(1.00078 0.00234763 0)
(1.00096 0.00265009 0)
(1.00107 0.00320821 0)
(1.00125 0.00349686 0)
(1.00136 0.00382203 0)
(1.00062 0.000395856 0)
(0.999787 0.000194912 0)
(1.00091 -2.62329e-05 0)
(0.999413 0.000643929 0)
(0.999946 0.00132781 0)
(1.00015 0.00181608 0)
(1.00112 0.00213943 0)
(1.00081 0.00236245 0)
(1.00115 0.00208842 0)
(1.00159 0.00172846 0)
(1.00207 0.00116721 0)
(1.00147 0.00125567 0)
(1.00077 0.00155422 0)
(1.0004 0.00208434 0)
(1.00071 0.00218008 0)
(1.00106 0.00244001 0)
(1.00133 0.00262776 0)
(1.00147 0.00308994 0)
(1.00162 0.00336833 0)
(1.0017 0.00365783 0)
(1.00061 0.000337928 0)
(0.999737 0.000271153 0)
(1.00094 5.25629e-05 0)
(0.999571 0.000668472 0)
(1.00009 0.00137754 0)
(1.00028 0.00178491 0)
(1.00123 0.00200709 0)
(1.00088 0.00233587 0)
(1.00112 0.00218815 0)
(1.00152 0.00186547 0)
(1.00209 0.00131941 0)
(1.00167 0.00138815 0)
(1.00108 0.00162875 0)
(1.00069 0.00216634 0)
(1.00095 0.00228747 0)
(1.00132 0.00252188 0)
(1.00166 0.00262925 0)
(1.00186 0.00298283 0)
(1.00198 0.00322823 0)
(1.00202 0.00350745 0)
(1.00061 0.00028595 0)
(0.999693 0.000349829 0)
(1.00097 0.000144214 0)
(0.999728 0.000688382 0)
(1.00022 0.00141605 0)
(1.00038 0.00178044 0)
(1.00134 0.00188482 0)
(1.00098 0.00226406 0)
(1.00112 0.00225377 0)
(1.00145 0.0020183 0)
(1.00209 0.00147283 0)
(1.00184 0.00150414 0)
(1.00138 0.00168595 0)
(1.00099 0.00220953 0)
(1.00119 0.00236013 0)
(1.00155 0.0025835 0)
(1.00194 0.0026445 0)
(1.0022 0.00290691 0)
(1.00234 0.00307439 0)
(1.00234 0.00336218 0)
(1.00061 0.000246521 0)
(0.999654 0.00040859 0)
(1.00098 0.000245153 0)
(0.999877 0.000707792 0)
(1.00036 0.00143687 0)
(1.00046 0.00180572 0)
(1.00144 0.00179106 0)
(1.00111 0.00216373 0)
(1.00116 0.002279 0)
(1.0014 0.00216305 0)
(1.00208 0.00163949 0)
(1.002 0.00161521 0)
(1.00168 0.00173163 0)
(1.0013 0.00222222 0)
(1.00145 0.00239446 0)
(1.00178 0.00262062 0)
(1.00219 0.00264787 0)
(1.00249 0.0028618 0)
(1.00268 0.00293204 0)
(1.00264 0.00321118 0)
(1.00061 0.000210038 0)
(0.999621 0.000461297 0)
(1.00098 0.000350054 0)
(1.00002 0.000736064 0)
(1.0005 0.00143657 0)
(1.00053 0.00183917 0)
(1.00151 0.00174098 0)
(1.00126 0.00205278 0)
(1.00125 0.00226029 0)
(1.00138 0.0022797 0)
(1.00206 0.00180656 0)
(1.00212 0.00173486 0)
(1.00195 0.0017703 0)
(1.00162 0.00221049 0)
(1.00172 0.00238982 0)
(1.00201 0.00263327 0)
(1.00242 0.00262584 0)
(1.00273 0.00282413 0)
(1.00297 0.0028227 0)
(1.00295 0.00304629 0)
(1.00061 0.000182708 0)
(0.999595 0.000499608 0)
(1.00097 0.000455091 0)
(1.00014 0.000773314 0)
(1.00064 0.0014147 0)
(1.00058 0.00186658 0)
(1.00155 0.00174062 0)
(1.00139 0.0019627 0)
(1.00137 0.00219312 0)
(1.00138 0.00236462 0)
(1.00204 0.0019607 0)
(1.00221 0.00185907 0)
(1.00219 0.00181361 0)
(1.00193 0.00219021 0)
(1.002 0.00235191 0)
(1.00223 0.00261706 0)
(1.00265 0.0025897 0)
(1.00296 0.00276515 0)
(1.00321 0.00273871 0)
(1.00323 0.00288189 0)