/*--------------------------------*- C++ -*----------------------------------*\
| =========                 |                                                 |
| \\      /  F ield         | OpenFOAM: The Open Source CFD Toolbox           |
|  \\    /   O peration     | Version:  v1812                                 |
|   \\  /    A nd           | Web:      www.OpenFOAM.com                      |
|    \\/     M anipulation  |                                                 |
\*---------------------------------------------------------------------------*/
FoamFile
{
    version     2.0;
    format      ascii;
    class       volScalarField;
    location    "1.6";
    object      p;
}
// * * * * * * * * * * * * * * * * * * * * * * * * * * * * * * * * * * * * * //

dimensions      [0 2 -2 0 0 0 0];


internalField   nonuniform List<scalar> 
9600
(
-8.29077e-11
0.00117445
0.00159266
0.00106329
0.000642262
0.00320479
0.00246683
0.00130485
0.00234293
0.00337859
0.0026112
0.0044441
0.00469314
0.0057042
0.00624101
0.00693138
0.00852701
0.0100406
0.0121595
0.017728
7.77876e-06
0.00117005
0.00158948
0.00107388
0.000650745
0.00318593
0.00246304
0.00130383
0.0023427
0.00338494
0.00261569
0.00442404
0.00469646
0.00568979
0.00624355
0.00690422
0.00852955
0.00995613
0.0121656
0.01708
1.40538e-05
0.00116526
0.00158772
0.00108377
0.00065665
0.00315964
0.00245973
0.0013088
0.00234471
0.00339032
0.00262031
0.00440428
0.00470353
0.00566386
0.00624426
0.00686846
0.00852473
0.00988181
0.0121374
0.0164263
2.0989e-05
0.00116434
0.00158571
0.00109056
0.000663501
0.00313341
0.00245547
0.00132128
0.00234764
0.00339266
0.00262632
0.0043837
0.00471214
0.00562956
0.00624407
0.00682868
0.00851965
0.00981041
0.0120769
0.0158118
2.96346e-05
0.00116711
0.00158186
0.00109556
0.00067418
0.00310714
0.00244909
0.0013401
0.00235058
0.00339258
0.00263413
0.00436119
0.00472106
0.00559098
0.00624551
0.00678529
0.00851704
0.00972997
0.0119897
0.0152519
4.02384e-05
0.00117257
0.00157569
0.00109963
0.000689348
0.00308028
0.00244106
0.00136301
0.00235358
0.00339067
0.0026431
0.00433627
0.00473002
0.00555127
0.00624737
0.00673962
0.00851364
0.00964073
0.0118781
0.0147313
5.26345e-05
0.00117991
0.00156723
0.00110341
0.000708642
0.00305327
0.00243235
0.00138816
0.00235709
0.0033873
0.002653
0.00431104
0.00473909
0.00551117
0.00624868
0.0066925
0.00850568
0.00954786
0.0117387
0.0142385
6.65034e-05
0.00118833
0.00155695
0.00110737
0.000731327
0.00302657
0.00242367
0.00141435
0.00236162
0.00338278
0.00266376
0.00428487
0.00474832
0.00547062
0.00624918
0.00664387
0.00849121
0.00945371
0.0115683
0.0137699
8.15096e-05
0.00119723
0.00154553
0.00111175
0.000756501
0.00300022
0.0024154
0.00144084
0.00236747
0.00337726
0.00267528
0.00425755
0.00475772
0.00542956
0.00624814
0.00659413
0.00846822
0.00935911
0.0113669
0.0133228
9.74185e-05
0.0012063
0.00153361
0.00111649
0.000783357
0.00297408
0.00240771
0.00146717
0.00237471
0.00337085
0.00268735
0.00422899
0.00476728
0.00538782
0.00624466
0.00654427
0.00843417
0.00926478
0.0111362
0.0128929
0.000114123
0.00121536
0.00152155
0.00112151
0.000811327
0.00294789
0.00240065
0.00149303
0.00238328
0.00336363
0.00269977
0.00419911
0.00477682
0.00534545
0.00623784
0.00649531
0.00838678
0.00917103
0.010879
0.0124746
0.000131604
0.00122431
0.00150956
0.00112673
0.000840051
0.00292138
0.00239428
0.00151797
0.0023931
0.0033557
0.0027123
0.00416789
0.00478607
0.00530278
0.00622655
0.00644802
0.00832439
0.00907727
0.0105995
0.0120618
0.000149884
0.00123307
0.00149775
0.00113211
0.000869299
0.00289434
0.00238868
0.00154194
0.00240407
0.00334717
0.00272466
0.00413545
0.0047946
0.00526013
0.00620963
0.00640284
0.00824597
0.00898177
0.0103027
0.0116501
0.000169
0.00124158
0.00148618
0.00113762
0.000898944
0.00286669
0.00238393
0.0015648
0.00241604
0.00333823
0.00273658
0.00410194
0.0048018
0.00521798
0.0061861
0.00635983
0.00815134
0.00888143
0.00999423
0.0112369
0.000188996
0.00124978
0.00147491
0.00114327
0.000928912
0.00283835
0.0023801
0.00158646
0.00242881
0.00332914
0.00274771
0.00406748
0.00480712
0.00517676
0.00615508
0.00631847
0.00804123
0.00877273
0.00967972
0.0108215
0.000209919
0.00125761
0.00146399
0.00114905
0.000959153
0.00280931
0.00237726
0.00160686
0.00244211
0.00332014
0.00275767
0.00403235
0.00481013
0.00513666
0.00611603
0.00627755
0.00791698
0.00865292
0.00936359
0.0104033
0.000231814
0.001265
0.00145347
0.00115498
0.000989628
0.00277955
0.00237543
0.00162601
0.0024556
0.00331154
0.00276607
0.00399683
0.00481039
0.00509768
0.00606895
0.00623537
0.00778003
0.00851996
0.00904881
0.00998288
0.000254727
0.00127189
0.00144338
0.00116107
0.0010203
0.00274911
0.00237458
0.001644
0.00246886
0.00330369
0.00277256
0.00396098
0.00480713
0.00505953
0.00601421
0.00619011
0.00763155
0.0083727
0.0087375
0.00956105
0.000278703
0.00127821
0.00143376
0.00116736
0.00105109
0.00271804
0.00237464
0.00166098
0.00248145
0.00329692
0.00277696
0.00392481
0.00479982
0.0050214
0.00595229
0.00614025
0.00747235
0.00821118
0.0084313
0.00913922
0.000303774
0.00128391
0.00142461
0.00117392
0.0010819
0.00268644
0.00237553
0.00167709
0.00249294
0.00329146
0.00277921
0.0038881
0.00479039
0.00498228
0.00588359
0.00608469
0.00730295
0.00803596
0.00813157
0.00871898
0.000329972
0.00128895
0.00141594
0.0011808
0.00111261
0.00265445
0.00237712
0.00169253
0.0025029
0.00328748
0.00277938
0.00385043
0.00477871
0.00494123
0.00580804
0.00602309
0.00712369
0.00784708
0.00783964
0.00830252
0.000357322
0.00129331
0.00140772
0.00118809
0.00114305
0.00262231
0.00237929
0.00170745
0.00251097
0.00328496
0.00277759
0.00381114
0.00476539
0.00489758
0.00572502
0.0059557
0.00693516
0.00764409
0.00755644
0.00789239
0.000385837
0.001297
0.00139988
0.00119592
0.00117304
0.00259016
0.00238192
0.00172201
0.0025168
0.00328377
0.00277426
0.0037694
0.00475066
0.00485123
0.00563362
0.00588257
0.0067387
0.00742667
0.00728204
0.00749095
0.0004155
0.00130008
0.00139235
0.0012044
0.00120242
0.00255818
0.0023849
0.00173635
0.00252016
0.00328363
0.00277011
0.00372437
0.00473406
0.0048024
0.00553282
0.00580317
0.0065362
0.00719466
0.00701606
0.00710067
0.000446293
0.00130261
0.00138502
0.00121372
0.00123099
0.00252651
0.00238812
0.00175062
0.00252103
0.00328391
0.00276569
0.00367552
0.00471489
0.00475144
0.00542175
0.00571662
0.00632989
0.0069483
0.00675817
0.00672495
0.000478189
0.00130471
0.0013777
0.00122404
0.00125865
0.00249529
0.0023916
0.00176481
0.00251957
0.00328397
0.00276131
0.00362256
0.0046922
0.00469864
0.00529974
0.00562182
0.00612221
0.00668809
0.00650731
0.00636843
0.000511125
0.00130655
0.00137019
0.00123546
0.00128532
0.00246462
0.00239543
0.00177856
0.00251579
0.0032835
0.00275725
0.00356541
0.00466496
0.00464413
0.00516639
0.00551762
0.00591596
0.00641475
0.0062603
0.00603664
0.000544994
0.00130837
0.00136233
0.00124799
0.00131103
0.00243446
0.00239985
0.00179147
0.00250965
0.00328221
0.00275336
0.00350414
0.00463229
0.00458803
0.0050217
0.00540263
0.00571427
0.0061304
0.00601125
0.00573364
0.000579671
0.00131047
0.00135397
0.00126164
0.00133584
0.00240453
0.00240514
0.00180337
0.00250094
0.00327989
0.00274929
0.00343847
0.00459313
0.00453047
0.00486612
0.00527514
0.00552007
0.00583996
0.00575273
0.00545812
0.000615012
0.00131319
0.00134495
0.00127629
0.00136002
0.00237455
0.00241175
0.00181432
0.00248901
0.0032765
0.00274502
0.0033677
0.00454627
0.0044719
0.00470075
0.00513335
0.00533465
0.00555048
0.00547918
0.00520143
0.000650814
0.00131688
0.0013352
0.00129156
0.00138407
0.00234414
0.00241995
0.00182429
0.00247287
0.00327196
0.00274058
0.00329099
0.00449054
0.00441294
0.00452752
0.00497576
0.00515677
0.0052687
0.00519078
0.00495058
0.000686856
0.00132195
0.0013248
0.00130698
0.00140849
0.00231275
0.00242969
0.00183408
0.00245154
0.00326581
0.00273615
0.00320757
0.00442458
0.0043544
0.00434918
0.00480155
0.00498362
0.00499918
0.00489326
0.00469368
0.000722901
0.00132873
0.00131395
0.00132191
0.00143395
0.00227997
0.00244062
0.00184524
0.00242398
0.00325696
0.00273238
0.0031169
0.00434637
0.00429738
0.00416937
0.00461032
0.00481197
0.00474378
0.00459365
0.00442522
0.000758712
0.00133753
0.00130303
0.00133543
0.00146124
0.00224588
0.00245188
0.00185934
0.00238952
0.00324346
0.00273015
0.00301898
0.00425325
0.00424272
0.0039926
0.00440175
0.00463838
0.00450341
0.00429698
0.00414619
0.000794084
0.00134856
0.00129267
0.00134649
0.00149071
0.00221084
0.00246207
0.00187845
0.00234828
0.00322232
0.00272983
0.00291491
0.00414308
0.00418993
0.003824
0.00417637
0.00445899
0.00427966
0.00400677
0.00385935
0.000828839
0.00136189
0.00128375
0.00135405
0.00152228
0.00217563
0.00246948
0.00190363
0.00230129
0.00319038
0.00273079
0.0028075
0.00401511
0.00413644
0.00366813
0.00393654
0.00426907
0.00407371
0.00372722
0.00356645
0.000862823
0.00137754
0.00127734
0.00135724
0.00155521
0.00214163
0.00247241
0.00193483
0.0022502
0.00314499
0.00273228
0.0027007
0.00386958
0.00407816
0.00352814
0.00368673
0.0040629
0.00388379
0.00346489
0.00326973
0.000895937
0.00139533
0.00127468
0.00135541
0.00158933
0.00211044
0.00246945
0.00197215
0.00219724
0.00308456
0.00273329
0.00259873
0.00370765
0.00400976
0.00340539
0.00343327
0.00383519
0.00370393
0.00322705
0.00297491
0.000928156
0.00141486
0.00127695
0.00134839
0.00162268
0.00208349
0.00245961
0.00201531
0.00214493
0.00300924
0.0027315
0.00250465
0.00353182
0.00392626
0.00329904
0.00318343
0.00358362
0.00352465
0.0030177
0.00269223
0.000959536
0.00143564
0.00128502
0.00133671
0.00165057
0.00206154
0.00244239
0.00205316
0.00209585
0.00292052
0.00272659
0.00242059
0.00334653
0.00382452
0.00320602
0.00294404
0.00331032
0.00333545
0.00283456
0.00243365
0.000990246
0.00145708
0.00129952
0.00132167
0.00167182
0.00204452
0.00241763
0.00208646
0.00205262
0.00282152
0.00270882
0.00234776
0.00315633
0.0037029
0.00312184
0.00272075
0.00302119
0.0031281
0.00266956
0.00220739
0.00102055
0.00147841
0.00132089
0.00130522
0.00168439
0.0020316
0.00238584
0.00211209
0.00201653
0.00271701
0.00267947
0.00228225
0.00296421
0.00356028
0.00304164
0.00251825
0.00272391
0.00289848
0.00251183
0.00201448
0.00105079
0.00149881
0.00134914
0.00128979
0.00168642
0.0020211
0.00234813
0.00212677
0.00198755
0.00261182
0.0026381
0.00222161
0.00277265
0.0033964
0.00296035
0.00234004
0.00242685
0.00264577
0.00235074
0.00184961
0.00108134
0.00151756
0.00138383
0.00127787
0.00167732
0.00201081
0.00230578
0.00212825
0.00196414
0.00250939
0.00258623
0.00216477
0.00258423
0.00321218
0.00287216
0.00218759
0.00213909
0.00237178
0.00217805
0.00170437
0.00111262
0.00153403
0.00142395
0.0012716
0.00165681
0.00199813
0.00226076
0.00211596
0.00194246
0.00241507
0.00252682
0.00211051
0.00240141
0.00300978
0.0027707
0.00205867
0.0018704
0.00208155
0.00198774
0.00156954
0.0011451
0.00154771
0.00146758
0.00127282
0.00162496
0.00197968
0.00221615
0.00209208
0.001918
0.00232444
0.00246154
0.00205838
0.00222659
0.00279275
0.00265056
0.00194656
0.00162903
0.00178424
0.00177616
0.00143596
0.00117921
0.00155841
0.0015119
0.00128276
0.00157486
0.00195074
0.00217485
0.00206234
0.00188707
0.00223369
0.00239042
0.0020084
0.00206195
0.00256547
0.00250856
0.00184267
0.00141853
0.00149171
0.00154392
0.00129511
0.00121529
0.00156621
0.00155376
0.00130207
0.00152871
0.00190888
0.0021371
0.00203194
0.00184841
0.00213946
0.00231274
0.00195969
0.00191041
0.00233344
0.0023438
0.00173854
0.00123667
0.00121441
0.00129647
0.00114085
0.00125349
0.00157151
0.00159027
0.00133041
0.00148169
0.00185291
0.00209947
0.00200416
0.001805
0.00203962
0.0022259
0.00190972
0.00177453
0.00210307
0.00215781
0.00162671
0.00107853
0.00095882
0.00104176
0.000971267
0.00129372
0.00157518
0.00161914
0.00136603
0.00143822
0.00178265
0.00205567
0.00198051
0.00176184
0.0019345
0.00212626
0.00185549
0.00165411
0.00188094
0.00195566
0.00150138
0.000937489
0.000727862
0.000787114
0.000787961
0.00133575
0.0015782
0.0016391
0.00140562
0.00140236
0.00170069
0.00199997
0.00195982
0.00172344
0.0018255
0.00201228
0.00179308
0.00154688
0.00167282
0.0017449
0.00136023
0.000805388
0.000521852
0.000538553
0.000593317
0.00137907
0.00158135
0.0016494
0.00144471
0.00137707
0.00161203
0.00192836
0.00193724
0.00169284
0.00171896
0.00188564
0.00171691
0.00144886
0.00148198
0.0015324
0.00120558
0.000675312
0.000338672
0.000301857
0.000389598
0.00142287
0.00158637
0.00165056
0.00147875
0.00136324
0.00152357
0.00184003
0.00190521
0.00166956
0.00162208
0.00175002
0.00162295
0.00135451
0.00130868
0.00132428
0.00104198
0.000543729
0.000173988
8.18631e-05
0.000179758
0.00146615
0.00159375
0.00164427
0.00150424
0.00135941
0.00144212
0.00173641
0.00185676
0.0016507
0.00153884
0.00161138
0.00151194
0.00125639
0.00114989
0.00112537
0.00087399
0.000410392
2.35353e-05
-0.000118425
-3.1119e-05
0.00150787
0.0016037
0.0016326
0.00151879
0.00136234
0.00137245
0.00162217
0.00178766
0.00162972
0.00146998
0.00147781
0.00138799
0.00114919
0.00100082
0.000936975
0.000705626
0.000276029
-0.000115555
-0.000297675
-0.000235927
0.00154718
0.00161588
0.00161821
0.00152122
0.00136933
0.00131687
0.00150593
0.00169717
0.00159731
0.00141351
0.00135626
0.00125627
0.00103233
0.000856045
0.000757722
0.000539746
0.000141518
-0.000246048
-0.000456086
-0.000427201
0.00158245
0.00162947
0.00160356
0.0015121
0.00137166
0.00127541
0.00139597
0.00158783
0.00154532
0.00136457
0.00125065
0.0011243
0.000907998
0.00071253
0.000584882
0.000377075
8.72893e-06
-0.000370397
-0.000595957
-0.000598328
0.00161342
0.00164326
0.00159021
0.00149349
0.00136614
0.00124426
0.00129699
0.00146596
0.00147086
0.00131354
0.00116019
0.00100042
0.000779562
0.000569312
0.00041652
0.000215894
-0.000121371
-0.000489172
-0.000721962
-0.000746333
0.00163969
0.00165574
0.00157892
0.00146823
0.00135034
0.00121817
0.00121143
0.00134052
0.00137566
0.00125099
0.00108051
0.000889894
0.000653932
0.000428008
0.000252807
5.47261e-05
-0.000250652
-0.00060141
-0.000838116
-0.000873816
0.00166125
0.00166568
0.00156937
0.00143935
0.00132374
0.00119096
0.00113879
0.00121984
0.00126341
0.00117229
0.00100422
0.000791756
0.000537932
0.000291839
9.47719e-05
-0.000105303
-0.000382153
-0.000707827
-0.0009451
-0.000986225
0.00167831
0.00167213
0.00156065
0.0014092
0.00128724
0.00115779
0.00107651
0.00110925
0.00114144
0.00107681
0.000924061
0.000703147
0.000434207
0.000166178
-5.47823e-05
-0.000261525
-0.000516559
-0.000812222
-0.00104257
-0.00108746
0.001691
0.00167443
0.0015512
0.0013789
0.00124278
0.00111631
0.00101916
0.00100997
0.00101907
0.000967392
0.000834488
0.000619533
0.000341864
5.49692e-05
-0.000191389
-0.000410037
-0.000651278
-0.00091811
-0.00113254
-0.00117847
0.00169936
0.00167207
0.0015393
0.00134928
0.00119344
0.00106581
0.000961365
0.00092027
0.000902889
0.00084986
0.000733576
0.000534872
0.000259029
-4.1428e-05
-0.000310812
-0.000545668
-0.000781225
-0.00102487
-0.00121856
-0.00125971
0.00170325
0.0016651
0.00152347
0.00131968
0.00114213
0.00100712
0.000899327
0.000837412
0.000794917
0.000732225
0.000625235
0.000444539
0.000181686
-0.000124221
-0.000411584
-0.000663204
-0.000900046
-0.00112766
-0.00130136
-0.00133196
0.00170243
0.00165365
0.00150273
0.00128878
0.00109052
0.000942059
0.00083096
0.000757225
0.000694382
0.00061925
0.000514791
0.00034923
0.000105208
-0.000195227
-0.00049413
-0.000760143
-0.0010022
-0.00122034
-0.00137727
-0.00139541
0.00169662
0.00163787
0.00147684
0.00125479
0.00103871
0.000872751
0.000755796
0.000675852
0.000599787
0.000512812
0.000406758
0.000253075
2.83375e-05
-0.000257152
-0.000558358
-0.000835286
-0.0010834
-0.00129789
-0.0014428
-0.00144947
0.00168551
0.00161778
0.00144581
0.00121599
0.000985724
0.0008013
0.000674506
0.000590353
0.000508322
0.000413343
0.000304329
0.000159606
-4.639e-05
-0.000311799
-0.000604799
-0.00088682
-0.00114014
-0.0013543
-0.0014927
-0.00149046
0.00166883
0.00159326
0.00140999
0.00117154
0.000929646
0.000728131
0.00058906
0.000499792
0.000415724
0.000318732
0.000209056
7.18028e-05
-0.000115083
-0.000357569
-0.000634036
-0.000912521
-0.00116822
-0.00138233
-0.00151837
-0.00151124
0.00164644
0.00156393
0.00136967
0.00112197
0.000868923
0.000651564
0.000499675
0.000404655
0.000320184
0.000225984
0.000120308
-8.27397e-06
-0.000174858
-0.000390671
-0.000644246
-0.000909354
-0.00116139
-0.00137337
-0.00150806
-0.00150036
0.0016181
0.00152971
0.00132504
0.00106685
0.000802897
0.000571226
0.000405683
0.000303083
0.000219839
0.000132496
3.59516e-05
-7.98737e-05
-0.000223816
-0.000407809
-0.000631032
-0.000872429
-0.00111068
-0.00131542
-0.00144633
-0.00143995
0.00158378
0.00149026
0.00127671
0.00100646
0.000729861
0.000485513
0.00030761
0.000194429
0.000110541
3.32589e-05
-4.91844e-05
-0.000146063
-0.000261932
-0.000406195
-0.000586462
-0.00079094
-0.00100157
-0.0011895
-0.00131197
-0.00130607
0.00154359
0.00144537
0.00122373
0.000941082
0.000650598
0.000392642
0.00020265
7.84368e-05
-9.94178e-06
-7.84816e-05
-0.000144392
-0.000217115
-0.000297285
-0.000389784
-0.000505392
-0.000644679
-0.000799926
-0.000954773
-0.00106734
-0.00106937
0.00150019
0.00139586
0.00116384
0.00086841
0.000564994
0.000293965
8.93953e-05
-4.83125e-05
-0.000144618
-0.000209127
-0.000259866
-0.000308975
-0.000351934
-0.000387616
-0.000413883
-0.000427876
-0.000436478
-0.000455445
-0.000487709
-0.000498921
0.00145474
0.0013409
0.00109668
0.000788811
0.000472854
0.00018909
-3.14776e-05
-0.000187652
-0.000296608
-0.000366233
-0.000407019
-0.000431839
-0.000435934
-0.000418175
-0.000398088
-0.00035912
-0.000236901
4.48115e-05
0.000487979
0.00096104
0.00140303
0.00128037
0.00102487
0.000704029
0.00037549
7.93933e-05
-0.000157839
-0.000336292
-0.000467547
-0.00055324
-0.000598199
-0.000614502
-0.000582059
-0.000428986
-7.35307e-05
0.000468861
0.00106387
0.00157415
0.0019049
0.0019883
0.00134526
0.0012185
0.000950834
0.000612603
0.000263402
-4.87395e-05
-0.000293133
-0.000477409
-0.000616652
-0.000707023
-0.000726045
-0.000589242
-0.00025025
0.000188645
0.000616868
0.00098125
0.00127357
0.00150348
0.00165625
0.00168176
0.0012813
0.00115651
0.000889044
0.000538629
0.000153309
-0.000216254
-0.000531886
-0.000758603
-0.000839593
-0.000714544
-0.000426027
-8.46637e-05
0.00025222
0.00057446
0.000893908
0.00122334
0.00154685
0.00182942
0.002011
0.00201551
0.0012075
0.00106042
0.000794111
0.000466524
0.000127
-0.000173984
-0.000395553
-0.000523725
-0.000567477
-0.000556003
-0.000520442
-0.000479298
-0.000402288
-0.000211027
0.000153192
0.000714906
0.00137661
0.00196358
0.00233269
0.00239511
0.0011635
0.00102677
0.000734332
0.000354185
-5.74546e-05
-0.000422878
-0.000665914
-0.000734546
-0.00064336
-0.000455376
-0.000203332
9.38461e-05
0.00040368
0.000726953
0.00105375
0.00136662
0.00164731
0.00186716
0.00198571
0.00193535
0.00107623
0.000925049
0.00067309
0.000359461
1.11846e-05
-0.000325596
-0.000599411
-0.000763851
-0.00075133
-0.000555394
-0.000256998
6.65399e-05
0.000344784
0.00058171
0.000816389
0.00106212
0.00131147
0.00153369
0.00168019
0.00167389
0.0183458
0.0124099
0.00416548
-0.00181591
-0.00364909
-0.00311182
-0.00226246
-0.00172642
-0.00154306
-0.00164871
-0.00185288
-0.00197257
-0.00198779
-0.00200061
-0.00205575
-0.00212407
-0.00224372
-0.00240224
-0.00247259
-0.00245642
-0.00246396
-0.0025168
-0.00259327
-0.0026717
-0.0027188
-0.0027541
-0.00283184
-0.002946
-0.00305042
-0.00313245
-0.00322228
-0.00333789
-0.00345489
-0.00354556
-0.00362668
-0.00372662
-0.0038359
-0.00393361
-0.00401953
-0.00410965
-0.00420733
-0.00430193
-0.00439265
-0.00449655
-0.00462017
-0.00474598
-0.00486483
-0.00498679
-0.00510937
-0.00521583
-0.00531653
-0.00542578
-0.00553123
-0.00563706
-0.00576624
-0.00589895
-0.00601844
-0.00614193
-0.00627049
-0.00638762
-0.00650974
-0.00664066
-0.00676842
-0.0068949
-0.00702258
-0.00715106
-0.00727419
-0.00740268
-0.00754306
-0.00767571
-0.00781217
-0.00795484
-0.00809563
-0.00823524
-0.00837529
-0.00852368
-0.00867546
-0.00883266
-0.00898889
-0.00913467
-0.00929527
-0.00945382
-0.00961725
-0.00978795
-0.00994368
-0.0101248
-0.0103006
-0.0104561
-0.0106507
-0.0108252
-0.0109931
-0.0111845
-0.011369
-0.0115322
-0.0117229
-0.0119133
-0.0120773
-0.0122616
-0.0124078
-0.0125557
0.0175704
0.0122766
0.00425963
-0.00168439
-0.00356814
-0.00306996
-0.00223532
-0.00170738
-0.0015292
-0.00163821
-0.0018447
-0.00196596
-0.00198213
-0.00199559
-0.00205126
-0.0021199
-0.00223987
-0.00239899
-0.00246979
-0.00245376
-0.00246143
-0.00251446
-0.00259112
-0.00266979
-0.00271705
-0.00275241
-0.00283023
-0.00294452
-0.00304907
-0.00313116
-0.00322102
-0.00333669
-0.00345379
-0.00354452
-0.00362567
-0.00372565
-0.00383499
-0.00393276
-0.00401872
-0.00410888
-0.00420661
-0.00430125
-0.004392
-0.00449592
-0.00461957
-0.00474542
-0.0048643
-0.00498628
-0.0051089
-0.00521538
-0.0053161
-0.00542536
-0.00553085
-0.00563668
-0.00576587
-0.00589861
-0.00601811
-0.00614161
-0.00627018
-0.00638733
-0.00650946
-0.00664039
-0.00676816
-0.00689465
-0.00702234
-0.00715083
-0.00727396
-0.00740246
-0.00754285
-0.00767551
-0.00781198
-0.00795465
-0.00809545
-0.00823507
-0.00837513
-0.00852351
-0.0086753
-0.00883251
-0.00898874
-0.00913453
-0.00929514
-0.00945369
-0.00961713
-0.00978783
-0.00994357
-0.0101246
-0.0103005
-0.010456
-0.0106506
-0.0108251
-0.010993
-0.0111845
-0.011369
-0.0115321
-0.0117228
-0.0119133
-0.0120773
-0.0122616
-0.0124077
-0.0125556
0.0168802
0.0121876
0.00447429
-0.00142616
-0.00342932
-0.00301886
-0.00220978
-0.00168669
-0.001512
-0.00162458
-0.00183384
-0.00195718
-0.0019751
-0.00199004
-0.00204681
-0.00211595
-0.00223619
-0.00239578
-0.00246699
-0.00245118
-0.00245908
-0.0025123
-0.00258911
-0.00266799
-0.00271542
-0.00275085
-0.00282876
-0.0029432
-0.00304786
-0.00313001
-0.00321992
-0.00333566
-0.00345283
-0.00354361
-0.00362477
-0.0037248
-0.0038342
-0.00393202
-0.00401801
-0.0041082
-0.00420597
-0.00430065
-0.00439142
-0.00449535
-0.00461905
-0.00474493
-0.00486383
-0.00498584
-0.00510849
-0.005215
-0.00531572
-0.00542501
-0.0055305
-0.00563634
-0.00576555
-0.00589832
-0.00601783
-0.00614133
-0.00626993
-0.00638708
-0.00650921
-0.00664016
-0.00676794
-0.00689444
-0.00702213
-0.00715063
-0.00727377
-0.00740227
-0.00754267
-0.00767534
-0.00781181
-0.00795449
-0.0080953
-0.00823492
-0.00837498
-0.00852337
-0.00867517
-0.00883238
-0.00898862
-0.00913441
-0.00929502
-0.00945358
-0.00961702
-0.00978773
-0.00994346
-0.0101245
-0.0103005
-0.0104559
-0.0106505
-0.010825
-0.0109929
-0.0111844
-0.0113689
-0.011532
-0.0117228
-0.0119132
-0.0120772
-0.0122615
-0.0124077
-0.0125555
0.016233
0.0120978
0.00473691
-0.00110416
-0.00324515
-0.00295222
-0.0021759
-0.00165691
-0.00148686
-0.0016049
-0.00181776
-0.00194368
-0.00196423
-0.00198183
-0.00204078
-0.00211105
-0.00223154
-0.00239129
-0.002463
-0.00244794
-0.00245646
-0.00250986
-0.00258666
-0.00266572
-0.00271344
-0.00274907
-0.00282711
-0.00294167
-0.00304646
-0.00312876
-0.00321876
-0.00333457
-0.00345181
-0.00354264
-0.00362384
-0.00372391
-0.00383336
-0.00393122
-0.00401724
-0.00410748
-0.00420529
-0.0043
-0.00439079
-0.00449475
-0.00461849
-0.00474442
-0.00486334
-0.00498537
-0.00510807
-0.00521459
-0.00531532
-0.00542463
-0.00553015
-0.00563598
-0.00576521
-0.00589802
-0.00601753
-0.00614105
-0.00626966
-0.00638682
-0.00650896
-0.00663992
-0.00676771
-0.00689422
-0.00702192
-0.00715043
-0.00727357
-0.00740207
-0.00754249
-0.00767517
-0.00781164
-0.00795433
-0.00809514
-0.00823476
-0.00837483
-0.00852323
-0.00867503
-0.00883225
-0.0089885
-0.00913428
-0.0092949
-0.00945347
-0.0096169
-0.00978763
-0.00994336
-0.0101244
-0.0103004
-0.0104558
-0.0106504
-0.010825
-0.0109929
-0.0111843
-0.0113688
-0.011532
-0.0117227
-0.0119131
-0.0120771
-0.0122615
-0.0124077
-0.0125555
0.0155805
0.0119648
0.00499741
-0.000766257
-0.00304493
-0.00287925
-0.00213839
-0.00162088
-0.00145463
-0.00157883
-0.00179557
-0.00192432
-0.00194833
-0.00196975
-0.00203211
-0.00210446
-0.00222518
-0.0023845
-0.0024568
-0.00244337
-0.00245324
-0.00250693
-0.00258348
-0.00266261
-0.00271084
-0.00274694
-0.00282509
-0.00293961
-0.00304457
-0.00312719
-0.00321742
-0.00333328
-0.00345055
-0.00354148
-0.00362279
-0.00372292
-0.00383238
-0.00393027
-0.00401635
-0.00410663
-0.00420447
-0.00429921
-0.00439004
-0.00449405
-0.00461784
-0.00474382
-0.00486278
-0.00498484
-0.00510758
-0.00521413
-0.00531487
-0.0054242
-0.00552973
-0.00563556
-0.00576483
-0.00589768
-0.0060172
-0.00614073
-0.00626937
-0.00638653
-0.00650867
-0.00663966
-0.00676746
-0.00689398
-0.00702169
-0.00715021
-0.00727335
-0.00740185
-0.00754229
-0.00767498
-0.00781145
-0.00795416
-0.00809497
-0.0082346
-0.00837466
-0.00852307
-0.00867488
-0.00883211
-0.00898837
-0.00913415
-0.00929476
-0.00945335
-0.00961678
-0.00978752
-0.00994325
-0.0101243
-0.0103003
-0.0104557
-0.0106503
-0.0108249
-0.0109928
-0.0111842
-0.0113688
-0.0115319
-0.0117226
-0.0119131
-0.0120771
-0.0122614
-0.0124077
-0.0125554
0.0149204
0.0117823
0.00524853
-0.000419767
-0.00283361
-0.00280241
-0.00210084
-0.00158294
-0.00141872
-0.0015488
-0.00176929
-0.00190074
-0.00192852
-0.00195434
-0.00202084
-0.00209595
-0.0022168
-0.00237503
-0.00244797
-0.00243709
-0.00244918
-0.00250339
-0.00257945
-0.0026585
-0.00270755
-0.0027445
-0.00282273
-0.00293691
-0.00304197
-0.00312517
-0.00321579
-0.00333164
-0.00344889
-0.00354003
-0.0036216
-0.00372179
-0.0038312
-0.00392913
-0.00401532
-0.00410565
-0.00420347
-0.00429822
-0.00438911
-0.00449319
-0.00461705
-0.00474309
-0.0048621
-0.00498421
-0.00510699
-0.00521357
-0.00531432
-0.00542368
-0.00552923
-0.00563508
-0.00576439
-0.00589728
-0.00601681
-0.00614036
-0.00626903
-0.0063862
-0.00650835
-0.00663937
-0.00676719
-0.00689371
-0.00702143
-0.00714996
-0.00727311
-0.00740161
-0.00754206
-0.00767476
-0.00781124
-0.00795397
-0.00809479
-0.00823442
-0.00837448
-0.00852289
-0.00867471
-0.00883195
-0.00898822
-0.009134
-0.00929462
-0.00945321
-0.00961665
-0.0097874
-0.00994312
-0.0101242
-0.0103002
-0.0104556
-0.0106502
-0.0108248
-0.0109927
-0.0111841
-0.0113687
-0.0115318
-0.0117226
-0.011913
-0.012077
-0.0122614
-0.0124077
-0.0125553
0.0142609
0.0115581
0.00549113
-6.38763e-05
-0.00260986
-0.00272075
-0.00206384
-0.00154457
-0.00138046
-0.00151615
-0.00174064
-0.00187489
-0.00190655
-0.00193693
-0.00200783
-0.00208592
-0.00220663
-0.00236318
-0.00243675
-0.00242915
-0.00244416
-0.00249913
-0.00257454
-0.00265343
-0.00270362
-0.00274186
-0.00282013
-0.00293363
-0.00303865
-0.00312261
-0.00321378
-0.00332953
-0.00344666
-0.00353815
-0.00362015
-0.00372043
-0.00382976
-0.00392777
-0.00401415
-0.00410454
-0.00420229
-0.00429702
-0.00438798
-0.00449213
-0.00461603
-0.00474215
-0.00486126
-0.00498345
-0.00510628
-0.00521289
-0.00531367
-0.00542305
-0.00552862
-0.00563449
-0.00576384
-0.00589678
-0.00601635
-0.00613992
-0.00626861
-0.0063858
-0.00650797
-0.00663902
-0.00676687
-0.00689341
-0.00702114
-0.00714967
-0.00727283
-0.00740134
-0.00754181
-0.00767452
-0.00781101
-0.00795375
-0.00809458
-0.00823421
-0.00837428
-0.0085227
-0.00867453
-0.00883178
-0.00898806
-0.00913384
-0.00929445
-0.00945306
-0.0096165
-0.00978726
-0.00994298
-0.0101241
-0.0103
-0.0104555
-0.0106501
-0.0108247
-0.0109926
-0.011184
-0.0113686
-0.0115317
-0.0117225
-0.0119129
-0.0120769
-0.0122613
-0.0124077
-0.0125553
0.013613
0.0112971
0.00572129
0.000299848
-0.00237275
-0.00263301
-0.00202732
-0.00150639
-0.00134028
-0.00148122
-0.00171022
-0.0018476
-0.00188326
-0.00191831
-0.00199369
-0.00207481
-0.00219517
-0.00234966
-0.00242382
-0.00241992
-0.00243828
-0.00249416
-0.00256884
-0.00264752
-0.00269915
-0.00273907
-0.00281743
-0.00292996
-0.00303479
-0.00311961
-0.00321139
-0.0033269
-0.0034438
-0.00353575
-0.00361837
-0.00371877
-0.00382796
-0.0039261
-0.00401281
-0.00410333
-0.00420096
-0.00429564
-0.00438667
-0.00449087
-0.00461476
-0.00474094
-0.00486019
-0.00498248
-0.0051054
-0.0052121
-0.00531291
-0.00542228
-0.00552788
-0.00563378
-0.00576317
-0.00589615
-0.00601577
-0.00613939
-0.0062681
-0.00638531
-0.00650752
-0.00663861
-0.00676649
-0.00689306
-0.00702079
-0.00714934
-0.00727251
-0.00740103
-0.00754151
-0.00767423
-0.00781074
-0.00795351
-0.00809434
-0.00823397
-0.00837404
-0.00852248
-0.00867432
-0.00883157
-0.00898787
-0.00913365
-0.00929427
-0.00945288
-0.00961632
-0.0097871
-0.00994283
-0.0101239
-0.0102999
-0.0104553
-0.01065
-0.0108246
-0.0109924
-0.0111839
-0.0113684
-0.0115316
-0.0117223
-0.0119129
-0.0120768
-0.0122613
-0.0124077
-0.0125552
0.012986
0.0110016
0.00593153
0.000668385
-0.00212138
-0.00253752
-0.00199083
-0.0014689
-0.00129856
-0.00144407
-0.0016781
-0.00181904
-0.00185888
-0.0018987
-0.00197865
-0.00206287
-0.00218284
-0.00233508
-0.00240977
-0.00240974
-0.0024317
-0.0024886
-0.00256251
-0.002641
-0.00269427
-0.00273613
-0.00281464
-0.00292607
-0.00303062
-0.00311635
-0.00320875
-0.00332384
-0.00344037
-0.00353284
-0.00361622
-0.00371674
-0.00382573
-0.00392404
-0.00401124
-0.004102
-0.00419953
-0.00429415
-0.00438529
-0.00448949
-0.00461327
-0.00473944
-0.00485882
-0.00498123
-0.00510428
-0.00521114
-0.00531204
-0.00542141
-0.00552701
-0.00563294
-0.00576234
-0.00589536
-0.00601507
-0.00613873
-0.00626745
-0.0063847
-0.00650696
-0.00663811
-0.00676603
-0.00689264
-0.00702038
-0.00714894
-0.00727213
-0.00740066
-0.00754116
-0.0076739
-0.00781044
-0.00795323
-0.00809406
-0.0082337
-0.00837377
-0.00852222
-0.00867407
-0.00883134
-0.00898766
-0.00913343
-0.00929405
-0.00945267
-0.00961612
-0.00978692
-0.00994264
-0.0101238
-0.0102997
-0.0104551
-0.0106498
-0.0108244
-0.0109923
-0.0111838
-0.0113683
-0.0115315
-0.0117222
-0.0119127
-0.0120767
-0.0122612
-0.0124077
-0.0125551
0.0123876
0.0106746
0.00611487
0.00103875
-0.00185477
-0.00243236
-0.00195373
-0.00143269
-0.00125585
-0.00140474
-0.00164418
-0.00178921
-0.00183345
-0.00187812
-0.00196276
-0.00205023
-0.00216987
-0.00231975
-0.00239486
-0.0023988
-0.00242453
-0.00248254
-0.0025557
-0.00263401
-0.00268903
-0.002733
-0.00281174
-0.00292203
-0.00302627
-0.00311296
-0.00320594
-0.00332047
-0.00343649
-0.00352952
-0.00361375
-0.00371439
-0.00382309
-0.00392157
-0.00400936
-0.00410047
-0.00419797
-0.00429262
-0.00438393
-0.00448813
-0.00461169
-0.00473775
-0.00485719
-0.00497967
-0.00510284
-0.00520996
-0.00531105
-0.00542043
-0.00552605
-0.00563201
-0.00576135