/*--------------------------------*- C++ -*----------------------------------*\
| =========                 |                                                 |
| \\      /  F ield         | OpenFOAM: The Open Source CFD Toolbox           |
|  \\    /   O peration     | Version:  v1906                                 |
|   \\  /    A nd           | Web:      www.OpenFOAM.com                      |
|    \\/     M anipulation  |                                                 |
\*---------------------------------------------------------------------------*/
FoamFile
{
    version     2.0;
    format      ascii;
    class       volVectorField;
    location    "1.6";
    object      U;
}
// * * * * * * * * * * * * * * * * * * * * * * * * * * * * * * * * * * * * * //

dimensions      [0 1 -1 0 0 0 0];


internalField   nonuniform List<vector> 
9600
(
(0.844003 0.000203269 0)
(1.17471 0.00502054 0)
(0.80577 -0.00720538 0)
(1.13678 -0.00297572 0)
(0.92211 -0.000508493 0)
(1.15032 0.00572817 0)
(0.834531 0.00652188 0)
(1.12981 0.000809059 0)
(0.848931 -0.00928414 0)
(1.12025 -0.00259123 0)
(0.899086 -0.00691881 0)
(1.11871 6.12434e-05 0)
(0.895068 -0.00428808 0)
(1.112 0.00141593 0)
(0.890172 0.00852451 0)
(1.10282 0.00336557 0)
(0.873968 0.0120697 0)
(1.09782 0.00192147 0)
(0.843227 0.00698099 0)
(1.09657 0.00212339 0)
(0.85368 -3.17135e-05 0)
(1.16255 0.0054585 0)
(0.826748 -0.00703569 0)
(1.12543 -0.00390306 0)
(0.933347 -0.000907921 0)
(1.1387 0.00670707 0)
(0.858415 0.00657459 0)
(1.10757 0.000870052 0)
(0.879704 -0.00940379 0)
(1.09782 -0.00311024 0)
(0.92727 -0.00712746 0)
(1.09546 0.000327231 0)
(0.92968 -0.00429234 0)
(1.08107 0.00162707 0)
(0.934024 0.00857948 0)
(1.05507 0.00380014 0)
(0.937386 0.0121343 0)
(1.0238 0.00277189 0)
(0.942405 0.00820321 0)
(0.982616 0.00269179 0)
(0.872637 -0.00020468 0)
(1.13891 0.0058235 0)
(0.860391 -0.00696781 0)
(1.1026 -0.00460043 0)
(0.953135 -0.00111987 0)
(1.11525 0.00763618 0)
(0.898404 0.00675892 0)
(1.07493 0.000823781 0)
(0.921392 -0.00946187 0)
(1.06314 -0.00363245 0)
(0.963186 -0.00713523 0)
(1.06086 0.000332479 0)
(0.970218 -0.00406009 0)
(1.04132 0.00160978 0)
(0.976434 0.00902357 0)
(1.01707 0.00392698 0)
(0.977294 0.0126161 0)
(0.995399 0.0028183 0)
(0.975984 0.00854441 0)
(0.975092 0.00320417 0)
(0.89799 -0.00031774 0)
(1.10765 0.00599221 0)
(0.899555 -0.00683194 0)
(1.07289 -0.00518247 0)
(0.974562 -0.00130818 0)
(1.08531 0.00819893 0)
(0.93943 0.00709563 0)
(1.04363 0.000689039 0)
(0.95744 -0.00939385 0)
(1.03127 -0.00411309 0)
(0.988803 -0.00710115 0)
(1.03253 0.000178525 0)
(0.994238 -0.00369742 0)
(1.01492 0.00152946 0)
(0.994485 0.0094378 0)
(1.00201 0.00399979 0)
(0.988688 0.0130433 0)
(0.991397 0.00288554 0)
(0.98267 0.00907067 0)
(0.980521 0.0039538 0)
(0.925339 -0.000382172 0)
(1.07464 0.00603105 0)
(0.936462 -0.00663885 0)
(1.04368 -0.00568867 0)
(0.990998 -0.00148181 0)
(1.05613 0.00851709 0)
(0.970505 0.00748721 0)
(1.02178 0.000568796 0)
(0.980352 -0.00927147 0)
(1.01093 -0.00450744 0)
(1.0001 -0.00710478 0)
(1.01617 3.22077e-05 0)
(1.00247 -0.00333965 0)
(1.00257 0.0015453 0)
(0.997382 0.00963626 0)
(0.996919 0.00420853 0)
(0.990168 0.013181 0)
(0.990853 0.00316423 0)
(0.98466 0.0094578 0)
(0.982819 0.00469115 0)
(0.950262 -0.000394746 0)
(1.0458 0.00597903 0)
(0.96562 -0.0064406 0)
(1.02102 -0.00606858 0)
(0.999506 -0.0016249 0)
(1.03282 0.00869001 0)
(0.98876 0.0078222 0)
(1.01072 0.000508096 0)
(0.992053 -0.00913936 0)
(1.00139 -0.00477805 0)
(1.0025 -0.00712481 0)
(1.00799 -8.98637e-05 0)
(1.00318 -0.00300926 0)
(0.997251 0.00162737 0)
(0.995709 0.00975533 0)
(0.994513 0.00442192 0)
(0.989764 0.0131817 0)
(0.99095 0.00350918 0)
(0.986051 0.00951904 0)
(0.984754 0.00550323 0)
(0.969774 -0.000371383 0)
(1.02478 0.00586955 0)
(0.985345 -0.00626456 0)
(1.00711 -0.00629036 0)
(1.00121 -0.0017354 0)
(1.01668 0.00875391 0)
(0.997169 0.00803911 0)
(1.00713 0.000488885 0)
(0.997538 -0.00899332 0)
(0.998089 -0.0049454 0)
(1.00168 -0.00712795 0)
(1.00354 -0.000211424 0)
(1.00151 -0.00269856 0)
(0.994565 0.00173309 0)
(0.993655 0.00984949 0)
(0.993171 0.00458142 0)
(0.989477 0.0131217 0)
(0.991581 0.00383365 0)
(0.987615 0.00943235 0)
(0.986868 0.00630592 0)
(0.982987 -0.0003338 0)
(1.01202 0.00573684 0)
(0.996913 -0.00612037 0)
(1.00056 -0.00637041 0)
(0.999268 -0.00181399 0)
(1.00645 0.0087328 0)
(1.0002 0.00812927 0)
(1.00702 0.000475422 0)
(1.00036 -0.00882365 0)
(0.997415 -0.00504227 0)
(1.00036 -0.00709041 0)
(1.00062 -0.0003328 0)
(0.999385 -0.00240027 0)
(0.992855 0.0018331 0)
(0.992238 0.00990644 0)
(0.992595 0.00471353 0)
(0.989788 0.0129799 0)
(0.992548 0.00416523 0)
(0.98945 0.00926487 0)
(0.988993 0.00709368 0)
(0.990762 -0.000297556 0)
(1.00561 0.00560118 0)
(1.0028 -0.00600634 0)
(0.998428 -0.00634705 0)
(0.996555 -0.00184489 0)
(1.00025 0.00864729 0)
(1.00109 0.00811206 0)
(1.00787 0.000445578 0)
(1.00205 -0.00862946 0)
(0.997584 -0.00508765 0)
(0.99931 -0.00700314 0)
(0.998489 -0.000446031 0)
(0.997401 -0.00211223 0)
(0.991624 0.0019073 0)
(0.991538 0.00992259 0)
(0.992617 0.00482921 0)
(0.990657 0.0127472 0)
(0.993719 0.00453417 0)
(0.991371 0.0090258 0)
(0.991003 0.00784304 0)
(0.994761 -0.000269206 0)
(1.00301 0.00546822 0)
(1.00533 -0.00591194 0)
(0.998143 -0.00625807 0)
(0.994535 -0.00182574 0)
(0.996695 0.00851206 0)
(1.00144 0.00801772 0)
(1.00865 0.000395681 0)
(1.00307 -0.00841399 0)
(0.997892 -0.00509438 0)
(0.998579 -0.00686921 0)
(0.996889 -0.000544229 0)
(0.995763 -0.00183116 0)
(0.990748 0.00195136 0)
(0.991362 0.00989329 0)
(0.993028 0.00492694 0)
(0.991802 0.0124357 0)
(0.994927 0.00493898 0)
(0.993152 0.0087294 0)
(0.992767 0.00853015 0)
(0.996584 -0.000248967 0)
(1.0022 0.00533722 0)
(1.00616 -0.00582401 0)
(0.998249 -0.00613367 0)
(0.993468 -0.00177357 0)
(0.994889 0.00833984 0)
(1.00176 0.00787562 0)
(1.00912 0.000332182 0)
(1.00359 -0.00818109 0)
(0.998091 -0.0050733 0)
(0.998082 -0.00669629 0)
(0.99574 -0.000626694 0)
(0.994545 -0.00155685 0)
(0.990209 0.00196903 0)
(0.991482 0.00980524 0)
(0.993607 0.00502165 0)
(0.992938 0.012056 0)
(0.995993 0.0053728 0)
(0.99465 0.00840806 0)
(0.994194 0.00912995 0)
(0.997342 -0.00023462 0)
(1.00208 0.00520649 0)
(1.00624 -0.00573218 0)
(0.99822 -0.00599421 0)
(0.993079 -0.00170034 0)
(0.994197 0.00814157 0)
(1.00213 0.00770875 0)
(1.00936 0.00026262 0)
(1.00379 -0.00793277 0)
(0.998133 -0.00503272 0)
(0.997739 -0.00649445 0)
(0.994977 -0.000694745 0)
(0.993747 -0.0012932 0)
(0.989991 0.00196518 0)
(0.991749 0.0096603 0)
(0.994205 0.00512248 0)
(0.993912 0.0116258 0)
(0.996828 0.00582627 0)
(0.995833 0.00809255 0)
(0.99528 0.00962023 0)
(0.99765 -0.000223998 0)
(1.00214 0.0050748 0)
(1.00607 -0.00563072 0)
(0.998016 -0.00585002 0)
(0.993041 -0.00161868 0)
(0.994139 0.00792343 0)
(1.00251 0.00753157 0)
(1.00944 0.00019259 0)
(1.00381 -0.00767005 0)
(0.998064 -0.00497745 0)
(0.997504 -0.00627531 0)
(0.994522 -0.000753232 0)
(0.993307 -0.00104588 0)
(0.990049 0.00195351 0)
(0.992093 0.00946486 0)
(0.994762 0.00523127 0)
(0.9947 0.011164 0)
(0.997435 0.00627982 0)
(0.996746 0.00782347 0)
(0.996088 0.00998987 0)
(0.997793 -0.000215748 0)
(1.00222 0.00494116 0)
(1.00585 -0.00551741 0)
(0.997743 -0.00570535 0)
(0.993152 -0.00153785 0)
(0.994371 0.00768839 0)
(1.00285 0.00735133 0)
(1.00942 0.000125274 0)
(1.00376 -0.00739407 0)
(0.997953 -0.00490914 0)
(0.997359 -0.00604996 0)
(0.99429 -0.000803568 0)
(0.993125 -0.000815409 0)
(0.9903 0.00194593 0)
(0.992477 0.00922244 0)
(0.995258 0.0053547 0)
(0.995335 0.0106835 0)
(0.997859 0.00671391 0)
(0.997456 0.00763139 0)
(0.996696 0.0102304 0)
(0.997888 -0.000209006 0)
(1.00227 0.00480453 0)
(1.00566 -0.00539217 0)
(0.9975 -0.00556139 0)
(0.993321 -0.00146047 0)
(0.994685 0.00743851 0)
(1.00311 0.00717127 0)
(1.00934 6.1469e-05 0)
(1.00369 -0.00710796 0)
(0.997852 -0.0048266 0)
(0.997292 -0.00582467 0)
(0.994206 -0.000843123 0)
(0.993102 -0.000604188 0)
(0.990655 0.00194242 0)
(0.992865 0.00894639 0)
(0.995678 0.00548834 0)
(0.995844 0.0102118 0)
(0.99814 0.00710848 0)
(0.99801 0.0075149 0)
(0.997168 0.0103488 0)
(0.997972 -0.000203293 0)
(1.00227 0.00466436 0)
(1.0055 -0.00525627 0)
(0.997338 -0.00541791 0)
(0.993516 -0.00138687 0)
(0.994979 0.0071758 0)
(1.00326 0.00699225 0)
(1.00919 1.43358e-06 0)
(1.00361 -0.00681598 0)
(0.997785 -0.00472972 0)
(0.997294 -0.00560172 0)
(0.994219 -0.000871548 0)
(0.993163 -0.000417877 0)
(0.991043 0.00194711 0)
(0.993223 0.00864608 0)
(0.996008 0.00562165 0)
(0.996244 0.00976695 0)
(0.998308 0.00745372 0)
(0.998439 0.00746607 0)
(0.997544 0.010374 0)
(0.998052 -0.000198253 0)
(1.00224 0.0045204 0)
(1.00536 -0.0051115 0)
(0.997262 -0.00527439 0)
(0.993729 -0.00131548 0)
(0.995223 0.00690225 0)
(1.00332 0.0068135 0)
(1.00897 -5.47755e-05 0)
(1.00354 -0.00652218 0)
(0.997753 -0.00461701 0)
(0.99735 -0.00538657 0)
(0.994294 -0.000886334 0)
(0.993263 -0.000252356 0)
(0.991422 0.00196348 0)
(0.993532 0.00832939 0)
(0.996247 0.00574555 0)
(0.996546 0.0093566 0)
(0.998386 0.00774584 0)
(0.998765 0.00747199 0)
(0.997855 0.0103313 0)
(0.998125 -0.000193584 0)
(1.00218 0.00437259 0)
(1.00523 -0.00495959 0)
(0.997256 -0.00513056 0)
(0.993956 -0.0012448 0)
(0.995426 0.0066209 0)
(1.00328 0.00663276 0)
(1.00871 -0.000106212 0)
(1.00346 -0.00623217 0)
(0.997749 -0.00448519 0)
(0.997444 -0.00518232 0)
(0.99441 -0.000888358 0)
(0.993379 -0.000104154 0)
(0.991779 0.00198387 0)
(0.993788 0.00801288 0)
(0.996408 0.00585129 0)
(0.99677 0.00898671 0)
(0.998402 0.00798761 0)
(0.999009 0.00751526 0)
(0.998123 0.0102355 0)
(0.998185 -0.000189147 0)
(1.00212 0.0042214 0)
(1.00509 -0.00480248 0)
(0.9973 -0.00498564 0)
(0.994188 -0.00117526 0)
(0.995608 0.00633585 0)
(1.00319 0.00644856 0)
(1.00842 -0.000152327 0)
(1.00337 -0.00594943 0)
(0.997763 -0.00433627 0)
(0.997557 -0.00498625 0)
(0.994558 -0.000880998 0)
(0.9935 3.13982e-05 0)
(0.992119 0.00200409 0)
(0.994005 0.00770897 0)
(0.996518 0.00593654 0)
(0.996941 0.00865768 0)
(0.998384 0.008181 0)
(0.99919 0.00757541 0)
(0.998368 0.0100969 0)
(0.998229 -0.000185021 0)
(1.00207 0.00406759 0)
(1.00494 -0.00464167 0)
(0.997374 -0.00483902 0)
(0.994418 -0.00110771 0)
(0.995786 0.00604942 0)
(1.00305 0.00625997 0)
(1.00812 -0.000192481 0)
(1.00327 -0.00567623 0)
(0.997789 -0.00417038 0)
(0.997677 -0.00479824 0)
(0.994728 -0.000866573 0)
(0.993623 0.000161063 0)
(0.992451 0.00202196 0)
(0.994198 0.00742073 0)
(0.996602 0.00600628 0)
(0.997084 0.00835854 0)
(0.998359 0.0083338 0)
(0.999327 0.00764732 0)
(0.998606 0.0099275 0)
(0.998254 -0.000181226 0)
(1.00202 0.00391136 0)
(1.00478 -0.00447798 0)
(0.997467 -0.00469042 0)
(0.994642 -0.00104092 0)
(0.995968 0.00576481 0)
(1.00291 0.00606408 0)
(1.00782 -0.000223885 0)
(1.00317 -0.00541524 0)
(0.997822 -0.0039876 0)
(0.997795 -0.00461578 0)
(0.994918 -0.000844776 0)
(0.993744 0.00029266 0)
(0.992784 0.00203083 0)
(0.994383 0.00715177 0)
(0.996679 0.00606649 0)
(0.997216 0.00807733 0)
(0.998343 0.00845235 0)
(0.999432 0.00773401 0)
(0.998844 0.00973731 0)
(0.998266 -0.000177656 0)
(1.00199 0.00375305 0)
(1.00461 -0.00431295 0)
(0.997569 -0.00453819 0)
(0.994858 -0.000977045 0)
(0.996155 0.00548498 0)
(1.00275 0.00586092 0)
(1.00752 -0.00024641 0)
(1.00305 -0.00516594 0)
(0.997862 -0.00379168 0)
(0.997905 -0.00443286 0)
(0.995124 -0.000819173 0)
(0.993863 0.000433537 0)
(0.993121 0.00203058 0)
(0.99457 0.0068974 0)
(0.996758 0.00612432 0)
(0.997349 0.0078107 0)
(0.998349 0.00852769 0)
(0.999514 0.00783074 0)
(0.999083 0.00953487 0)
(0.998271 -0.000174735 0)
(1.00195 0.00359465 0)
(1.00443 -0.00414943 0)
(0.997675 -0.00438039 0)
(0.99507 -0.00091993 0)
(0.996343 0.00521039 0)
(1.00259 0.00565124 0)
(1.00722 -0.000260186 0)
(1.00293 -0.00492716 0)
(0.997905 -0.00358333 0)
(0.998007 -0.0042482 0)
(0.995343 -0.000800673 0)
(0.993979 0.000583562 0)
(0.993459 0.00202564 0)
(0.994765 0.00664679 0)
(0.996842 0.00618156 0)
(0.997487 0.00756335 0)
(0.998379 0.0085529 0)
(0.999578 0.00793392 0)
(0.999321 0.00932835 0)
(0.99828 -0.000172596 0)
(1.00191 0.0034371 0)
(1.00425 -0.00398745 0)
(0.997781 -0.0042182 0)
(0.99528 -0.000868746 0)
(0.996528 0.0049412 0)
(1.00242 0.00543426 0)
(1.00694 -0.000264933 0)
(1.00281 -0.00469871 0)
(0.997949 -0.00336941 0)
(0.998102 -0.00405645 0)
(0.99557 -0.000795326 0)
(0.994096 0.000739353 0)
(0.993793 0.00202367 0)
(0.994975 0.00639746 0)
(0.996929 0.00623989 0)
(0.997631 0.00734159 0)
(0.998436 0.00852981 0)
(0.99963 0.00804151 0)
(0.999551 0.00912079 0)
(0.9983 -0.000171018 0)
(1.00186 0.00328002 0)
(1.00408 -0.00382858 0)
(0.997882 -0.0040489 0)
(0.995492 -0.00082598 0)
(0.996707 0.00467979 0)
(1.00226 0.00520907 0)
(1.00666 -0.000261105 0)
(1.00269 -0.00448095 0)
(0.997993 -0.00315861 0)
(0.998193 -0.00385023 0)
(0.995804 -0.00079582 0)
(0.994218 0.000899031 0)
(0.994117 0.00203397 0)
(0.995203 0.00615107 0)
(0.997019 0.00630035 0)
(0.99778 0.00715272 0)
(0.998515 0.00846446 0)
(0.999674 0.00814908 0)
(0.999767 0.0089176 0)
(0.998337 -0.000170564 0)
(1.00179 0.00312478 0)
(1.00392 -0.00367492 0)
(0.997979 -0.00386965 0)
(0.995708 -0.000791683 0)
(0.996879 0.00442749 0)
(1.00208 0.00497666 0)
(1.00637 -0.000252286 0)
(1.00258 -0.00426552 0)
(0.998035 -0.00295077 0)
(0.998282 -0.00363295 0)
(0.996042 -0.00080283 0)
(0.994349 0.00105431 0)
(0.994427 0.00205697 0)
(0.995449 0.0059056 0)
(0.997112 0.00635829 0)
(0.997931 0.00699511 0)
(0.998617 0.00835622 0)
(0.999712 0.00825018 0)
(0.99996 0.00873607 0)
(0.998391 -0.000171111 0)
(1.00171 0.00297391 0)
(1.00377 -0.00352839 0)
(0.998072 -0.00368322 0)
(0.995928 -0.000760678 0)
(0.997045 0.00418042 0)
(1.00191 0.00474204 0)
(1.00609 -0.000245355 0)
(1.00247 -0.00404594 0)
(0.998074 -0.00274773 0)
(0.998371 -0.00340644 0)
(0.996282 -0.000812038 0)
(0.994491 0.00119963 0)
(0.99472 0.00209427 0)
(0.995715 0.00565993 0)
(0.997208 0.00640565 0)
(0.998081 0.00686642 0)
(0.998739 0.00820178 0)
(0.999751 0.00833291 0)
(1.00012 0.00859843 0)
(0.998458 -0.000173242 0)
(1.00162 0.00282903 0)
(1.00362 -0.00339171 0)
(0.998161 -0.0034911 0)
(0.996151 -0.00073685 0)
(0.997208 0.00393722 0)
(1.00174 0.00451086 0)
(1.0058 -0.000241544 0)
(1.00237 -0.0038263 0)
(0.998112 -0.00255175 0)
(0.998461 -0.00316951 0)
(0.996526 -0.000811083 0)
(0.994647 0.00133716 0)
(0.994996 0.00215087 0)
(0.995998 0.00541975 0)
(0.997311 0.00644023 0)
(0.998224 0.0067738 0)
(0.99888 0.00800688 0)
(0.999798 0.00837316 0)
(1.00025 0.00852438 0)
(0.998533 -0.000176678 0)
(1.00153 0.00268966 0)
(1.00347 -0.00326513 0)
(0.99825 -0.00329209 0)
(0.996375 -0.000718685 0)
(0.997371 0.00369717 0)
(1.00157 0.00428546 0)
(1.00551 -0.000244071 0)
(1.00227 -0.00360598 0)
(0.998148 -0.00236034 0)
(0.99855 -0.0029305 0)
(0.996773 -0.000805009 0)
(0.994818 0.00147059 0)
(0.995255 0.00222917 0)
(0.996295 0.00518911 0)
(0.997427 0.00645751 0)
(0.998355 0.00671916 0)
(0.999035 0.00778934 0)
(0.999865 0.0083429 0)
(1.00035 0.00850774 0)
(0.998611 -0.000182264 0)
(1.00144 0.00255759 0)
(1.00333 -0.00314874 0)
(0.998338 -0.0030893 0)
(0.996597 -0.000697405 0)
(0.997535 0.00345292 0)
(1.00141 0.00407032 0)
(1.00521 -0.000260935 0)
(1.00219 -0.00339069 0)
(0.998183 -0.00216649 0)
(0.998636 -0.00269227 0)
(0.997025 -0.000792282 0)
(0.995005 0.00160037 0)
(0.995499 0.00232657 0)
(0.996603 0.00496626 0)
(0.997561 0.00644559 0)
(0.998473 0.00669283 0)
(0.999194 0.00757348 0)
(0.999958 0.00823645 0)
(1.00042 0.00850405 0)
(0.998689 -0.000189987 0)
(1.00136 0.00243398 0)
(1.00318 -0.00304254 0)
(0.998425 -0.00288783 0)
(0.996814 -0.000670714 0)
(0.997701 0.00320182 0)
(1.00125 0.00387215 0)
(1.00492 -0.000282063 0)
(1.00211 -0.00318239 0)
(0.998218 -0.00196892 0)
(0.998718 -0.00245569 0)
(0.997284 -0.000767765 0)
(0.995209 0.00172467 0)
(0.995729 0.002443 0)
(0.996917 0.00475406 0)
(0.997717 0.00639755 0)
(0.998579 0.00668269 0)
(0.99935 0.00737916 0)
(1.00008 0.00807663 0)
(1.0005 0.00846169 0)
(0.998767 -0.000199433 0)
(1.00127 0.00231841 0)
(1.00304 -0.00294449 0)
(0.998513 -0.00269109 0)
(0.997024 -0.000636256 0)
(0.99787 0.00294193 0)
(1.0011 0.00369392 0)
(1.00462 -0.000301975 0)
(1.00204 -0.00298833 0)
(0.998255 -0.00176238 0)
(0.998792 -0.00221402 0)
(0.997548 -0.000732946 0)
(0.99543 0.00184666 0)
(0.995946 0.00258356 0)
(0.997233 0.0045568 0)
(0.997898 0.00631271 0)
(0.998679 0.00667753 0)
(0.999497 0.00721063 0)
(1.00022 0.00789413 0)
(1.0006 0.00835705 0)
(0.998842 -0.000211059 0)
(1.00119 0.00221039 0)
(1.0029 -0.00285161 0)
(0.998602 -0.00250526 0)
(0.997225 -0.000585388 0)
(0.998039 0.00266628 0)
(1.00096 0.00352952 0)
(1.00432 -0.00031947 0)
(1.00199 -0.0028141 0)
(0.998296 -0.00155137 0)
(0.998858 -0.00196295 0)
(0.997817 -0.000695714 0)
(0.995669 0.00196156 0)
(0.99615 0.00274753 0)
(0.997543 0.00437463 0)
(0.998106 0.00618865 0)
(0.998778 0.00667214 0)
(0.999633 0.00706233 0)
(1.00037 0.00771008 0)
(1.00071 0.00820634 0)
(0.998916 -0.000224003 0)
(1.00111 0.00210853 0)
(1.00276 -0.00276099 0)
(0.998692 -0.00233564 0)
(0.997416 -0.000513688 0)
(0.998207 0.00237879 0)
(1.00082 0.00337064 0)
(1.00403 -0.000322236 0)
(1.00194 -0.00266837 0)
(0.998344 -0.00134096 0)
(0.998915 -0.00169771 0)
(0.99809 -0.000657566 0)
(0.99593 0.00206263 0)
(0.99634 0.00293203 0)
(0.997841 0.00421354 0)
(0.99834 0.00602176 0)
(0.998882 0.00666392 0)
(0.999756 0.00692991 0)
(1.00052 0.00752145 0)
(1.00085 0.00803423 0)
(0.998989 -0.000238121 0)
(1.00102 0.00201034 0)
(1.00262 -0.00266781 0)
(0.998785 -0.00219102 0)
(0.997596 -0.000418912 0)
(0.998372 0.00208836 0)
(1.0007 0.00321743 0)
(1.00373 -0.000295566 0)
(1.00189 -0.00254985 0)
(0.998404 -0.00113417 0)
(0.998961 -0.00140792 0)
(0.998362 -0.000600667 0)
(0.996215 0.00214081 0)
(0.996517 0.00312724 0)
(0.99812 0.00408627 0)
(0.998599 0.00581651 0)
(0.998996 0.00664354 0)
(0.999863 0.0068176 0)
(1.00067 0.00731704 0)
(1.001 0.0078496 0)
(0.99906 -0.000252748 0)
(1.00094 0.00191461 0)
(1.00248 -0.00256949 0)
(0.99888 -0.00207702 0)
(0.997765 -0.000306947 0)
(0.998532 0.00180559 0)
(1.00058 0.00305506 0)
(1.00344 -0.000234416 0)
(1.00186 -0.00244366 0)
(0.998477 -0.000942372 0)
(0.998998 -0.00109915 0)
(0.99863 -0.000522538 0)
(0.996524 0.00218145 0)
(0.996686 0.00331488 0)
(0.998372 0.00400064 0)
(0.99888 0.00558302 0)
(0.999128 0.00659541 0)
(0.999951 0.00673666 0)
(1.00082 0.00710516 0)
(1.00116 0.00764964 0)
(0.99913 -0.000266852 0)
(1.00085 0.00181961 0)
(1.00234 -0.00246297 0)
(0.998979 -0.00199505 0)
(0.997925 -0.000183705 0)
(0.998685 0.00154275 0)
(1.00047 0.00287486 0)
(1.00314 -0.000141853 0)
(1.00183 -0.00233839 0)
(0.998567 -0.00076364 0)
(0.999028 -0.000771538 0)
(0.998886 -0.000427455 0)
(0.996856 0.00217726 0)
(0.996854 0.00347879 0)
(0.998592 0.00395665 0)
(0.999175 0.00533205 0)
(0.999286 0.00650309 0)
(1.00002 0.00668849 0)
(1.00096 0.0069074 0)
(1.00133 0.00742515 0)
(0.999199 -0.000279141 0)
(1.00077 0.0017229 0)
(1.0022 -0.00234256 0)
(0.999081 -0.00194677 0)
(0.998075 -5.25237e-05 0)
(0.998829 0.00130636 0)
(1.00037 0.00267741 0)
(1.00284 -2.10325e-05 0)
(1.0018 -0.0022156 0)
(0.998676 -0.000612168 0)
(0.999051 -0.00044222 0)
(0.999123 -0.000313621 0)
(0.997208 0.00213102 0)
(0.997029 0.00360625 0)
(0.998778 0.00395029 0)
(0.999473 0.00507898 0)
(0.999478 0.00635642 0)
(1.00009 0.00665672 0)
(1.00107 0.00674572 0)
(1.00151 0.00718122 0)
(0.999265 -0.000289971 0)
(1.00068 0.00162169 0)
(1.00206 -0.00220515 0)
(0.999186 -0.00192396 0)
(0.998218 7.06128e-05 0)
(0.998962 0.00110641 0)
(1.00029 0.00246202 0)
(1.00255 0.000116304 0)
(1.00176 -0.00206695 0)
(0.998804 -0.000489729 0)
(0.999072 -0.000126567 0)
(0.999337 -0.000167248 0)
(0.997575 0.00206214 0)
(0.997217 0.00369017 0)
(0.998931 0.00397362 0)
(0.999763 0.00484444 0)
(0.999706 0.00615838 0)
(1.00016 0.00661598 0)
(1.00115 0.0066314 0)
(1.00168 0.00694071 0)
(0.999329 -0.000297777 0)
(1.00059 0.00151414 0)
(1.00191 -0.00205429 0)
(0.999294 -0.00191801 0)
(0.998356 0.000170863 0)
(0.99908 0.000951075 0)
(1.00023 0.00223524 0)
(1.00227 0.000272602 0)
(1.00172 -0.00188072 0)
(0.998948 -0.000392357 0)
(0.999095 0.000169897 0)
(0.999523 1.70044e-05 0)
(0.997949 0.00198919 0)
(0.997424 0.00372813 0)
(0.999056 0.00401442 0)
(1.00003 0.00464444 0)
(0.999967 0.00592388 0)
(1.00025 0.00654369 0)
(1.00121 0.00655607 0)
(1.00183 0.00673134 0)
(0.999391 -0.000300781 0)
(1.00051 0.00139758 0)
(1.00176 -0.00188605 0)
(0.999401 -0.00192633 0)
(0.998491 0.000238597 0)
(0.999186 0.000835786 0)
(1.00017 0.00200404 0)
(1.002 0.000432546 0)
(1.00167 -0.0016538 0)
(0.999105 -0.000315232 0)
(0.999127 0.00042683 0)
(0.999682 0.000221738 0)
(0.998321 0.00192051 0)
(0.997652 0.00372623 0)
(0.99916 0.00406668 0)
(1.00028 0.00448592 0)
(1.00025 0.00566972 0)
(1.00037 0.00642851 0)
(1.00124 0.00649416 0)
(1.00194 0.00656644 0)
(0.99945 -0.00029953 0)
(1.00043 0.00127142 0)
(1.0016 -0.00170282 0)
(0.999507 -0.00194051 0)
(0.998626 0.000267432 0)
(0.999278 0.000757564 0)
(1.00013 0.00177952 0)
(1.00175 0.00058141 0)
(1.00161 -0.00138657 0)
(0.999268 -0.000239577 0)
(0.99917 0.000635814 0)
(0.999816 0.000430748 0)
(0.998684 0.00186033 0)
(0.997904 0.00368968 0)
(0.99925 0.00412252 0)
(1.00049 0.00436785 0)
(1.00055 0.00540647 0)
(1.00053 0.00627048 0)
(1.00128 0.00642182 0)
(1.00202 0.00643805 0)
(0.999506 -0.000292337 0)
(1.00036 0.00113509 0)
(1.00144 -0.00150865 0)
(0.999606 -0.00194945 0)
(0.998763 0.000253254 0)
(0.999359 0.000710664 0)
(1.00011 0.00156704 0)
(1.00152 0.000713306 0)
(1.00154 -0.00109077 0)
(0.999429 -0.000158343 0)
(0.999226 0.00080921 0)
(0.999929 0.000640175 0)
(0.999034 0.00181557 0)
(0.998179 0.00362191 0)
(0.999335 0.00417068 0)
(1.00065 0.00428887 0)
(1.00085 0.00514428 0)
(1.00072 0.00607317 0)
(1.00132 0.00632892 0)
(1.00206 0.0063267 0)
(0.999559 -0.000280191 0)
(1.00029 0.000991317 0)
(1.00128 -0.00130995 0)
(0.999697 -0.00194432 0)
(0.998903 0.000204116 0)
(0.99943 0.000683127 0)
(1.00009 0.0013773 0)
(1.00131 0.000818123 0)
(1.00146 -0.000788108 0)
(0.999583 -5.47781e-05 0)
(0.999294 0.000954527 0)
(1.00002 0.000842951 0)
(0.999365 0.00178869 0)
(0.998475 0.00352698 0)
(0.999423 0.00420126 0)
(1.00078 0.00425042 0)
(1.00113 0.00490126 0)
(1.00094 0.00584084 0)
(1.00138 0.00621327 0)
(1.00209 0.00621582 0)
(0.999608 -0.000261747 0)
(1.00023 0.000839575 0)
(1.00112 -0.00111128 0)
(0.999776 -0.00191465 0)
(0.999048 0.000126755 0)
(0.999497 0.000674578 0)
(1.00008 0.00122264 0)
(1.00114 0.000885949 0)
(1.00137 -0.000496452 0)
(0.999727 7.24123e-05 0)
(0.999371 0.0010795 0)
(1.0001 0.00103513 0)
(0.999672 0.00177857 0)
(0.99879 0.00341029 0)
(0.999526 0.00420098 0)
(1.00088 0.00424353 0)
(1.00139 0.00469681 0)
(1.0012 0.0055808 0)
(1.00147 0.00607092 0)
(1.00211 0.0060998 0)
(0.999654 -0.000238004 0)
(1.00018 0.000683028 0)
(1.00096 -0.000919478 0)
(0.999842 -0.00184559 0)
(0.999197 2.9546e-05 0)
(0.999562 0.000679031 0)
(1.00007 0.0011191 0)
(1.00099 0.000908029 0)
(1.00128 -0.000240511 0)
(0.999862 0.000209036 0)
(0.999456 0.00119397 0)
(1.00016 0.00121923 0)
(0.999951 0.00178499 0)
(0.999116 0.0032821 0)
(0.99965 0.00416411 0)
(1.00094 0.00424925 0)
(1.0016 0.00454361 0)
(1.00147 0.00531153 0)
(1.00159 0.00589467 0)
(1.00213 0.00597593 0)
(0.999697 -0.00021019 0)
(1.00014 0.00052667 0)
(1.00081 -0.000744316 0)
(0.999894 -0.00173291 0)
(0.999348 -7.53047e-05 0)
(0.999633 0.000683554 0)
(1.00007 0.00106884 0)
(1.00086 0.000905857 0)
(1.0012 -3.67245e-05 0)
(0.999989 0.000341805 0)
(0.999549 0.0012942 0)
(1.00022 0.00139206 0)
(1.0002 0.00180668 0)
(0.999447 0.00314676 0)
(0.9998 0.00409427 0)
(1.00099 0.00424822 0)
(1.00178 0.00443743 0)
(1.00174 0.00505837 0)
(1.00175 0.00568426 0)
(1.00216 0.00583878 0)
(0.999735 -0.0001783 0)
(1.0001 0.00037362 0)
(1.00068 -0.000589011 0)
(0.999931 -0.00158021 0)
(0.9995 -0.000176927 0)
(0.999713 0.000668364 0)
(1.00006 0.00104924 0)
(1.00074 0.000903204 0)
(1.00114 0.000127765 0)
(1.00011 0.000465909 0)
(0.999651 0.00138503 0)
(1.00026 0.00155869 0)
(1.00041 0.00185172 0)
(0.999775 0.00300996 0)
(0.999976 0.00399257 0)
(1.00104 0.00422787 0)
(1.00191 0.00435948 0)
(1.00198 0.00483637 0)
(1.00193 0.00545244 0)
(1.00222 0.00568307 0)
(0.999771 -0.000145837 0)
(1.00008 0.000232619 0)
(1.00056 -0.000461528 0)
(0.999956 -0.00139452 0)
(0.999645 -0.000262457 0)
(0.999805 0.00061346 0)
(1.00006 0.00104737 0)
(1.00064 0.000926317 0)
(1.00108 0.000264391 0)
(1.00024 0.000562814 0)
(0.999765 0.00145705 0)
(1.0003 0.0017106 0)
(1.00059 0.00191705 0)
(1.00009 0.00288758 0)
(1.00018 0.00386357 0)
(1.0011 0.00418484 0)
(1.002 0.00429697 0)
(1.00221 0.00464769 0)
(1.00214 0.0052169 0)
(1.00229 0.0055089 0)
(0.999803 -0.000113828 0)
(1.00007 0.000107299 0)
(1.00046 -0.000365169 0)
(0.999969 -0.0011925 0)
(0.999779 -0.000317298 0)
(0.999911 0.000529018 0)
(1.00007 0.00104759 0)
(1.00055 0.000977969 0)
(1.00102 0.000386791 0)
(1.00036 0.00063572 0)
(0.999894 0.00150662 0)
(1.00035 0.0018435 0)
(1.00074 0.00199447 0)
(1.00039 0.00278874 0)
(1.0004 0.00371505 0)
(1.00118 0.00410862 0)
(1.00208 0.00423589 0)
(1.00239 0.00448617 0)
(1.00234 0.00498522 0)
(1.00239 0.00532097 0)
(0.999832 -8.38995e-05 0)
(1.00006 2.95945e-07 0)
(1.00038 -0.000299815 0)
(0.999977 -0.000986265 0)
(0.999898 -0.000329452 0)
(1.00003 0.000427201 0)
(1.0001 0.00103315 0)
(1.00047 0.00104808 0)
(1.00096 0.00051633 0)
(1.00048 0.000703423 0)
(1.00004 0.0015324 0)
(1.0004 0.00195357 0)
(1.00086 0.00208364 0)
(1.00065 0.0027153 0)
(1.00063 0.00356581 0)
(1.00128 0.00400306 0)
(1.00214 0.00416374 0)
(1.00255 0.00434895 0)
(1.00255 0.00476071 0)
(1.00251 0.00512083 0)
(0.999858 -5.76297e-05 0)
(1.00006 -8.24441e-05 0)
(1.00032 -0.000262563 0)
(0.999984 -0.000789112 0)
(0.999997 -0.000295482 0)
(1.00015 0.000321915 0)
(1.00015 0.000991527 0)
(1.0004 0.0011258 0)
(1.0009 0.00066307 0)
(1.0006 0.000770607 0)
(1.0002 0.00152852 0)
(1.00048 0.00202648 0)
(1.00096 0.00217478 0)
(1.00089 0.00266615 0)
(1.00087 0.00342705 0)
(1.0014 0.0038839 0)
(1.00221 0.00407433 0)
(1.00267 0.00422964 0)
(1.00274 0.00455237 0)
(1.00266 0.00490755 0)
(0.999881 -3.58352e-05 0)
(1.00006 -0.00013833 0)
(1.00028 -0.000244291 0)
(0.999995 -0.00061229 0)
(1.00008 -0.000223284 0)
(1.00027 0.000236242 0)
(1.00023 0.000916311 0)
(1.00036 0.00118857 0)
(1.00084 0.000822505 0)
(1.00069 0.000851833 0)
(1.00037 0.00151338 0)
(1.00057 0.00206242 0)
(1.00105 0.0022522 0)
(1.0011 0.00264086 0)
(1.00109 0.00329922 0)
(1.00153 0.00375771 0)
(1.00228 0.003968 0)
(1.00278 0.00411169 0)
(1.00292 0.00436531 0)
(1.00282 0.00468156 0)
(0.999902 -1.86717e-05 0)
(1.00006 -0.000169889 0)
(1.00026 -0.000237095 0)
(1.00001 -0.000461356 0)
(1.00014 -0.000127824 0)
(1.00038 0.000182692 0)
(1.00033 0.00082027 0)
(1.00036 0.00122729 0)
(1.00078 0.000980331 0)
(1.00077 0.000948462 0)
(1.00054 0.00149928 0)
(1.00069 0.00206304 0)
(1.00114 0.0023042 0)
(1.00128 0.00263179 0)
(1.00131 0.00319159 0)
(1.00168 0.00363211 0)
(1.00235 0.00385703 0)
(1.00287 0.00399054 0)
(1.00306 0.00419921 0)
(1.00299 0.00445486 0)
(0.99992 -5.73858e-06 0)
(1.00006 -0.000177732 0)
(1.00025 -0.000233044 0)
(1.00004 -0.000342727 0)
(1.00019 -1.63297e-05 0)
(1.00048 0.000170334 0)
(1.00044 0.000720568 0)
(1.00039 0.00122692 0)
(1.00073 0.00112864 0)
(1.00083 0.00106542 0)
(1.0007 0.00149644 0)
(1.00082 0.00203849 0)
(1.00123 0.00232614 0)
(1.00144 0.00261806 0)
(1.00151 0.00309984 0)
(1.00183 0.00350885 0)
(1.00244 0.00374255 0)
(1.00295 0.00386892 0)
(1.00318 0.00404727 0)
(1.00315 0.00424207 0)
(0.999936 3.53739e-06 0)
(1.00006 -0.000167325 0)
(1.00025 -0.000221722 0)
(1.00008 -0.000255343 0)
(1.00023 9.56446e-05 0)
(1.00055 0.000200077 0)
(1.00056 0.000636539 0)
(1.00045 0.00118341 0)
(1.00071 0.00124722 0)
(1.00087 0.00119759 0)
(1.00084 0.00151141 0)
(1.00096 0.00200503 0)
(1.00134 0.00232282 0)
(1.00159 0.00259452 0)
(1.0017 0.00301376 0)
(1.00197 0.00339294 0)
(1.00252 0.00362343 0)
(1.00302 0.00374639 0)
(1.00328 0.00390417 0)
(1.0033 0.00404813 0)
(0.999951 1.01323e-05 0)
(1.00006 -0.000146357 0)
(1.00025 -0.000198803 0)
(1.00013 -0.000192831 0)
(1.00028 0.000191766 0)
(1.00061 0.000257794 0)
(1.00067 0.000581863 0)
(1.00054 0.00111776 0)
(1.00071 0.0013228 0)
(1.00091 0.00132729 0)
(1.00096 0.00154985 0)
(1.00111 0.0019698 0)
(1.00145 0.00229557 0)
(1.00173 0.00256093 0)
(1.00188 0.00292579 0)
(1.00212 0.0032818 0)
(1.00261 0.00350762 0)
(1.0031 0.00362043 0)
(1.00336 0.00376831 0)
(1.00341 0.00387584 0)
(0.999963 1.56995e-05 0)
(1.00006 -0.000120254 0)
(1.00026 -0.000162869 0)
(1.00019 -0.000148746 0)
(1.00032 0.000267497 0)
(1.00065 0.000332923 0)
(1.00077 0.00056254 0)
(1.00065 0.00104836 0)
(1.00075 0.00135531 0)
(1.00094 0.00143619 0)
(1.00106 0.00161185 0)
(1.00124 0.00194701 0)
(1.00157 0.00225413 0)
(1.00186 0.00251378 0)
(1.00204 0.0028354 0)
(1.00227 0.00316252 0)
(1.0027 0.00339519 0)
(1.00317 0.00349221 0)
(1.00344 0.00362915 0)
(1.0035 0.00372294 0)
(0.999973 2.14422e-05 0)
(1.00005 -9.41376e-05 0)
(1.00026 -0.000114657 0)
(1.00025 -0.000112525 0)
(1.00037 0.000319666 0)
(1.00068 0.000414603 0)
(1.00085 0.000581535 0)
(1.00076 0.000988175 0)
(1.00081 0.00135015 0)
(1.00098 0.00151301 0)
(1.00114 0.00167735 0)
(1.00135 0.00194475 0)
(1.00168 0.00221423 0)
(1.00198 0.00245439 0)
(1.0022 0.00274569 0)
(1.00241 0.00303669 0)
(1.00278 0.00327657 0)
(1.00323 0.00337141 0)
(1.00351 0.00348185 0)
(1.00357 0.00357964 0)
(0.999982 2.88369e-05 0)
(1.00005 -7.13758e-05 0)
(1.00026 -5.94257e-05 0)
(1.0003 -7.55658e-05 0)
(1.00042 0.000351222 0)
(1.00071 0.000489251 0)
(1.00091 0.000630777 0)
(1.00087 0.000952068 0)
(1.0009 0.00132302 0)
(1.00103 0.00155744 0)
(1.00121 0.00173149 0)
(1.00144 0.00195312 0)
(1.00178 0.00218173 0)
(1.0021 0.00239063 0)
(1.00234 0.00265139 0)
(1.00256 0.00291186 0)
(1.00288 0.00314331 0)
(1.00328 0.00325464 0)
(1.00357 0.00333504 0)
(1.00362 0.00343095 0)
(0.999988 3.77327e-05 0)
(1.00005 -5.24554e-05 0)
(1.00025 -1.66056e-06 0)
(1.00035 -3.34705e-05 0)
(1.00048 0.000370927 0)
(1.00074 0.00055053 0)
(1.00095 0.000693544 0)
(1.00096 0.000944633 0)
(1.001 0.00129087 0)
(1.0011 0.00156682 0)
(1.00127 0.00177096 0)
(1.00152 0.0019647 0)
(1.00186 0.00215812 0)
(1.0022 0.00233405 0)
(1.00247 0.00255392 0)
(1.00269 0.00278715 0)
(1.00298 0.00300027 0)
(1.00333 0.00312643 0)