/*--------------------------------*- C++ -*----------------------------------*\
| =========                 |                                                 |
| \\      /  F ield         | OpenFOAM: The Open Source CFD Toolbox           |
|  \\    /   O peration     | Version:  v1812                                 |
|   \\  /    A nd           | Web:      www.OpenFOAM.com                      |
|    \\/     M anipulation  |                                                 |
\*---------------------------------------------------------------------------*/
FoamFile
{
    version     2.0;
    format      ascii;
    class       volScalarField;
    location    "10";
    object      p;
}
// * * * * * * * * * * * * * * * * * * * * * * * * * * * * * * * * * * * * * //

dimensions      [0 2 -2 0 0 0 0];


internalField   nonuniform List<scalar> 
9600
(
-7.89013e-11
-0.00578437
-0.00334417
-0.00125016
-0.00195024
0.000165678
-0.00629874
-0.00890047
-0.00741276
-0.00596363
-0.0070981
-0.00808388
-0.00827897
-0.00885633
-0.00898394
-0.0105295
-0.0108869
-0.0121199
-0.0128082
-0.0124763
3.24136e-06
-0.00578333
-0.00335574
-0.0012589
-0.00193106
0.00011956
-0.00627134
-0.00888323
-0.00742426
-0.00593506
-0.00711011
-0.00809771
-0.00827464
-0.00887154
-0.00897535
-0.0105856
-0.0108721
-0.012187
-0.0127851
-0.0126519
8.10024e-06
-0.0057833
-0.00336942
-0.00126795
-0.00190902
5.53547e-05
-0.00622209
-0.00885305
-0.00743403
-0.00589922
-0.00713582
-0.00811559
-0.00826911
-0.00889993
-0.00897094
-0.0106584
-0.0108556
-0.0122664
-0.0127604
-0.01289
9.66548e-06
-0.0057835
-0.00338364
-0.00127804
-0.00190155
-2.93661e-05
-0.00616977
-0.00881132
-0.00744184
-0.00587906
-0.00716816
-0.00813542
-0.00826778
-0.00893901
-0.00897485
-0.0107343
-0.0108523
-0.0123241
-0.0127597
-0.0130997
6.86948e-06
-0.00578349
-0.00339928
-0.00129047
-0.00190684
-0.000134359
-0.00610842
-0.00875967
-0.00745313
-0.0058753
-0.00720236
-0.00816087
-0.00827128
-0.0089848
-0.00897809
-0.0108134
-0.0108478
-0.0123706
-0.0127854
-0.0132552
2.01463e-07
-0.00578319
-0.00341649
-0.00130561
-0.00192246
-0.000256509
-0.00603593
-0.00870384
-0.00747184
-0.00588263
-0.00723781
-0.00819181
-0.00827838
-0.00903028
-0.00897925
-0.0108931
-0.0108384
-0.0124193
-0.0128259
-0.0133751
-9.7384e-06
-0.00578252
-0.00343512
-0.00132417
-0.00194847
-0.000390994
-0.00595517
-0.00864977
-0.00749945
-0.00589679
-0.00727453
-0.00822547
-0.00828742
-0.00907173
-0.00898199
-0.0109702
-0.0108318
-0.012467
-0.0128802
-0.0134764
-2.23547e-05
-0.00578127
-0.00345439
-0.00134707
-0.00198446
-0.000533511
-0.00587021
-0.00860014
-0.00753435
-0.00591404
-0.00731223
-0.00826084
-0.00829651
-0.00911
-0.0089887
-0.0110446
-0.0108326
-0.0125087
-0.0129551
-0.0135635
-3.69637e-05
-0.0057792
-0.00347426
-0.00137506
-0.00202904
-0.000681493
-0.00578408
-0.00855428
-0.00757388
-0.00593203
-0.00735132
-0.00829841
-0.00830445
-0.00914822
-0.00900067
-0.0111168
-0.0108428
-0.0125414
-0.0130523
-0.0136363
-5.29163e-05
-0.00577624
-0.0034947
-0.00140864
-0.00208045
-0.000833299
-0.00569805
-0.00851032
-0.00761584
-0.00594995
-0.00739228
-0.00833882
-0.00831127
-0.0091893
-0.00901812
-0.0111861
-0.0108653
-0.0125618
-0.0131699
-0.0136988
-6.97516e-05
-0.00577246
-0.00351586
-0.00144803
-0.00213688
-0.000987717
-0.00561248
-0.00846665
-0.00765934
-0.00596764
-0.00743523
-0.00838269
-0.00831742
-0.00923443
-0.00904066
-0.0112508
-0.0109021
-0.0125677
-0.0133055
-0.0137572
-8.72276e-05
-0.00576807
-0.00353799
-0.00149308
-0.00219675
-0.00114398
-0.00552761
-0.00842242
-0.00770421
-0.00598493
-0.0074801
-0.00843054
-0.00832319
-0.00928331
-0.00906849
-0.0113089
-0.0109551
-0.0125597
-0.0134552
-0.013819
-0.000105267
-0.00576333
-0.00356136
-0.00154331
-0.00225887
-0.0013018
-0.00544378
-0.00837719
-0.00775063
-0.00600172
-0.00752681
-0.00848273
-0.00832892
-0.00933489
-0.00910258
-0.011359
-0.0110256
-0.0125403
-0.0136138
-0.0138913
-0.000123901
-0.0057585
-0.00358621
-0.001598
-0.00232236
-0.00146129
-0.0053615
-0.00833073
-0.007799
-0.00601791
-0.00757515
-0.00853951
-0.00833522
-0.00938774
-0.00914423
-0.0114003
-0.0111139
-0.0125136
-0.0137746
-0.0139788
-0.000143234
-0.00575377
-0.00361279
-0.00165641
-0.00238671
-0.00162261
-0.00528135
-0.00828293
-0.00784973
-0.00603326
-0.00762485
-0.0086011
-0.00834265
-0.00944039
-0.00919499
-0.0114328
-0.0112189
-0.0124848
-0.0139313
-0.0140845
-0.000163427
-0.00574931
-0.00364132
-0.00171791
-0.00245171
-0.00178586
-0.00520403
-0.00823363
-0.00790317
-0.00604761
-0.00767559
-0.00866771
-0.00835164
-0.00949147
-0.00925622
-0.0114578
-0.0113383
-0.0124588
-0.0140789
-0.0142096
-0.000184681
-0.00574519
-0.00367204
-0.00178206
-0.00251735
-0.0019509
-0.00513027
-0.00818256
-0.00795957
-0.00606098
-0.00772689
-0.00873951
-0.00836281
-0.00953997
-0.00932824
-0.011477
-0.0114696
-0.0124398
-0.0142131
-0.0143538
-0.000207205
-0.00574142
-0.00370518
-0.00184852
-0.0025838
-0.00211749
-0.00506086
-0.00812948
-0.0080192
-0.00607344
-0.0077782
-0.00881671
-0.00837665
-0.00958547
-0.00941036
-0.0114922
-0.0116104
-0.0124311
-0.0143301
-0.0145156
-0.000231201
-0.00573797
-0.00374102
-0.00191699
-0.00265125
-0.00228527
-0.00499658
-0.00807421
-0.00808229
-0.00608498
-0.00782888
-0.00889978
-0.00839326
-0.00962796
-0.00950155
-0.0115047
-0.0117591
-0.012435
-0.0144271
-0.0146935
-0.000256862
-0.00573469
-0.00377984
-0.00198716
-0.00271992
-0.00245381
-0.00493826
-0.00801664
-0.00814892
-0.00609592
-0.00787807
-0.00898937
-0.00841249
-0.00966745
-0.00960138
-0.0115156
-0.0119137
-0.0124535
-0.0145014
-0.0148849
-0.000284395
-0.00573139
-0.00382197
-0.00205878
-0.00279001
-0.00262264
-0.00488677
-0.00795659
-0.00821915
-0.00610702
-0.00792462
-0.00908624
-0.00843412
-0.00970411
-0.00971026
-0.0115251
-0.0120725
-0.0124895
-0.0145506
-0.0150852
-0.000314037
-0.00572779
-0.00386778
-0.00213166
-0.00286177
-0.00279119
-0.00484291
-0.007894
-0.008293
-0.00611919
-0.00796714
-0.00919118
-0.0084583
-0.00973793
-0.00982879
-0.0115326
-0.0122333
-0.0125471
-0.0145723
-0.0152871
-0.000346054
-0.0057236
-0.00391765
-0.00220566
-0.00293552
-0.00295883
-0.00480744
-0.00782895
-0.00837029
-0.00613365
-0.00800377
-0.00930501
-0.00848572
-0.00976807
-0.00995795
-0.0115375
-0.0123931
-0.0126307
-0.0145666
-0.0154801
-0.000380759
-0.00571847
-0.003972
-0.00228066
-0.00301158
-0.00312493
-0.00478104
-0.00776158
-0.00845052
-0.0061522
-0.00803255
-0.0094283
-0.00851759
-0.00979282
-0.010099
-0.0115406
-0.0125469
-0.0127446
-0.0145373
-0.0156508
-0.00041852
-0.00571203
-0.00403128
-0.0023565
-0.00309022
-0.00328864
-0.00476435
-0.00769228
-0.00853274
-0.00617686
-0.00805184
-0.00956088
-0.00855588
-0.00980988
-0.0102529
-0.011545
-0.0126874
-0.0128904
-0.0144946
-0.0157844
-0.000459739
-0.00570387
-0.00409595
-0.00243297
-0.00317166
-0.00343192
-0.00475784
-0.00762166
-0.00861577
-0.00620982
-0.00806025
-0.00970198
-0.00860317
-0.00981664
-0.01042
-0.0115559
-0.0128067
-0.0130666
-0.0144536
-0.0158671
-0.000504857
-0.00569357
-0.00416646
-0.00251003
-0.00325629
-0.00359071
-0.00476169
-0.00755037
-0.00869833
-0.00625334
-0.008057
-0.00985008
-0.00866245
-0.00981063
-0.0105989
-0.0115802
-0.0128976
-0.0132666
-0.0144333
-0.0158923
-0.000554377
-0.00568069
-0.00424327
-0.00258758
-0.00334427
-0.00374701
-0.00477585
-0.00747951
-0.00877875
-0.00630947
-0.00804192
-0.0100025
-0.00873761
-0.00979044
-0.0107861
-0.011626
-0.0129559
-0.0134782
-0.0144521
-0.0158663
-0.000608851
-0.00566474
-0.00432684
-0.0026656
-0.00343547
-0.00390086
-0.0048
-0.00741024
-0.00885574
-0.00637991
-0.00801571
-0.0101558
-0.00883301
-0.00975545
-0.0109755
-0.0117019
-0.0129829
-0.0136852
-0.0145211
-0.0158055
-0.000668848
-0.00564516
-0.00441757
-0.00274423
-0.0035296
-0.00405274
-0.00483317
-0.00734387
-0.0089275
-0.00646591
-0.00798012
-0.0103062
-0.00895203
-0.00970701
-0.0111598
-0.0118147
-0.0129841
-0.0138692
-0.0146419
-0.0157382
-0.000735004
-0.00562145
-0.00451581
-0.00282367
-0.0036262
-0.00420344
-0.00487398
-0.00728214
-0.00899366
-0.00656782
-0.00793739
-0.0104495
-0.00909695
-0.00964886
-0.0113308
-0.0119677
-0.01297
-0.0140123
-0.0148047
-0.0156991
-0.000807979
-0.00559317
-0.00462168
-0.00290448
-0.00372451
-0.0043541
-0.00492081
-0.00722617
-0.00905445
-0.00668531
-0.00789009
-0.0105817
-0.0092693
-0.00958624
-0.011479
-0.0121604
-0.0129553
-0.014102
-0.0149901
-0.015718
-0.000888475
-0.00555975
-0.0047352
-0.0029874
-0.0038233
-0.00450616
-0.00497223
-0.00717647
-0.00911069
-0.00681759
-0.00784114
-0.0106996
-0.00946974
-0.00952572
-0.0115952
-0.0123881
-0.0129578
-0.0141352
-0.015172
-0.0158058
-0.000977235
-0.00552081
-0.00485635
-0.00307327
-0.0039208
-0.00466145
-0.00502787
-0.00713296
-0.00916306
-0.00696369
-0.00779356
-0.0108005
-0.00969739
-0.00947472
-0.0116722
-0.0126432
-0.0129941
-0.0141181
-0.0153224
-0.0159517
-0.00107493
-0.00547614
-0.00498443
-0.00316335
-0.00401508
-0.00482144
-0.00508804
-0.00709461
-0.00921277
-0.00712311
-0.00774984
-0.0108811
-0.00995053
-0.00944236
-0.0117053
-0.012914
-0.0130765
-0.0140632
-0.0154195
-0.0161299
-0.00118227
-0.00542557
-0.00511839
-0.00325935
-0.00410401
-0.00498667
-0.00515371
-0.00706035
-0.00926091
-0.00729521
-0.00771222
-0.0109391
-0.0102265
-0.00943775
-0.0116918
-0.0131875
-0.0132139
-0.0139877
-0.0154523
-0.0163102
-0.00129987
-0.00536901
-0.00525667
-0.00336345
-0.00418538
-0.0051572
-0.00522723
-0.00702821
-0.00930801
-0.00748018
-0.00768341
-0.0109726
-0.0105204
-0.0094695
-0.0116335
-0.013448
-0.0134109
-0.0139112
-0.0154191
-0.0164644
-0.00142829
-0.00530657
-0.00539788
-0.0034782
-0.00425754
-0.0053321
-0.00531157
-0.00699585
-0.0093536
-0.00767922
-0.0076667
-0.0109789
-0.0108257
-0.0095479
-0.0115362
-0.0136755
-0.0136674
-0.013857
-0.0153225
-0.0165713
-0.001568
-0.00523889
-0.00553947
-0.00360618
-0.00431972
-0.00550895
-0.00541061
-0.00696228
-0.00939538
-0.00789342
-0.00766654
-0.010956
-0.0111341
-0.00968276
-0.0114121
-0.0138472
-0.013974
-0.0138533
-0.0151718
-0.0166131
-0.00171926
-0.00516704
-0.00567847
-0.00374994
-0.0043719
-0.00568458
-0.00552833
-0.0069274
-0.00943021
-0.00812363
-0.0076874
-0.0109037
-0.0114361
-0.00987917
-0.011279
-0.0139438
-0.0143093
-0.0139273
-0.0149881
-0.0165714
-0.00188227
-0.00509236
-0.00581179
-0.00391163
-0.00441533
-0.00585454
-0.00566829
-0.00689348
-0.00945327
-0.0083685
-0.00773475
-0.0108236
-0.0117211
-0.0101377
-0.0111583
-0.013955
-0.0146431
-0.014093
-0.0148087
-0.0164376
-0.00205708
-0.00501684
-0.00593577
-0.00409264
-0.00445252
-0.00601343
-0.00583344
-0.00686477
-0.00945786
-0.00862484
-0.00781624
-0.0107192
-0.0119782
-0.0104541
-0.0110716
-0.0138831
-0.0149417
-0.0143434
-0.0146796
-0.0162265
-0.00224341
-0.00494289
-0.00604681
-0.00429349
-0.00448732
-0.00615574
-0.00602482
-0.00684706
-0.00943859
-0.0088878
-0.00794002
-0.0105976
-0.0121945
-0.0108175
-0.0110407
-0.013743
-0.0151732
-0.0146526
-0.0146372
-0.0159743
-0.00244069
-0.00487323
-0.00614145
-0.00451373
-0.00452513
-0.0062757
-0.00624049
-0.00684927
-0.00939289
-0.00914943
-0.00811283
-0.0104711
-0.0123566
-0.0112117
-0.0110848
-0.0135572
-0.0153129
-0.0149876
-0.0146959
-0.0157299
-0.00264814
-0.00481087
-0.00621661
-0.004752
-0.00457252
-0.00636809
-0.00647635
-0.00688286
-0.00932276
-0.00939749
-0.00833652
-0.0103558
-0.0124555
-0.0116151
-0.0112129
-0.0133553
-0.0153509
-0.0153132
-0.0148485
-0.015538
-0.00286461
-0.00475907
-0.0062699
-0.00500544
-0.00463723
-0.00643061
-0.00672499
-0.0069582
-0.00923506
-0.00961907
-0.00860437
-0.0102684
-0.0124902
-0.0120027
-0.011421
-0.013173
-0.0152939
-0.0155934
-0.0150738
-0.015426
-0.0030885
-0.00472115
-0.00629547
-0.00526947
-0.00472779
-0.00646445
-0.00697339
-0.00708038
-0.00914163
-0.00980433
-0.00890407
-0.0102238
-0.0124695
-0.0123506
-0.0116933
-0.0130428
-0.0151647
-0.0157982
-0.0153419
-0.0154041
-0.00331797
-0.00469997
-0.00630295
-0.00553785
-0.00485182
-0.00647434
-0.00720609
-0.00724781
-0.00905899
-0.00994884
-0.00921979
-0.0102317
-0.0124097
-0.0126415
-0.0120074
-0.0129847
-0.0149949
-0.0159119
-0.0156168
-0.0154697
-0.00355062
-0.00469848
-0.00629068
-0.00580188
-0.00501432
-0.00647072
-0.00741139
-0.0074532
-0.00900319
-0.0100545
-0.00953483
-0.0102935
-0.0123299
-0.0128667
-0.0123395
-0.0130045
-0.0148194
-0.0159391
-0.0158613
-0.0156058
-0.00378377
-0.0047189
-0.00626333
-0.00605243
-0.00521627
-0.00646866
-0.00758234
-0.00768263
-0.00898488
-0.0101285
-0.00983518
-0.0104045
-0.0122498
-0.0130259
-0.0126655
-0.0130955
-0.0146691
-0.0159003
-0.0160474
-0.0157822
-0.00401504
-0.00476259
-0.00622774
-0.0062817
-0.005455
-0.00648441
-0.00771862
-0.00791997
-0.00900661
-0.0101802
-0.0101111
-0.0105557
-0.0121867
-0.0131268
-0.0129641
-0.013242
-0.0145642
-0.0158221
-0.0161662
-0.0159639
-0.00424213
-0.00483029
-0.00619173
-0.00648394
-0.00572325
-0.00653029
-0.00782282
-0.00815266
-0.00906711
-0.0102207
-0.0103574
-0.0107357
-0.0121515
-0.0131833
-0.0132206
-0.0134234
-0.0145125
-0.0157312
-0.0162268
-0.0161225
-0.00446329
-0.00492108
-0.0061641
-0.00665769
-0.00601031
-0.00661377
-0.00790369
-0.00837111
-0.0091599
-0.0102579
-0.0105714
-0.0109324
-0.0121508
-0.013212
-0.0134306
-0.0136189
-0.0145103
-0.0156473
-0.0162454
-0.0162452
-0.00467759
-0.0050329
-0.00615042
-0.00680227
-0.00630463
-0.00673987
-0.00797878
-0.00857281
-0.00927591
-0.0102974
-0.0107519
-0.011134
-0.012185
-0.0132273
-0.0135945
-0.0138101
-0.0145464
-0.0155797
-0.0162368
-0.0163321
-0.00488489
-0.00516359
-0.00615527
-0.00691985
-0.0065927
-0.00690627
-0.00806329
-0.00875721
-0.00940827
-0.0103443
-0.0109023
-0.011331
-0.0122524
-0.0132434
-0.0137195
-0.0139846
-0.0146101
-0.0155325
-0.0162111
-0.0163874
-0.00508589
-0.00531097
-0.00618273
-0.00701587
-0.00686578
-0.00710637
-0.00816292
-0.0089266
-0.00954996
-0.0103993
-0.0110258
-0.0115152
-0.0123462
-0.0132726
-0.0138166
-0.0141352
-0.0146896
-0.0155077
-0.0161769
-0.0164141
-0.00527959
-0.0054734
-0.00623416
-0.00709809
-0.00712385
-0.00733164
-0.00828182
-0.00908556
-0.00969697
-0.0104634
-0.0111252
-0.0116781
-0.0124546
-0.0133181
-0.0138981
-0.014262
-0.0147714
-0.0155019
-0.0161429
-0.0164175
-0.0054648
-0.0056286
-0.00630769
-0.00719803
-0.00737671
-0.00757025
-0.00841228
-0.00923417
-0.00984732
-0.0105411
-0.0112102
-0.0118181
-0.0125693
-0.0133794
-0.0139754
-0.0143736
-0.0148498
-0.0155081
-0.0161149
-0.0164062
-0.0056479
-0.0057982
-0.00640428
-0.00730087
-0.0076131
-0.00781176
-0.00855255
-0.0093745
-0.0100001
-0.0106346
-0.0112864
-0.0119309
-0.0126778
-0.0134499
-0.0140513
-0.0144773
-0.0149272
-0.0155192
-0.0160918
-0.0163884
-0.0058282
-0.00597211
-0.00652501
-0.0074066
-0.00783016
-0.00805152
-0.00870218
-0.0095074
-0.010155
-0.0107493
-0.0113656
-0.0120227
-0.0127736
-0.0135264
-0.0141268
-0.0145742
-0.0150092
-0.0155371
-0.0160704
-0.016369
-0.00600939
-0.00615377
-0.00665944
-0.00751329
-0.00802997
-0.00828999
-0.00886412
-0.00963881
-0.0103115
-0.0108834
-0.011456
-0.0121018
-0.0128502
-0.0135986
-0.0142018
-0.0146614
-0.0150923
-0.0155664
-0.0160496
-0.0163464
-0.00619402
-0.00634098
-0.00680644
-0.00762469
-0.00821669
-0.00852644
-0.00903901
-0.00976717
-0.0104572
-0.011025
-0.0115594
-0.0121754
-0.0129084
-0.0136551
-0.0142734
-0.0147426
-0.0151716
-0.0156101
-0.016036
-0.0163183
-0.00638078
-0.00653686
-0.00696564
-0.00774182
-0.00839166
-0.00875604
-0.00922246
-0.00989519
-0.0105897
-0.0111669
-0.0116774
-0.0122552
-0.0129573
-0.0136927
-0.0143319
-0.0148206
-0.015246
-0.0156632
-0.0160384
-0.0162893
-0.00656674
-0.006724
-0.00713924
-0.00787694
-0.00855991
-0.00897793
-0.00941322
-0.010027
-0.0107104
-0.0113007
-0.0118032
-0.0123448
-0.0130048
-0.0137168
-0.0143663
-0.0148846
-0.0153129
-0.0157161
-0.0160577
-0.0162684
-0.00675568
-0.00691857
-0.00732246
-0.00802203
-0.00872159
-0.00918847
-0.00960777
-0.0101639
-0.0108219
-0.0114199
-0.0119278
-0.0124442
-0.0130586
-0.0137384
-0.0143834
-0.0149244
-0.0153662
-0.0157596
-0.0160817
-0.0162573
-0.00694886
-0.00711499
-0.00751256
-0.00817744
-0.0088783
-0.00938521
-0.0098022
-0.0103087
-0.0109291
-0.0115248
-0.0120417
-0.0125426
-0.0131163
-0.0137617
-0.0143955
-0.0149474
-0.0154042
-0.0157926
-0.0161015
-0.0162539
-0.0071468
-0.00731634
-0.00770591
-0.00833986
-0.00903238
-0.00957038
-0.00999404
-0.0104614
-0.0110392
-0.0116218
-0.0121436
-0.0126347
-0.0131719
-0.0137767
-0.0143968
-0.0149579
-0.0154279
-0.0158184
-0.016119
-0.0162587
-0.00734785
-0.00751503
-0.00790191
-0.00851234
-0.00918977
-0.00974803
-0.0101812
-0.0106182
-0.0111504
-0.0117093
-0.0122321
-0.0127185
-0.0132266
-0.0137849
-0.0143763
-0.0149436
-0.0154286
-0.0158285
-0.0161292
-0.0162655
-0.00755344
-0.00771772
-0.00810025
-0.00869219
-0.00935211
-0.00991715
-0.0103569
-0.0107733
-0.011262
-0.011788
-0.0123051
-0.0127876
-0.0132758
-0.0137972
-0.0143465
-0.0149029
-0.0153994
-0.0158102
-0.0161192
-0.0162606
-0.00776401
-0.00792801
-0.00829948
-0.00887537
-0.00951769
-0.0100814
-0.0105239
-0.0109247
-0.0113762
-0.0118654
-0.0123663
-0.0128371
-0.0133048
-0.0138006
-0.0143107
-0.0148377
-0.0153356
-0.0157542
-0.016073
-0.0162274
-0.00797549
-0.00813333
-0.00850125
-0.00906502
-0.0096887
-0.0102444
-0.0106874
-0.0110729
-0.0114884
-0.0119395
-0.0124153
-0.0128691
-0.0133116
-0.0137798
-0.0142608
-0.0147511
-0.0152363
-0.0156573
-0.0159797
-0.0161449
-0.00819106
-0.00834598
-0.00870479
-0.00925447
-0.00986032
-0.0104039
-0.0108457
-0.0112204
-0.0116012
-0.0120111
-0.0124527
-0.0128787
-0.0132923
-0.0137267
-0.0141811
-0.0146398
-0.0151034
-0.0155239
-0.0158463
-0.0160131
-0.00841176
-0.00856475
-0.0089106
-0.00944424
-0.0100329
-0.0105601
-0.0109971
-0.0113659
-0.0117207
-0.0120878
-0.0124812
-0.012859
-0.0132291
-0.0136194
-0.0140401
-0.0144723
-0.0149158
-0.0153387
-0.0156745
-0.0158675
-0.00863285
-0.00878352
-0.00912282
-0.00963969
-0.0102063
-0.010712
-0.011142
-0.0115097
-0.0118615
-0.0121971
-0.0125185
-0.0128142
-0.0131059
-0.0134137
-0.0137528
-0.0141163
-0.0145056
-0.0149207
-0.0153316
-0.0156642
-0.00885364
-0.00900318
-0.00933899
-0.0098393
-0.0103798
-0.0108596
-0.0112682
-0.0116493
-0.0120528
-0.0124357
-0.0127156
-0.0129005
-0.0130861
-0.0133031
-0.0135361
-0.013735
-0.0138608
-0.0138971
-0.0138558
-0.0138158
-0.00908922
-0.00921918
-0.00953643
-0.0100134
-0.010546
-0.011014
-0.011359
-0.0116426
-0.0119475
-0.012267
-0.0125799
-0.0128491
-0.0130789
-0.0132725
-0.0134292
-0.0135303
-0.0135814
-0.0136378
-0.013742
-0.0139333
-0.00937077
-0.00952557
-0.00974815
-0.0101104
-0.0105476
-0.0109659
-0.0113355
-0.0116544
-0.0119803
-0.0123243
-0.0126594
-0.0129628
-0.0132033
-0.0133726
-0.0135001
-0.0135734
-0.0135851
-0.0135316
-0.0134589
-0.0134547
-0.00950916
-0.00958625
-0.00981888
-0.010195
-0.0106139
-0.0110129
-0.0113867
-0.0117136
-0.0120323
-0.0123596
-0.0126517
-0.0128837
-0.01308
-0.0132458
-0.0134412
-0.0137073
-0.0140751
-0.0145433
-0.0150629
-0.0155493
-0.00974786
-0.00985847
-0.0100128
-0.0102893
-0.0106436
-0.0110217
-0.0113958
-0.0117388
-0.0120759
-0.0124092
-0.0127244
-0.0129801
-0.0131801
-0.0133235
-0.0134026
-0.0134242
-0.0133842
-0.0133127
-0.0132701
-0.0133435
-0.00990227
-0.00999105
-0.0101125
-0.0103463
-0.010664
-0.0110275
-0.0114048
-0.0117606
-0.0121222
-0.0124724
-0.0127931
-0.0130493
-0.0132283
-0.0133391
-0.0133973
-0.0134362
-0.01349
-0.0135832
-0.0137499
-0.014034
-0.0117477
-0.0140431
-0.0197487
-0.0240805
-0.0249518
-0.0236703
-0.0219006
-0.0205904
-0.0200784
-0.0201648
-0.0204543
-0.0206472
-0.0205623
-0.0202283
-0.0199277
-0.0198399
-0.019818
-0.0197329
-0.0196267
-0.0194944
-0.0193165
-0.0191718
-0.0191081
-0.0190871
-0.0190434
-0.0189785
-0.0189631
-0.019002
-0.0190019
-0.0189549
-0.0189504
-0.0190236
-0.0191178
-0.019196
-0.019321
-0.0195612
-0.01984
-0.0200018
-0.020015
-0.019982
-0.019984
-0.0200194
-0.0200514
-0.0200542
-0.0200826
-0.0201507
-0.0202431
-0.0203964
-0.0206074
-0.0207666
-0.0208231
-0.0208284
-0.0208629
-0.0209257
-0.0210134
-0.0211244
-0.0212358
-0.021323
-0.0213945
-0.0214705
-0.0215658
-0.0216876
-0.0217809
-0.021863
-0.0219713
-0.0220582
-0.0221161
-0.0221827
-0.0222788
-0.0223607
-0.0224519
-0.0225319
-0.0225998
-0.0226725
-0.0227567
-0.0228372
-0.0229042
-0.0229857
-0.0230923
-0.0232375
-0.0233449
-0.0234454
-0.0235161
-0.0236069
-0.0236953
-0.0238283
-0.0239507
-0.0240696
-0.0241757
-0.0242744
-0.0244222
-0.0244941
-0.0246261
-0.0247488
-0.0248553
-0.0249629
-0.0250156
-0.0250155
-0.0248323
-0.024697
-0.0121309
-0.0141204
-0.0196423
-0.023959
-0.0248794
-0.0236317
-0.0218738
-0.0205692
-0.0200617
-0.020152
-0.0204449
-0.0206407
-0.0205577
-0.0202245
-0.019924
-0.0198365
-0.019815
-0.0197302
-0.0196242
-0.0194922
-0.0193143
-0.0191696
-0.019106
-0.0190852
-0.0190416
-0.0189767
-0.0189612
-0.0190003
-0.0190004
-0.0189534
-0.0189489
-0.0190222
-0.0191165
-0.0191948
-0.0193197
-0.01956
-0.019839
-0.0200009
-0.0200141
-0.0199811
-0.0199831
-0.0200186
-0.0200507
-0.0200536
-0.020082
-0.0201501
-0.0202426
-0.0203958
-0.0206069
-0.0207662
-0.0208228
-0.020828
-0.0208625
-0.0209253
-0.0210131
-0.021124
-0.0212355
-0.0213227
-0.0213942
-0.0214702
-0.0215655
-0.0216873
-0.0217806
-0.0218628
-0.0219711
-0.022058
-0.0221159
-0.0221825
-0.0222785
-0.0223605
-0.0224517
-0.0225317
-0.0225996
-0.0226723
-0.0227565
-0.0228371
-0.022904
-0.0229855
-0.0230921
-0.0232374
-0.0233448
-0.0234453
-0.023516
-0.0236067
-0.0236952
-0.0238282
-0.0239506
-0.0240695
-0.0241756
-0.0242743
-0.0244221
-0.0244941
-0.024626
-0.0247487
-0.0248552
-0.0249628
-0.0250155
-0.0250154
-0.0248322
-0.0246967
-0.012556
-0.0141601
-0.0193987
-0.0237132
-0.0247538
-0.0235835
-0.021851
-0.0205522
-0.0200468
-0.0201381
-0.0204317
-0.0206292
-0.0205492
-0.0202188
-0.0199199
-0.0198333
-0.0198122
-0.0197275
-0.0196218
-0.0194902
-0.0193123
-0.0191676
-0.0191041
-0.0190835
-0.0190401
-0.0189751
-0.0189597
-0.0189989
-0.018999
-0.0189521
-0.0189476
-0.0190209
-0.0191153
-0.0191936
-0.0193185
-0.0195589
-0.0198382
-0.0200002
-0.0200134
-0.0199803
-0.0199824
-0.0200179
-0.0200501
-0.020053
-0.0200814
-0.0201495
-0.020242
-0.0203953
-0.0206065
-0.0207659
-0.0208225
-0.0208277
-0.0208621
-0.020925
-0.0210127
-0.0211237
-0.0212353
-0.0213225
-0.0213939
-0.0214699
-0.0215653
-0.0216871
-0.0217804
-0.0218626
-0.0219709
-0.0220578
-0.0221157
-0.0221823
-0.0222784
-0.0223603
-0.0224515
-0.0225315
-0.0225994
-0.0226722
-0.0227564
-0.0228369
-0.0229039
-0.0229853
-0.023092
-0.0232372
-0.0233447
-0.0234452
-0.0235158
-0.0236066
-0.0236951
-0.0238281
-0.0239505
-0.0240694
-0.0241755
-0.0242742
-0.024422
-0.024494
-0.0246259
-0.0247487
-0.0248551
-0.0249627
-0.0250154
-0.0250153
-0.0248321
-0.0246963
-0.0129303
-0.014173
-0.019095
-0.0234057
-0.0245894
-0.0235225
-0.0218243
-0.0205327
-0.0200295
-0.0201214
-0.0204135
-0.0206096
-0.0205319
-0.020207
-0.0199131
-0.0198288
-0.0198082
-0.0197236
-0.0196187
-0.0194878
-0.0193101
-0.0191654
-0.0191019
-0.0190817
-0.0190387
-0.0189739
-0.0189582
-0.0189974
-0.0189976
-0.0189508
-0.0189463
-0.0190196
-0.019114
-0.0191922
-0.0193172
-0.0195579
-0.0198374
-0.0199996
-0.0200127
-0.0199795
-0.0199815
-0.0200171
-0.0200494
-0.0200524
-0.0200808
-0.0201489
-0.0202414
-0.0203947
-0.0206061
-0.0207656
-0.0208222
-0.0208273
-0.0208618
-0.0209246
-0.0210124
-0.0211234
-0.021235
-0.0213222
-0.0213937
-0.0214697
-0.021565
-0.0216869
-0.0217802
-0.0218624
-0.0219707
-0.0220576
-0.0221155
-0.0221821
-0.0222782
-0.0223601
-0.0224513
-0.0225314
-0.0225993
-0.022672
-0.0227562
-0.0228368
-0.0229037
-0.0229852
-0.0230918
-0.0232371
-0.0233445
-0.0234451
-0.0235157
-0.0236065
-0.0236949
-0.0238279
-0.0239504
-0.0240693
-0.0241754
-0.0242741
-0.0244219
-0.0244939
-0.0246258
-0.0247486
-0.024855
-0.0249627
-0.0250154
-0.0250153
-0.0248321
-0.0246959
-0.0132875
-0.014215
-0.0187895
-0.0230791
-0.0244097
-0.0234558
-0.0217965
-0.0205114
-0.0200096
-0.0201018
-0.0203898
-0.0205809
-0.0205044
-0.0201876
-0.019902
-0.0198214
-0.0198013
-0.0197172
-0.0196137
-0.0194843
-0.0193076
-0.0191629
-0.0190991
-0.0190793
-0.0190372
-0.018973
-0.0189571
-0.0189957
-0.0189959
-0.0189496
-0.0189452
-0.0190182
-0.0191123
-0.0191905
-0.0193158
-0.0195567
-0.0198365
-0.0199987
-0.0200117
-0.0199785
-0.0199805
-0.0200161
-0.0200485
-0.0200516
-0.02008
-0.0201481
-0.0202406
-0.020394
-0.0206057
-0.0207653
-0.0208218
-0.0208268
-0.0208613
-0.0209242
-0.021012
-0.0211231
-0.0212347
-0.0213219
-0.0213934
-0.0214694
-0.0215648
-0.0216866
-0.02178
-0.0218621
-0.0219705
-0.0220574
-0.0221153
-0.0221819
-0.022278
-0.0223599
-0.0224512
-0.0225312
-0.0225991
-0.0226718
-0.022756
-0.0228366
-0.0229036
-0.022985
-0.0230916
-0.023237
-0.0233444
-0.023445
-0.0235156
-0.0236064
-0.0236948
-0.0238278
-0.0239503
-0.0240692
-0.0241753
-0.024274
-0.0244218
-0.0244938
-0.0246257
-0.0247485
-0.024855
-0.0249626
-0.0250154
-0.0250153
-0.0248322
-0.0246953
-0.0136472
-0.014302
-0.0184893
-0.0227362
-0.0242162
-0.0233847
-0.0217687
-0.0204896
-0.019988
-0.0200799
-0.0203626
-0.0205462
-0.0204698
-0.0201627
-0.0198874
-0.0198108
-0.0197907
-0.0197073
-0.019606
-0.0194794
-0.0193045
-0.0191601
-0.0190956
-0.019076
-0.0190354
-0.0189726
-0.0189563
-0.0189939
-0.018994
-0.0189487
-0.0189447
-0.019017
-0.0191103
-0.0191885
-0.0193142
-0.0195554
-0.0198352
-0.0199973
-0.0200106
-0.0199774
-0.0199793
-0.0200148
-0.0200474
-0.0200507
-0.020079
-0.020147
-0.0202395
-0.0203932
-0.0206051
-0.0207649
-0.0208214
-0.0208263
-0.0208607
-0.0209237
-0.0210115
-0.0211227
-0.0212344
-0.0213216
-0.021393
-0.021469
-0.0215644
-0.0216863
-0.0217797
-0.0218619
-0.0219703
-0.0220572
-0.0221151
-0.0221817
-0.0222778
-0.0223597
-0.022451
-0.0225311
-0.0225989
-0.0226716
-0.0227559
-0.0228365
-0.0229034
-0.0229848
-0.0230915
-0.0232368
-0.0233443
-0.0234448
-0.0235155
-0.0236062
-0.0236946
-0.0238277
-0.0239502
-0.0240691
-0.0241752
-0.0242739
-0.0244217
-0.0244937
-0.0246256
-0.0247485
-0.0248549
-0.0249626
-0.0250153
-0.0250154
-0.0248324
-0.0246946
-0.0140042
-0.0144234
-0.0181888
-0.022374
-0.0240077
-0.0233085
-0.0217411
-0.0204675
-0.0199644
-0.0200557
-0.020333
-0.0205085
-0.0204318
-0.0201353
-0.0198712
-0.019798
-0.0197768
-0.0196939
-0.0195955
-0.0194726
-0.0193007
-0.0191569
-0.0190914
-0.0190717
-0.0190332
-0.0189724
-0.0189559
-0.0189919
-0.018992
-0.0189481
-0.0189449
-0.0190162
-0.0191081
-0.0191863
-0.0193127
-0.019554
-0.0198332
-0.0199951
-0.0200088
-0.0199761
-0.0199779
-0.0200133
-0.0200461
-0.0200496
-0.0200779
-0.0201457
-0.0202382
-0.0203921
-0.0206043
-0.0207642
-0.0208207
-0.0208256
-0.02086
-0.020923
-0.0210109
-0.0211222
-0.0212339
-0.0213211
-0.0213925
-0.0214686
-0.021564
-0.021686
-0.0217794
-0.0218616
-0.02197
-0.022057
-0.0221148
-0.0221815
-0.0222776
-0.0223595
-0.0224508
-0.0225309
-0.0225987
-0.0226714
-0.0227557
-0.0228363
-0.0229032
-0.0229846
-0.0230913
-0.0232367
-0.0233441
-0.0234447
-0.0235153
-0.023606
-0.0236945
-0.0238275
-0.0239501
-0.024069
-0.0241751
-0.0242737
-0.0244216
-0.0244936
-0.0246255
-0.0247484
-0.0248549
-0.0249626
-0.0250153
-0.0250156
-0.0248328
-0.0246939
-0.0143449
-0.0145723
-0.0178915
-0.0219948
-0.0237839
-0.0232264
-0.0217135
-0.0204454
-0.0199387
-0.0200291
-0.0203017
-0.0204692
-0.0203921
-0.0201067
-0.0198543
-0.0197841
-0.0197608
-0.0196778
-0.0195825
-0.0194641
-0.0192959
-0.0191531
-0.0190866
-0.0190666
-0.0190303
-0.018972
-0.0189554
-0.0189896
-0.0189897
-0.0189479
-0.0189457
-0.0190156
-0.019106
-0.0191843
-0.0193117
-0.0195528
-0.0198308
-0.019992
-0.0200063
-0.0199743
-0.0199761
-0.0200113
-0.0200445
-0.0200486
-0.0200768
-0.0201442
-0.0202366
-0.0203908
-0.0206033
-0.0207633
-0.0208199
-0.0208248
-0.0208592
-0.0209222
-0.0210102
-0.0211216
-0.0212333
-0.0213205
-0.0213919
-0.0214681
-0.0215635
-0.0216855
-0.021779
-0.0218612
-0.0219697
-0.0220567
-0.0221145
-0.0221812
-0.0222773
-0.0223593
-0.0224506
-0.0225307
-0.0225985
-0.0226712
-0.0227555
-0.0228361
-0.022903
-0.0229844
-0.0230911
-0.0232365
-0.023344
-0.0234445
-0.0235151
-0.0236059
-0.0236943
-0.0238274
-0.02395
-0.0240688
-0.0241749
-0.0242736
-0.0244215
-0.0244935
-0.0246254
-0.0247483
-0.0248548
-0.0249626
-0.0250153
-0.0250159
-0.0248334
-0.024693
-0.0146589
-0.0147483
-0.017607
-0.0216022
-0.0235437
-0.0231367
-0.0216852
-0.0204235
-0.0199113
-0.0200002
-0.0202688
-0.0204287
-0.0203511
-0.0200769
-0.0198367
-0.0197694
-0.0197435
-0.0196599
-0.0195677
-0.0194543
-0.0192903
-0.0191489
-0.0190814
-0.0190611
-0.019027
-0.0189713
-0.0189545
-0.018987
-0.0189874
-0.0189481
-0.018947
-0.0190153
-0.019104
-0.0191827
-0.0193115
-0.0195523
-0.0198282
-0.0199881
-0.0200028
-0.0199716
-0.0199734
-0.0200085
-0.0200426
-0.0200477
-0.0200758
-0.0201427
-0.020235
-0.0203894
-0.020602
-0.020762
-0.0208187
-0.0208237
-0.0208582
-0.0209212
-0.0210093
-0.0211208
-0.0212325
-0.0213197
-0.0213912
-0.0214674
-0.0215628
-0.0216848
-0.0217784
-0.0218608
-0.0219693
-0.0220563
-0.0221142
-0.0221809
-0.0222771
-0.022359
-0.0224503
-0.0225305
-0.0225982
-0.022671
-0.0227553
-0.0228359
-0.0229028
-0.0229841
-0.0230908
-0.0232364
-0.0233438
-0.0234443
-0.023515
-0.0236057
-0.0236941
-0.0238272
-0.0239498
-0.0240687
-0.0241748
-0.0242734
-0.0244214
-0.0244934
-0.0246253
-0.0247482
-0.0248548
-0.0249626
-0.0250153
-0.0250163
-0.0248343
-0.0246921
-0.0149389
-0.0149499
-0.0173442
-0.0211988
-0.0232849
-0.0230369
-0.021655
-0.020402
-0.0198824
-0.0199689
-0.0202343
-0.0203871
-0.0203088
-0.0200457
-0.0198181
-0.0197541
-0.0197253
-0.0196408
-0.0195515
-0.0194432
-0.0192839
-0.0191442
-0.0190759
-0.0190553
-0.0190234
-0.0189702
-0.0189533
-0.0189841
-0.0189849
-0.0189484
-0.0189486
-0.0190152
-0.019102
-0.0191815
-0.0193121
-0.0195527
-0.0198262
-0.019984
-0.0199988
-0.0199681
-0.0199697
-0.0200047
-0.02004
-0.0200467
-0.0200752
-0.0201414
-0.0202336
-0.0203882
-0.0206007
-0.0207605
-0.0208173
-0.0208224
-0.020857
-0.0209201
-0.0210083
-0.0211199
-0.0212316
-0.0213187
-0.0213902
-0.0214665
-0.0215619
-0.0216839
-0.0217777
-0.0218602
-0.0219688
-0.0220557
-0.0221137
-0.0221805
-0.0222767
-0.0223587
-0.0224501
-0.0225303
-0.022598
-0.0226708
-0.022755
-0.0228357
-0.0229025
-0.0229839
-0.0230906
-0.0232362
-0.0233436
-0.0234442
-0.0235148
-0.0236054
-0.0236938
-0.023827
-0.0239496
-0.0240685
-0.0241746
-0.0242732
-0.0244212
-0.0244932
-0.0246251