/*--------------------------------*- C++ -*----------------------------------*\
| =========                 |                                                 |
| \\      /  F ield         | OpenFOAM: The Open Source CFD Toolbox           |
|  \\    /   O peration     | Version:  v1906                                 |
|   \\  /    A nd           | Web:      www.OpenFOAM.com                      |
|    \\/     M anipulation  |                                                 |
\*---------------------------------------------------------------------------*/
FoamFile
{
    version     2.0;
    format      ascii;
    class       surfaceScalarField;
    location    "10";
    object      phi;
}
// * * * * * * * * * * * * * * * * * * * * * * * * * * * * * * * * * * * * * //

dimensions      [0 3 -1 0 0 0 0];
oriented        oriented;


internalField   nonuniform List<scalar> 
19000
(
1.2058e-06
1.52718e-06
1.1898e-06
-3.5366e-07
1.1349e-06
-2.78826e-07
1.13659e-06
-3.75331e-07
1.23053e-06
1.91887e-06
1.05336e-06
-9.06367e-07
1.11342e-06
2.21762e-07
1.13116e-06
8.00566e-07
1.10593e-06
-2.83107e-07
1.17756e-06
5.45817e-07
1.14468e-06
1.88411e-07
1.13801e-06
4.91466e-07
1.14023e-06
4.443e-07
1.12561e-06
2.31794e-07
1.14272e-06
7.81341e-07
1.10253e-06
2.1674e-07
1.12905e-06
7.09618e-07
1.09204e-06
2.96525e-07
1.1061e-06
4.02942e-07
2.52484e-07
1.07733e-06
1.25695e-06
1.49449e-06
1.24339e-06
-3.40105e-07
1.1863e-06
-2.21738e-07
1.18961e-06
-3.78641e-07
1.28539e-06
1.82309e-06
1.10227e-06
-7.23242e-07
1.16474e-06
1.59291e-07
1.19071e-06
7.74591e-07
1.16211e-06
-2.54509e-07
1.24222e-06
4.65716e-07
1.20434e-06
2.26284e-07
1.20054e-06
4.95273e-07
1.19688e-06
4.47961e-07
1.18725e-06
2.41422e-07
1.18978e-06
7.78808e-07
1.16722e-06
2.39302e-07
1.16561e-06
7.11224e-07
1.16325e-06
2.98891e-07
1.13895e-06
4.2724e-07
2.29314e-07
1.16212e-06
1.31014e-06
1.46714e-06
1.29926e-06
-3.29225e-07
1.24196e-06
-1.64444e-07
1.2413e-06
-3.77981e-07
1.33918e-06
1.72521e-06
1.16246e-06
-5.46522e-07
1.21605e-06
1.05697e-07
1.26003e-06
7.30613e-07
1.22518e-06
-2.19661e-07
1.30788e-06
3.83016e-07
1.26927e-06
2.64893e-07
1.26951e-06
4.95038e-07
1.25709e-06
4.60381e-07
1.2543e-06
2.44206e-07
1.24974e-06
7.83374e-07
1.23496e-06
2.54077e-07
1.22804e-06
7.18146e-07
1.2292e-06
2.9773e-07
1.2158e-06
4.40643e-07
2.30204e-07
1.21491e-06
1.36494e-06
1.4463e-06
1.35977e-06
-3.24053e-07
1.30233e-06
-1.07007e-07
1.29395e-06
-3.69595e-07
1.39169e-06
1.62748e-06
1.23702e-06
-3.91855e-07
1.27022e-06
7.25001e-08
1.33487e-06
6.6596e-07
1.29228e-06
-1.77069e-07
1.36588e-06
3.09411e-07
1.33452e-06
2.96252e-07
1.33373e-06
4.9583e-07
1.3173e-06
4.76809e-07
1.31703e-06
2.44478e-07
1.31614e-06
7.84266e-07
1.30206e-06
2.68152e-07
1.2994e-06
7.20809e-07
1.29382e-06
3.03312e-07
1.29174e-06
4.42719e-07
2.42477e-07
1.27947e-06
1.42249e-06
1.43216e-06
1.4246e-06
-3.26164e-07
1.36848e-06
-5.08837e-08
1.35036e-06
-3.51478e-07
1.44367e-06
1.53417e-06
1.32483e-06
-2.7301e-07
1.32999e-06
6.73318e-08
1.40678e-06
5.89171e-07
1.36194e-06
-1.32221e-07
1.41472e-06
2.56624e-07
1.39855e-06
3.12427e-07
1.39416e-06
5.00219e-07
1.37669e-06
4.94281e-07
1.37448e-06
2.46682e-07
1.3788e-06
7.79943e-07
1.3645e-06
2.82459e-07
1.36611e-06
7.19197e-07
1.35576e-06
3.1366e-07
1.35923e-06
4.39249e-07
2.5664e-07
1.34507e-06
1.48422e-06
1.42362e-06
1.49277e-06
-3.34715e-07
1.44075e-06
1.13891e-09
1.41353e-06
-3.24259e-07
1.49733e-06
1.45037e-06
1.41964e-06
-1.95326e-07
1.39816e-06
8.88139e-08
1.47261e-06
5.14717e-07
1.4342e-06
-9.38064e-08
1.46317e-06
2.27656e-07
1.46239e-06
3.13201e-07
1.45702e-06
5.05597e-07
1.4394e-06
5.11893e-07
1.43172e-06
2.54365e-07
1.4375e-06
7.74163e-07
1.42354e-06
2.96424e-07
1.42886e-06
7.13871e-07
1.4178e-06
3.24719e-07
1.42591e-06
4.31144e-07
2.69058e-07
1.41349e-06
1.55135e-06
1.41848e-06
1.56348e-06
-3.46847e-07
1.51866e-06
4.59661e-08
1.48507e-06
-2.90672e-07
1.55548e-06
1.37996e-06
1.51465e-06
-1.54496e-07
1.47551e-06
1.27953e-07
1.53655e-06
4.53683e-07
1.50988e-06
-6.71403e-08
1.52059e-06
2.16944e-07
1.52892e-06
3.0487e-07
1.52582e-06
5.08702e-07
1.50943e-06
5.28286e-07
1.49505e-06
2.6874e-07
1.49882e-06
7.70396e-07
1.48524e-06
3.09998e-07
1.4943e-06
7.04814e-07
1.48528e-06
3.33744e-07
1.49841e-06
4.18008e-07
2.78875e-07
1.48859e-06
1.62443e-06
1.41418e-06
1.63657e-06
-3.5899e-07
1.60096e-06
8.15821e-08
1.5648e-06
-2.5451e-07
1.62053e-06
1.32422e-06
1.60619e-06
-1.40153e-07
1.56016e-06
1.73983e-07
1.60438e-06
4.09456e-07
1.58919e-06
-5.19489e-08
1.58999e-06
2.16143e-07
1.60063e-06
2.94233e-07
1.60048e-06
5.08846e-07
1.58678e-06
5.41995e-07
1.56763e-06
2.87883e-07
1.56875e-06
7.69281e-07
1.55542e-06
3.23322e-07
1.56809e-06
6.92149e-07
1.56156e-06
3.40274e-07
1.57922e-06
4.00348e-07
2.86556e-07
1.57154e-06
1.70322e-06
1.40854e-06
1.71245e-06
-3.68222e-07
1.68617e-06
1.07862e-07
1.65134e-06
-2.19677e-07
1.69367e-06
1.28189e-06
1.69408e-06
-1.4056e-07
1.64915e-06
2.18911e-07
1.67937e-06
3.79233e-07
1.67206e-06
-4.46385e-08
1.66896e-06
2.1924e-07
1.67797e-06
2.85229e-07
1.67958e-06
5.07233e-07
1.66903e-06
5.5255e-07
1.64867e-06
3.08244e-07
1.64899e-06
7.68961e-07
1.63618e-06
3.36125e-07
1.65222e-06
6.76114e-07
1.64706e-06
3.45428e-07
1.6677e-06
3.79709e-07
2.92877e-07
1.66138e-06
1.78705e-06
1.40021e-06
1.79181e-06
-3.72982e-07
1.77333e-06
1.2634e-07
1.74303e-06
-1.89376e-07
1.77474e-06
1.25018e-06
1.78022e-06
-1.46038e-07
1.74064e-06
2.58488e-07
1.76189e-06
3.5798e-07
1.7586e-06
-4.1342e-08
1.75404e-06
2.238e-07
1.76007e-06
2.79194e-07
1.7621e-06
5.05203e-07
1.75432e-06
5.60329e-07
1.73584e-06
3.2673e-07
1.73792e-06
7.66881e-07
1.72624e-06
3.47808e-07
1.74548e-06
6.56865e-07
1.74036e-06
3.50552e-07
1.76204e-06
3.58031e-07
2.98394e-07
1.75652e-06
1.87527e-06
1.38869e-06
1.87528e-06
-3.72988e-07
1.86232e-06
1.39297e-07
1.83845e-06
-1.65502e-07
1.86269e-06
1.22594e-06
1.86716e-06
-1.50505e-07
1.83446e-06
2.9119e-07
1.85078e-06
3.41655e-07
1.8489e-06
-3.94639e-08
1.84327e-06
2.29429e-07
1.84634e-06
2.76131e-07
1.84809e-06
5.0345e-07
1.84253e-06
5.65889e-07
1.8276e-06
3.41655e-07
1.8333e-06
7.61185e-07
1.82317e-06
3.57936e-07
1.84541e-06
6.3463e-07
1.83949e-06
3.5647e-07
1.86042e-06
3.37098e-07
3.03294e-07
1.85552e-06
1.9675e-06
1.37403e-06
1.96323e-06
-3.68718e-07
1.95368e-06
1.48853e-07
1.93654e-06
-1.48367e-07
1.95618e-06
1.20629e-06
1.95705e-06
-1.51368e-07
1.93115e-06
3.17086e-07
1.94456e-06
3.28243e-07
1.9429e-06
-3.78069e-08
1.93623e-06
2.36101e-07
1.9369e-06
2.75461e-07
1.9383e-06
5.02056e-07
1.93457e-06
5.69615e-07
1.92362e-06
3.52604e-07
1.9337e-06
7.51103e-07
1.9251e-06
3.66536e-07
1.94975e-06
6.09978e-07
1.94277e-06
3.63451e-07
1.96152e-06
3.18352e-07
3.07458e-07
1.95735e-06
2.06365e-06
1.35657e-06
2.05582e-06
-3.60888e-07
2.04821e-06
1.56468e-07
2.03675e-06
-1.36909e-07
2.05414e-06
1.1889e-06
2.05117e-06
-1.48391e-07
2.03111e-06
3.37139e-07
2.04221e-06
3.17147e-07
2.04052e-06
-3.61162e-08
2.03299e-06
2.43631e-07
2.03209e-06
2.76366e-07
2.03342e-06
5.00717e-07
2.03134e-06
5.71702e-07
2.02399e-06
3.59956e-07
2.03835e-06
7.36741e-07
2.03087e-06
3.74013e-07
2.05698e-06
5.83864e-07
2.04908e-06
3.7136e-07
2.06457e-06
3.02859e-07
3.10567e-07
2.06146e-06
2.1638e-06
1.33677e-06
2.15311e-06
-3.50201e-07
2.1467e-06
1.62884e-07
2.13909e-06
-1.29297e-07
2.15599e-06
1.17199e-06
2.14994e-06
-1.4234e-07
2.13445e-06
3.52626e-07
2.14337e-06
3.08231e-07
2.14181e-06
-3.45522e-08
2.13355e-06
2.51884e-07
2.13189e-06
2.78026e-07
2.13366e-06
4.9895e-07
2.13308e-06
5.72281e-07
2.12857e-06
3.64468e-07
2.14656e-06
7.18748e-07
2.1397e-06
3.80872e-07
2.16614e-06
5.5742e-07
2.15775e-06
3.79753e-07
2.16941e-06
2.91199e-07
3.12226e-07
2.16775e-06
2.26813e-06
1.31513e-06
2.25526e-06
-3.37333e-07
2.24981e-06
1.68337e-07
2.24413e-06
-1.23624e-07
2.26164e-06
1.15448e-06
2.25332e-06
-1.34019e-07
2.24143e-06
3.64518e-07
2.24826e-06
3.014e-07
2.24696e-06
-3.32523e-08
2.23792e-06
2.60922e-07
2.23615e-06
2.79804e-07
2.23881e-06
4.96281e-07
2.23957e-06
5.71528e-07
2.23701e-06
3.6703e-07
2.25769e-06
6.98061e-07
2.25108e-06
3.87483e-07
2.27684e-06
5.31667e-07
2.26862e-06
3.87972e-07
2.27642e-06
2.83391e-07
3.12117e-07
2.27653e-06
2.37685e-06
1.29215e-06
2.3625e-06
-3.22983e-07
2.35801e-06
1.7283e-07
2.35274e-06
-1.1836e-07
2.37135e-06
1.13588e-06
2.36126e-06
-1.23932e-07
2.35269e-06
3.73091e-07
2.35741e-06
2.9668e-07
2.35624e-06
-3.20825e-08
2.34633e-06
2.70825e-07
2.34487e-06
2.81264e-07
2.34879e-06
4.92362e-07
2.35063e-06
5.69694e-07
2.34915e-06
3.68508e-07
2.37145e-06
6.75758e-07
2.36496e-06
3.93973e-07
2.38926e-06
5.07364e-07
2.38194e-06
3.95299e-07
2.38635e-06
2.78981e-07
3.10119e-07
2.38835e-06
2.49027e-06
1.26827e-06
2.47512e-06
-3.07826e-07
2.47163e-06
1.76318e-07
2.46566e-06
-1.12394e-07
2.4855e-06
1.11604e-06
2.47396e-06
-1.1239e-07
2.46895e-06
3.78104e-07
2.4713e-06
2.94331e-07
2.46988e-06
-3.06717e-08
2.45923e-06
2.81479e-07
2.45837e-06
2.82124e-07
2.46375e-06
4.86986e-07
2.46635e-06
5.67087e-07
2.46527e-06
3.69592e-07
2.48812e-06
6.52909e-07
2.48175e-06
4.00338e-07
2.50416e-06
4.84963e-07
2.49827e-06
4.01189e-07
2.49995e-06
2.773e-07
3.06325e-07
2.50374e-06
2.60877e-06
1.2438e-06
2.59331e-06
-2.92362e-07
2.59086e-06
1.78759e-07
2.58333e-06
-1.04863e-07
2.60451e-06
1.09486e-06
2.59182e-06
-9.96963e-08
2.59055e-06
3.79378e-07
2.59019e-06
2.94685e-07
2.58821e-06
-2.86921e-08
2.5771e-06
2.92591e-07
2.57696e-06
2.82265e-07
2.5839e-06
4.80044e-07
2.58696e-06
5.64029e-07
2.58587e-06
3.70677e-07
2.60837e-06
6.30409e-07
2.60217e-06
4.06546e-07
2.62247e-06
4.64661e-07
2.61828e-06
4.05375e-07
2.61789e-06
2.7769e-07
3.00984e-07
2.62323e-06
2.73278e-06
1.21884e-06
2.7172e-06
-2.76782e-07
2.71587e-06
1.80096e-07
2.70605e-06
-9.50489e-08
2.7288e-06
1.07211e-06
2.71525e-06
-8.61485e-08
2.71742e-06
3.77207e-07
2.71423e-06
2.97873e-07
2.71167e-06
-2.61314e-08
2.70039e-06
3.03873e-07
2.70082e-06
2.81838e-07
2.70937e-06
4.71491e-07
2.71259e-06
5.60814e-07
2.71139e-06
3.71876e-07
2.73297e-06
6.08823e-07
2.72692e-06
4.12596e-07
2.74518e-06
4.46409e-07
2.74271e-06
4.07838e-07
2.74078e-06
2.79621e-07
2.94404e-07
2.74736e-06
2.86275e-06
1.19336e-06
2.84694e-06
-2.60969e-07
2.8468e-06
1.8023e-07
2.83422e-06
-8.24615e-08
2.8588e-06
1.04753e-06
2.84456e-06
-7.1907e-08
2.84949e-06
3.72281e-07
2.84363e-06
3.03732e-07
2.8408e-06
-2.33074e-08
2.82955e-06
3.15131e-07
2.83008e-06
2.81299e-07
2.84025e-06
4.61326e-07
2.84341e-06
5.57657e-07
2.84214e-06
3.73141e-07
2.86264e-06
5.88325e-07
2.85675e-06
4.18487e-07
2.87317e-06
4.29983e-07
2.87238e-06
4.08635e-07
2.86925e-06
2.8275e-07
2.86907e-07
2.87674e-06
2.99906e-06
1.16719e-06
2.98272e-06
-2.44623e-07
2.98392e-06
1.79033e-07
2.96839e-06
-6.69342e-08
2.99501e-06
1.02091e-06
2.98001e-06
-5.6905e-08
2.98697e-06
3.65317e-07
2.97881e-06
3.11899e-07
2.97613e-06
-2.06347e-08
2.96508e-06
3.26181e-07
2.96508e-06
2.813e-07
2.97681e-06
4.49602e-07
2.9798e-06
5.54665e-07
2.97853e-06
3.74404e-07
2.9981e-06
5.68756e-07
2.99237e-06
4.24221e-07
3.00724e-06
4.15111e-07
3.00814e-06
4.07739e-07
3.00396e-06
2.86928e-07
2.78842e-07
3.01202e-06
3.14206e-06
1.14014e-06
3.12484e-06
-2.27402e-07
3.1275e-06
1.76377e-07
3.10915e-06
-4.85891e-08
3.13787e-06
9.92191e-07
3.12186e-06
-4.08961e-08
3.13038e-06
3.56789e-07
3.12032e-06
3.21967e-07
3.11805e-06
-1.83718e-08
3.1075e-06
3.36734e-07
3.10631e-06
2.82493e-07
3.1195e-06
4.36411e-07
3.12233e-06
5.51829e-07
3.12106e-06
3.75677e-07
3.14006e-06
5.49762e-07
3.13447e-06
4.29803e-07
3.14803e-06
4.01558e-07
3.1507e-06
4.05068e-07
3.14559e-06
2.92038e-07
2.70719e-07
3.15371e-06
3.29203e-06
1.11202e-06
3.27363e-06
-2.09004e-07
3.27787e-06
1.72143e-07
3.25697e-06
-2.76938e-08
3.28772e-06
9.6144e-07
3.27043e-06
-2.35986e-08
3.28028e-06
3.46937e-07
3.26871e-06
3.33536e-07
3.26684e-06
-1.6501e-08
3.2572e-06
3.46369e-07
3.25431e-06
2.85389e-07
3.26884e-06
4.21884e-07
3.27164e-06
5.49029e-07
3.27022e-06
3.77094e-07
3.28905e-06
5.3093e-07
3.28369e-06
4.35161e-07
3.29589e-06
3.89359e-07
3.30058e-06
4.00382e-07
3.29472e-06
2.97899e-07
2.63241e-07
3.3022e-06
3.44927e-06
1.08268e-06
3.42946e-06
-1.89188e-07
3.43537e-06
1.66226e-07
3.41221e-06
-4.52648e-09
3.44487e-06
9.28779e-07
3.4261e-06
-4.8279e-09
3.43712e-06
3.35909e-07
3.42446e-06
3.462e-07
3.42273e-06
-1.47741e-08
3.41449e-06
3.54609e-07
3.40957e-06
2.90309e-07
3.42525e-06
4.06209e-07
3.42825e-06
5.46027e-07
3.42641e-06
3.78931e-07
3.44547e-06
5.11874e-07
3.44052e-06
4.40108e-07
3.45105e-06
3.78829e-07
3.45801e-06
3.93423e-07
3.45181e-06
3.04097e-07
2.57237e-07
3.45782e-06
3.61408e-06
1.05201e-06
3.59265e-06
-1.67764e-07
3.60035e-06
1.58532e-07
3.57514e-06
2.06788e-08
3.60954e-06
8.94387e-07
3.58927e-06
1.54334e-08
3.60129e-06
3.23895e-07
3.58799e-06
3.59503e-07
3.586e-06
-1.27921e-08
3.57961e-06
3.61002e-07
3.57252e-06
2.974e-07
3.58907e-06
3.89662e-07
3.5926e-06
5.42494e-07
3.58999e-06
3.81537e-07
3.60951e-06
4.92357e-07
3.60534e-06
4.44282e-07
3.61376e-06
3.70405e-07
3.62301e-06
3.84171e-07
3.61724e-06
3.09865e-07
2.535e-07
3.62098e-06
3.78678e-06
1.01993e-06
3.76359e-06
-1.44571e-07
3.77314e-06
1.48982e-07
3.7461e-06
4.77186e-08
3.78198e-06
8.58501e-07
3.7604e-06
3.70182e-08
3.7731e-06
3.1119e-07
3.75968e-06
3.72927e-07
3.75697e-06
-1.00778e-08
3.7528e-06
3.65173e-07
3.74354e-06
3.0666e-07
3.76056e-06
3.72635e-07
3.76506e-06
5.37998e-07
3.76131e-06
3.85287e-07
3.78134e-06
4.72326e-07
3.77846e-06
4.47164e-07
3.78433e-06
3.64537e-07
3.79561e-06
3.72886e-07
3.79121e-06
3.1427e-07
2.52433e-07
3.79227e-06
3.96773e-06
9.86388e-07
3.94264e-06
-1.19479e-07
3.95409e-06
1.37537e-07
3.92543e-06
7.63761e-08
3.9625e-06
8.21427e-07
3.93992e-06
5.96017e-08
3.95291e-06
2.98204e-07
3.93994e-06
3.85893e-07
3.93599e-06
-6.12843e-09
3.93431e-06
3.66854e-07
3.92304e-06
3.17926e-07
3.94002e-06
3.55658e-07
3.94596e-06
5.32054e-07
3.94078e-06
3.90467e-07
3.96111e-06
4.51999e-07
3.96016e-06
4.48113e-07
3.96329e-06
3.61408e-07
3.97586e-06
3.60316e-07
3.97378e-06
3.16355e-07
2.53844e-07
3.97236e-06
4.1573e-06
9.5134e-07
4.13022e-06
-9.24003e-08
4.14354e-06
1.24213e-07
4.11354e-06
1.06378e-07
4.15141e-06
7.83555e-07
4.1283e-06
8.27163e-08
4.14105e-06
2.85453e-07
4.12915e-06
3.97795e-07
4.1235e-06
-4.84239e-10
4.12442e-06
3.65938e-07
4.11148e-06
3.30866e-07
4.12777e-06
3.39367e-07
4.13563e-06
5.24193e-07
4.12895e-06
3.97148e-07
4.14907e-06
4.3188e-07
4.15063e-06
4.4655e-07
4.15124e-06
3.60798e-07
4.16404e-06
3.47515e-07
4.16494e-06
3.15455e-07
2.56901e-07
4.16189e-06
4.35587e-06
9.14776e-07
4.32677e-06
-6.3305e-08
4.34188e-06
1.09107e-07
4.31088e-06
1.37372e-07
4.34908e-06
7.4536e-07
4.32601e-06
1.05781e-07
4.33792e-06
2.73546e-07
4.32767e-06
4.08046e-07
4.31998e-06
7.20977e-09
4.32342e-06
3.62498e-07
4.3093e-06
3.44988e-07
4.32424e-06
3.24425e-07
4.33436e-06
5.14071e-07
4.32635e-06
4.05162e-07
4.34555e-06
4.12672e-07
4.35012e-06
4.41988e-07
4.34871e-06
3.62207e-07
4.3606e-06
3.35628e-07
4.36475e-06
3.113e-07
2.60449e-07
4.3612e-06
4.56384e-06
8.76711e-07
4.53277e-06
-3.22405e-08
4.54948e-06
9.24041e-08
4.51792e-06
1.6893e-07
4.5559e-06
7.07377e-07
4.53354e-06
1.28143e-07
4.54397e-06
2.63116e-07
4.53585e-06
4.16162e-07
4.52593e-06
1.7129e-08
4.53164e-06
3.56795e-07
4.51695e-06
3.59678e-07
4.52992e-06
3.11453e-07
4.54246e-06
5.01523e-07
4.53355e-06
4.14076e-07
4.55098e-06
3.95245e-07
4.55885e-06
4.34116e-07
4.55615e-06
3.64909e-07
4.56623e-06
3.25541e-07
4.57319e-06
3.0434e-07
2.63047e-07
4.5706e-06
4.78163e-06
8.37194e-07
4.74873e-06
6.62005e-10
4.76676e-06
7.43759e-08
4.73514e-06
2.00551e-07
4.7723e-06
6.70214e-07
4.75136e-06
1.49086e-07
4.7597e-06
2.54772e-07
4.75403e-06
4.21835e-07
4.7419e-06
2.92548e-08
4.74947e-06
3.49228e-07
4.73487e-06
3.74274e-07
4.74536e-06
3.00968e-07
4.76031e-06
4.86573e-07
4.75109e-06
4.23295e-07
4.76597e-06
3.8037e-07
4.77706e-06
4.23026e-07
4.77406e-06
3.679e-07
4.78165e-06
3.17952e-07
4.79061e-06
2.95381e-07
2.6354e-07
4.79012e-06
5.00969e-06
7.96306e-07
4.97516e-06
3.51919e-08
4.99416e-06
5.5367e-08
4.96304e-06
2.31671e-07
4.99871e-06
6.34548e-07
4.97996e-06
1.67834e-07
4.98568e-06
2.49051e-07
4.98252e-06
4.24995e-07
4.96843e-06
4.3346e-08
4.97736e-06
3.40299e-07
4.96351e-06
3.88129e-07
4.97116e-06
2.93313e-07
4.9883e-06
4.69436e-07
4.97948e-06
4.32107e-07
4.9912e-06
3.68655e-07
5.00513e-06
4.09093e-07
5.00291e-06
3.70118e-07
5.00775e-06
3.13118e-07
5.01747e-06
2.85662e-07
2.61221e-07
5.01979e-06
5.24846e-06
7.54164e-07
5.21258e-06
7.10699e-08
5.23216e-06
3.57829e-08
5.20217e-06
2.61661e-07
5.23559e-06
6.01131e-07
5.21985e-06
1.83572e-07
5.22253e-06
2.46374e-07
5.22169e-06
4.25833e-07
5.20608e-06
5.89578e-08
5.21582e-06
3.30556e-07
5.20327e-06
4.00682e-07
5.20797e-06
2.88617e-07
5.22688e-06
4.50528e-07
5.2192e-06
4.39788e-07
5.2275e-06
3.60354e-07
5.24353e-06
3.93057e-07
5.24303e-06
3.70625e-07
5.24532e-06
3.10824e-07
5.25458e-06
2.76405e-07
2.56196e-07
5.2596e-06
5.49844e-06
7.10917e-07
5.46155e-06
1.07955e-07
5.48124e-06
1.60911e-08
5.45308e-06
2.89825e-07
5.48344e-06
5.70773e-07
5.47136e-06
1.9565e-07
5.47092e-06
2.4681e-07
5.47194e-06
4.24815e-07
5.45541e-06
7.54904e-08
5.46544e-06
3.20524e-07
5.45464e-06
4.11486e-07
5.4564e-06
2.86857e-07
5.47658e-06
4.30349e-07
5.47069e-06
4.45674e-07
5.47556e-06
3.55484e-07
5.49286e-06
3.75753e-07
5.49474e-06
3.68744e-07
5.495e-06
3.10564e-07
5.50289e-06
2.68519e-07
2.49288e-07
5.5098e-06
5.76013e-06
6.66745e-07
5.72263e-06
1.45459e-07
5.7419e-06
-3.17914e-09
5.71635e-06
3.15369e-07
5.74282e-06
5.44302e-07
5.73471e-06
2.0376e-07
5.73154e-06
2.49976e-07
5.73373e-06
4.22625e-07
5.71695e-06
9.22704e-08
5.72685e-06
3.10629e-07
5.71804e-06
4.203e-07
5.71709e-06
2.87803e-07
5.73794e-06
4.09499e-07
5.73451e-06
4.49108e-07
5.73607e-06
3.53915e-07
5.75369e-06
3.58141e-07
5.7584e-06
3.64032e-07
5.75733e-06
3.11628e-07
5.76332e-06
2.62531e-07
2.41522e-07
5.77109e-06
6.03407e-06
6.21863e-07
5.9964e-06
1.83133e-07
6.01464e-06
-2.1419e-08
5.99261e-06
3.37403e-07
6.01442e-06
5.22488e-07
6.01025e-06
2.07927e-07
6.00509e-06
2.55143e-07
6.00765e-06
4.20059e-07
5.99124e-06
1.08687e-07
6.00069e-06
3.01176e-07
5.994e-06
4.2699e-07
5.99064e-06
2.91163e-07
6.0116e-06
3.88544e-07
6.01111e-06
4.49598e-07
6.00976e-06
3.55265e-07
6.02653e-06
3.41366e-07
6.03445e-06
3.56113e-07
6.03279e-06
3.13289e-07
6.03669e-06
2.58632e-07
2.33844e-07
6.04437e-06
6.32083e-06
5.76517e-07
6.28349e-06
2.20479e-07
6.30002e-06
-3.79477e-08
6.28249e-06
3.54926e-07
6.29903e-06
5.05954e-07
6.29839e-06
2.08564e-07
6.29223e-06
2.61306e-07
6.29438e-06
4.17903e-07
6.2787e-06
1.24371e-07
6.28767e-06
2.92211e-07
6.28309e-06
4.31568e-07
6.27763e-06
2.96622e-07
6.29817e-06
3.68007e-07
6.30099e-06
4.46776e-07
6.29723e-06
3.59021e-07
6.31215e-06
3.26445e-07
6.32321e-06
3.45059e-07
6.32193e-06
3.14563e-07
6.32371e-06
2.56856e-07
2.2687e-07
6.33068e-06
6.621e-06
5.30988e-07
6.58453e-06
2.56943e-07
6.5986e-06
-5.20169e-08
6.58657e-06
3.66964e-07
6.59749e-06
4.95034e-07
6.59963e-06
2.06421e-07
6.59359e-06
2.67348e-07
6.59468e-06
4.16809e-07
6.57984e-06
1.39213e-07
6.58846e-06
2.83589e-07
6.5859e-06
4.34128e-07
6.57869e-06
3.03836e-07
6.59823e-06
3.48459e-07
6.60456e-06
4.40453e-07
6.59928e-06
3.64297e-07
6.61117e-06
3.14552e-07
6.62508e-06
3.31154e-07
6.62526e-06
3.1438e-07
6.62511e-06
2.57013e-07
2.21104e-07
6.63087e-06
6.93519e-06
4.85592e-07
6.90021e-06
2.91922e-07
6.91102e-06
-6.28306e-08
6.90521e-06
3.72778e-07
6.91068e-06
4.89562e-07
6.91456e-06
2.02543e-07
6.9098e-06
2.72105e-07
6.90939e-06
4.17221e-07
6.89517e-06
1.53434e-07
6.90373e-06
2.75029e-07
6.90312e-06
4.34735e-07
6.89442e-06
3.12541e-07
6.91246e-06
3.30415e-07
6.92231e-06
4.30605e-07
6.91645e-06
3.70151e-07
6.92458e-06
3.06421e-07
6.9405e-06
3.15234e-07
6.94317e-06
3.11718e-07
6.94167e-06
2.58512e-07
2.17044e-07
6.94573e-06
7.26405e-06
4.40676e-07
7.2312e-06
3.2477e-07
7.23794e-06
-6.95617e-08
7.23876e-06
3.7195e-07
7.23949e-06
4.88838e-07
7.24385e-06
1.9818e-07
7.24146e-06
2.74494e-07
7.23938e-06
4.193e-07
7.2253e-06
1.67511e-07
7.23407e-06
2.66267e-07
7.23544e-06
4.3336e-07
7.2255e-06
3.2248e-07
7.24151e-06
3.1441e-07
7.25462e-06
4.1749e-07
7.24929e-06
3.7549e-07
7.25355e-06
3.02157e-07
7.26992e-06
2.98865e-07
7.27597e-06
3.05669e-07
7.27404e-06
2.60439e-07
2.15006e-07
7.27608e-06
7.60828e-06
3.96617e-07
7.57822e-06
3.54831e-07
7.58014e-06
-7.14752e-08
7.58761e-06
3.64477e-07
7.58476e-06
4.91693e-07
7.58822e-06
1.9471e-07
7.58904e-06
2.73682e-07
7.58558e-06
4.22761e-07
7.57094e-06
1.82149e-07
7.58003e-06
2.57176e-07
7.58361e-06
4.29783e-07
7.57263e-06
3.33455e-07
7.5861e-06
3.00945e-07
7.60199e-06
4.01591e-07
7.59827e-06
3.79219e-07
7.59899e-06
3.01434e-07
7.61431e-06
2.83548e-07
7.62384e-06
2.96138e-07
7.62277e-06
2.61507e-07
2.14833e-07
7.62294e-06
7.96861e-06
3.53818e-07
7.94198e-06
3.81459e-07
7.93858e-06
-6.80684e-08
7.95223e-06
3.50825e-07
7.94726e-06
4.96657e-07
7.94844e-06
1.9353e-07
7.95296e-06
2.69168e-07
7.9488e-06
4.26918e-07
7.93294e-06
1.98014e-07
7.94217e-06
2.47943e-07
7.94821e-06
4.23741e-07
7.93665e-06
3.45012e-07
7.94684e-06
2.90763e-07
7.96502e-06
3.83405e-07
7.96385e-06
3.80388e-07
7.9619e-06
3.03391e-07
7.97484e-06
2.706e-07
7.9872e-06
2.83779e-07
7.98818e-06
2.60526e-07
2.15878e-07
7.98714e-06
8.3458e-06
3.12699e-07
8.32322e-06
4.04037e-07
8.31425e-06
-5.90923e-08
8.33327e-06
3.31806e-07
8.32783e-06
5.02089e-07
8.3254e-06
1.95965e-07
8.33368e-06
2.60891e-07
8.32988e-06
4.30716e-07
8.31225e-06
2.15643e-07
8.32106e-06
2.39131e-07
8.32982e-06
4.14986e-07
8.31827e-06
3.56561e-07
8.32459e-06
2.84441e-07
8.34437e-06
3.63622e-07
8.3466e-06
3.78165e-07
8.34314e-06
3.06851e-07
8.35281e-06
2.60923e-07
8.3668e-06
2.6979e-07
8.37055e-06
2.56782e-07
2.17116e-07
8.36931e-06
8.74067e-06
2.73688e-07
8.72274e-06
4.21964e-07
8.70819e-06
-4.45359e-08
8.73148e-06
3.08516e-07
8.72726e-06
5.06302e-07
8.72024e-06
2.02994e-07
8.73166e-06
2.49467e-07
8.72958e-06
4.32791e-07
8.70988e-06
2.35342e-07
8.71731e-06
2.31706e-07
8.72877e-06
4.03524e-07
8.71815e-06
3.67183e-07
8.7204e-06
2.82195e-07
8.74081e-06
3.43213e-07
8.74703e-06
3.71944e-07
8.74337e-06
3.10502e-07
8.74949e-06
2.54806e-07
8.76372e-06
2.55559e-07
8.77028e-06
2.50224e-07
2.17509e-07
8.76989e-06
9.1541e-06
2.37212e-07
9.14142e-06
4.34644e-07
9.12149e-06
-2.46084e-08
9.14775e-06
2.82253e-07
9.14633e-06
5.07722e-07
9.13405e-06
2.15277e-07
9.14752e-06
2.35992e-07
9.14838e-06
4.31931e-07
9.12685e-06
2.5688e-07
9.13153e-06
2.27021e-07
9.14563e-06
3.89424e-07
9.13708e-06
3.75739e-07
9.1356e-06
2.83667e-07
9.15527e-06
3.23546e-07
9.16569e-06
3.61527e-07
9.1632e-06
3.12991e-07
9.16616e-06
2.51839e-07
9.17921e-06
2.42515e-07
9.18816e-06
2.4127e-07
2.16342e-07
9.18933e-06
9.58701e-06
2.03666e-07
9.58012e-06
4.41526e-07
9.55534e-06
1.73358e-10
9.58302e-06
2.54577e-07
9.58576e-06
5.04976e-07
9.56799e-06
2.33055e-07
9.58174e-06
2.22236e-07
9.58663e-06
4.27044e-07
9.56411e-06
2.79398e-07
9.5648e-06
2.26331e-07
9.58137e-06
3.72852e-07
9.57623e-06
3.80887e-07
9.57192e-06
2.87971e-07
9.58915e-06
3.06317e-07
9.60331e-06
3.47367e-07
9.60315e-06
3.13154e-07
9.6039e-06
2.51087e-07
9.61462e-06
2.31793e-07
9.62516e-06
2.30732e-07
2.1323e-07
9.62827e-06
1.00404e-05
1.73388e-07
1.00397e-05
4.42206e-07
1.0011e-05
2.89535e-08
1.00382e-05
2.27359e-07
1.00461e-05
4.97033e-07
1.00232e-05
2.55922e-07
1.00348e-05
2.10643e-07
1.00446e-05
4.17301e-07
1.00231e-05
3.0088e-07
1.00191e-05
2.30324e-07
1.00372e-05
3.5474e-07
1.00364e-05
3.81707e-07
1.00306e-05
2.93763e-07
1.00443e-05
2.92576e-07
1.00609e-05
3.30794e-07
1.00638e-05
3.10316e-07
1.00635e-05
2.51323e-07
1.00714e-05
2.23886e-07
1.00824e-05
2.19741e-07
2.08107e-07
1.00875e-05
1.05154e-05
1.46642e-07
1.05211e-05
4.36525e-07
1.04894e-05
6.05974e-08
1.05142e-05
2.02614e-07
1.0528e-05
4.83164e-07
1.05021e-05
2.81854e-07
1.05084e-05
2.04364e-07
1.05231e-05
4.02559e-07
1.05048e-05
3.1916e-07
1.04967e-05
2.38487e-07
1.05145e-05
3.36876e-07
1.05182e-05
3.78055e-07
1.05123e-05
2.99627e-07
1.05223e-05
2.82562e-07
1.05398e-05
3.1339e-07
1.05457e-05
3.04348e-07
1.05456e-05
2.51405e-07
1.0551e-05
2.18514e-07
1.05613e-05
2.09492e-07
2.01242e-07
1.05681e-05
1.10131e-05
1.23577e-07
1.10249e-05
4.24662e-07
1.09918e-05
9.37932e-08
1.10122e-05
1.82176e-07
1.10323e-05
4.63066e-07
1.10061e-05
3.08069e-07
1.10054e-05
2.05003e-07
1.10235e-05
3.84478e-07
1.10098e-05
3.32859e-07
1.09988e-05
2.49473e-07
1.10148e-05
3.20885e-07
1.10224e-05
3.70447e-07
1.10178e-05
3.04293e-07
1.10244e-05
2.7594e-07
1.10412e-05
2.96574e-07
1.10499e-05
2.9561e-07
1.10508e-05
2.50503e-07
1.10545e-05
2.14854e-07
1.10632e-05
2.00806e-07
1.93346e-07
1.10711e-05
1.15347e-05
1.04203e-07
1.15521e-05
4.07289e-07
1.15191e-05
1.26849e-07
1.15336e-05
1.67628e-07
1.15594e-05
4.37259e-07
1.15354e-05
3.32056e-07
1.15286e-05
2.11861e-07
1.15472e-05
3.65803e-07
1.15387e-05
3.41403e-07
1.15263e-05
2.61843e-07
1.15395e-05
3.07737e-07
1.15501e-05
3.59842e-07
1.15475e-05
3.06865e-07
1.15516e-05
2.71839e-07
1.15667e-05
2.81463e-07
1.15775e-05
2.84823e-07
1.15799e-05
2.48074e-07
1.15827e-05
2.12068e-07
1.15897e-05
1.93864e-07
1.85275e-07
1.15977e-05
1.20816e-05
8.8388e-08
1.21035e-05
3.85469e-07
1.20723e-05
1.57971e-07
1.208e-05
1.59927e-07
1.21102e-05
4.071e-07
1.20907e-05
3.51543e-07
1.20789e-05
2.23712e-07
1.20959e-05
3.48764e-07
1.20924e-05
3.44926e-07
1.208e-05
2.74257e-07
1.209e-05
2.97737e-07
1.21024e-05
3.47399e-07
1.21024e-05
3.06898e-07
1.2105e-05
2.69253e-07
1.21179e-05
2.68552e-07
1.21297e-05
2.72962e-07
1.21339e-05
2.43893e-07
1.21365e-05
2.09491e-07
1.2142e-05
1.88316e-07
1.77758e-07
1.21495e-05
1.26551e-05
7.58571e-08
1.26801e-05
3.60502e-07
1.26525e-05
1.85555e-07
1.26536e-05
1.58867e-07
1.26857e-05
3.74927e-07
1.26725e-05
3.64735e-07
1.26572e-05
2.3905e-07
1.26712e-05
3.3477e-07
1.26718e-05
3.44298e-07
1.26606e-05
2.85501e-07
1.26676e-05
2.90719e-07
1.26808e-05
3.34238e-07
1.26833e-05
3.04349e-07
1.26853e-05
2.67253e-07
1.2696e-05
2.57839e-07
1.27081e-05
2.60925e-07
1.27139e-05
2.38056e-07
1.27167e-05
2.06646e-07
1.27214e-05
1.83639e-07
1.71228e-07
1.2728e-05
1.32566e-05
6.62157e-08
1.32833e-05
3.3376e-07
1.32605e-05
2.0833e-07
1.32558e-05
1.63587e-07
1.32876e-05
3.43187e-07
1.32814e-05
3.70942e-07
1.32646e-05
2.55778e-07
1.32747e-05
3.24701e-07
1.32783e-05
3.40688e-07
1.32692e-05
2.94653e-07
1.32737e-05
2.86146e-07
1.32867e-05
3.2125e-07
1.32915e-05
2.9956e-07
1.32937e-05
2.65037e-07
1.33025e-05
2.49089e-07
1.33141e-05
2.49298e-07
1.33212e-05
2.30965e-07
1.33246e-05
2.03184e-07
1.33288e-05
1.79444e-07
1.65562e-07
1.33345e-05
1.38874e-05
5.90191e-08
1.39148e-05
3.06339e-07
1.38974e-05
2.25673e-07
1.3888e-05
1.73003e-07
1.39173e-05
3.13891e-07
1.39179e-05
3.70327e-07
1.39018e-05
2.71951e-07
1.39077e-05
3.1881e-07
1.39131e-05
3.35239e-07
1.39065e-05
3.01209e-07
1.39095e-05
2.83146e-07
1.39217e-05
3.09091e-07
1.39284e-05
2.92887e-07
1.39312e-05
2.62192e-07
1.39385e-05
2.41789e-07
1.39493e-05
2.38513e-07
1.39572e-05
2.23039e-07
1.39615e-05
1.9896e-07
1.39655e-05
1.75434e-07
1.6056e-07
1.39705e-05
1.45489e-05
5.37338e-08
1.45754e-05
2.79847e-07
1.45632e-05
2.37954e-07
1.45514e-05
1.84749e-07
1.45769e-05
2.88399e-07
1.45833e-05
3.63892e-07
1.4569e-05
2.86242e-07
1.45717e-05
3.16129e-07
1.4578e-05
3.28923e-07
1.45742e-05
3.0506e-07
1.45763e-05
2.8103e-07
1.45872e-05
2.9818e-07
1.45953e-05
2.84858e-07
1.4599e-05
2.58442e-07
1.46054e-05
2.35418e-07
1.46151e-05
2.28765e-07
1.46235e-05
2.14658e-07
1.46285e-05
1.93971e-07
1.46326e-05
1.71334e-07
1.55977e-07
1.46372e-05
1.52426e-05
5.0012e-08
1.52625e-05
2.59947e-07
1.52575e-05
2.4295e-07
1.52481e-05
1.94189e-07
1.52691e-05
2.67369e-07
1.52773e-05
3.5564e-07
1.52664e-05
2.97189e-07
1.52677e-05
3.14845e-07
1.52745e-05
3.22075e-07
1.52734e-05
3.06223e-07
1.52752e-05
2.79154e-07
1.52851e-05
2.88372e-07
1.52938e-05
2.76085e-07
1.52987e-05
2.53612e-07
1.53045e-05
2.29609e-07
1.53132e-05
2.19993e-07
1.53216e-05
2.06278e-07
1.53273e-05
1.88314e-07
1.53316e-05
1.67051e-07
1.51594e-07
1.53359e-05
1.59707e-05
4.66641e-08
1.60022e-05
2.28412e-07
1.60068e-05
2.38387e-07
1.59888e-05
2.12151e-07
1.59939e-05
2.6231e-07
1.60014e-05
3.48104e-07
1.59959e-05
3.02746e-07
1.59975e-05
3.13213e-07
1.60046e-05
3.14948e-07
1.60055e-05
3.05303e-07
1.60074e-05
2.77272e-07
1.60161e-05
2.79662e-07
1.60253e-05
2.66956e-07
1.60311e-05
2.47791e-07
1.60368e-05
2.23917e-07
1.60448e-05
2.11997e-07
1.60529e-05
1.98123e-07
1.60591e-05
1.82125e-07
1.60637e-05
1.62435e-07
1.47215e-07
1.60681e-05
1.67321e-05
4.5131e-08
1.67426e-05
2.17924e-07
1.67456e-05
2.35412e-07
1.67378e-05
2.19956e-07
1.67485e-05
2.5159e-07
1.67611e-05
3.35472e-07
1.67598e-05
3.04073e-07
1.67621e-05
3.10945e-07
1.67697e-05
3.07286e-07
1.67725e-05
3.02502e-07
1.67751e-05
2.74761e-07
1.67829e-05
2.71853e-07
1.67921e-05
2.57674e-07
1.67988e-05
2.41178e-07
1.68047e-05
2.18014e-07
1.6812e-05
2.04643e-07
1.68198e-05
1.9037e-07
1.68262e-05
1.7574e-07
1.68311e-05
1.57445e-07
1.42797e-07
1.68356e-05
1.75317e-05
4.38166e-08
1.75514e-05
1.98235e-07
1.75514e-05
2.35346e-07
1.75394e-05
2.3195e-07
1.75457e-05
2.45342e-07
1.75585e-05
3.2265e-07
1.75606e-05
3.02013e-07
1.75636e-05
3.07934e-07
1.75714e-05
2.99447e-07
1.75758e-05
2.98104e-07
1.7579e-05
2.71615e-07
1.75859e-05
2.64877e-07
1.7595e-05
2.48615e-07
1.76024e-05
2.33771e-07
1.76086e-05
2.1178e-07
1.76156e-05
1.97648e-07
1.76231e-05
1.82913e-07
1.76295e-05
1.69326e-07
1.76347e-05
1.52232e-07
1.38071e-07
1.76394e-05
1.83687e-05
4.34258e-08
1.83778e-05
1.89139e-07
1.8384e-05
2.2915e-07
1.83783e-05
2.37644e-07
1.83835e-05
2.40225e-07
1.83952e-05
3.10866e-07
1.83989e-05
2.98303e-07
1.84028e-05
3.04085e-07
1.84109e-05
2.91304e-07
1.8417e-05
2.92035e-07
1.84212e-05
2.67438e-07
1.84279e-05
2.58166e-07
1.84364e-05
2.40125e-07
1.84444e-05
2.25759e-07
1.84512e-05
2.05025e-07
1.84579e-05
1.90867e-07
1.84652e-05
1.75687e-07
1.84716e-05
1.62899e-07
1.84769e-05
1.46963e-07
1.33097e-07
1.84818e-05
1.92467e-05
4.30779e-08
1.92567e-05
1.79211e-07
1.92617e-05
2.24077e-07
1.92577e-05
2.4167e-07
1.9262e-05
2.35988e-07
1.9273e-05
2.9983e-07
1.92783e-05
2.93037e-07
1.92828e-05
2.99588e-07
1.92909e-05
2.83196e-07
1.92983e-05
2.8462e-07
1.93036e-05
2.62092e-07
1.931e-05
2.51738e-07
1.9318e-05
2.32131e-07
1.93261e-05
2.17696e-07
1.93334e-05
1.97744e-07
1.93402e-05
1.84089e-07
1.93471e-05
1.68717e-07
1.93538e-05
1.56207e-07
1.9359e-05
1.4176e-07
1.27984e-07