/*--------------------------------*- C++ -*----------------------------------*\
| =========                 |                                                 |
| \\      /  F ield         | OpenFOAM: The Open Source CFD Toolbox           |
|  \\    /   O peration     | Version:  v1906                                 |
|   \\  /    A nd           | Web:      www.OpenFOAM.com                      |
|    \\/     M anipulation  |                                                 |
\*---------------------------------------------------------------------------*/
FoamFile
{
    version     2.0;
    format      ascii;
    class       volVectorField;
    location    "10";
    object      U;
}
// * * * * * * * * * * * * * * * * * * * * * * * * * * * * * * * * * * * * * //

dimensions      [0 1 -1 0 0 0 0];


internalField   nonuniform List<vector> 
9600
(
(0.887641 0.0155428 0)
(1.15846 -0.00397078 0)
(0.893377 -0.00380528 0)
(1.04006 -0.00484744 0)
(0.911755 0.0280249 0)
(1.19055 -0.0159704 0)
(0.629596 0.00422025 0)
(1.25105 0.014696 0)
(0.708668 -0.00601791 0)
(1.16402 0.0127195 0)
(0.864431 0.0038827 0)
(1.08378 0.012222 0)
(0.871019 0.0124118 0)
(1.07221 0.00670246 0)
(0.863584 0.0260927 0)
(1.0784 0.00688305 0)
(0.826445 0.0282182 0)
(1.08562 0.0117819 0)
(0.79557 0.0185238 0)
(1.08276 0.0126074 0)
(0.891041 0.015254 0)
(1.14741 -0.003805 0)
(0.897272 -0.00300092 0)
(1.03416 -0.00485312 0)
(0.91357 0.0265216 0)
(1.18125 -0.0123892 0)
(0.636472 0.00350609 0)
(1.23982 0.0143868 0)
(0.72826 -0.00534094 0)
(1.15429 0.0111705 0)
(0.884544 0.0047226 0)
(1.07543 0.0127084 0)
(0.893548 0.0123876 0)
(1.0543 0.00717204 0)
(0.893196 0.0256819 0)
(1.04098 0.00806 0)
(0.876874 0.0277455 0)
(1.01634 0.0123511 0)
(0.891082 0.0197611 0)
(0.964831 0.0109243 0)
(0.898245 0.0148833 0)
(1.13022 -0.00364717 0)
(0.907942 -0.00227154 0)
(1.02265 -0.00492991 0)
(0.916487 0.024962 0)
(1.16731 -0.00963838 0)
(0.660354 0.00219773 0)
(1.21128 0.0137585 0)
(0.773068 -0.00470538 0)
(1.12444 0.00916139 0)
(0.921185 0.00577895 0)
(1.05297 0.0127846 0)
(0.931418 0.0125649 0)
(1.02397 0.00741319 0)
(0.936505 0.0255987 0)
(1.00559 0.00893126 0)
(0.927645 0.0276261 0)
(0.978969 0.0128199 0)
(0.942556 0.02001 0)
(0.949242 0.0112442 0)
(0.908917 0.0146072 0)
(1.10899 -0.00355036 0)
(0.925422 -0.00160022 0)
(1.00786 -0.00488674 0)
(0.920625 0.023579 0)
(1.14723 -0.00705915 0)
(0.705804 0.00131068 0)
(1.16377 0.0127698 0)
(0.837623 -0.00391907 0)
(1.07732 0.00737129 0)
(0.957871 0.00670447 0)
(1.02599 0.0126121 0)
(0.961148 0.0129721 0)
(0.996844 0.00733948 0)
(0.965368 0.025784 0)
(0.988423 0.00932826 0)
(0.955262 0.0280457 0)
(0.971055 0.0127633 0)
(0.959493 0.0202247 0)
(0.957819 0.0120139 0)
(0.922158 0.0144323 0)
(1.08606 -0.00353865 0)
(0.94652 -0.000927476 0)
(0.993599 -0.00470626 0)
(0.926447 0.0222419 0)
(1.12217 -0.00498594 0)
(0.767828 0.000996935 0)
(1.10542 0.0114692 0)
(0.902367 -0.00299025 0)
(1.02853 0.005938 0)
(0.980179 0.00722992 0)
(1.00599 0.0126092 0)
(0.974891 0.0134434 0)
(0.97937 0.00732522 0)
(0.973898 0.0257357 0)
(0.980096 0.00981938 0)
(0.963545 0.0281673 0)
(0.969066 0.0129944 0)
(0.962669 0.0204252 0)
(0.961792 0.0127093 0)
(0.936616 0.0143259 0)
(1.06434 -0.0036114 0)
(0.966853 -0.00027472 0)
(0.983633 -0.00440083 0)
(0.933962 0.0209792 0)
(1.09533 -0.00350184 0)
(0.833418 0.00120263 0)
(1.05102 0.0100347 0)
(0.950628 -0.00214617 0)
(0.993376 0.00503031 0)
(0.987481 0.0073701 0)
(0.995516 0.0127808 0)
(0.979487 0.013945 0)
(0.971179 0.00751151 0)
(0.970381 0.0255399 0)
(0.973781 0.0103721 0)
(0.961718 0.0279839 0)
(0.966751 0.0135134 0)
(0.962369 0.0201966 0)
(0.963624 0.0133124 0)
(0.950822 0.0142634 0)
(1.04628 -0.00373853 0)
(0.982974 0.000309698 0)
(0.979824 -0.00399525 0)
(0.942578 0.0198837 0)
(1.07073 -0.00261988 0)
(0.889768 0.00175749 0)
(1.01217 0.00873429 0)
(0.978476 -0.00152848 0)
(0.976438 0.00465403 0)
(0.987506 0.00725134 0)
(0.991432 0.0129377 0)
(0.982091 0.0144533 0)
(0.970361 0.00789282 0)
(0.96476 0.0253898 0)
(0.969579 0.0108588 0)
(0.958165 0.0276926 0)
(0.965806 0.0139781 0)
(0.963915 0.0196237 0)
(0.967217 0.0138574 0)
(0.963584 0.0142226 0)
(1.03298 -0.00388027 0)
(0.993577 0.000790141 0)
(0.981338 -0.00352981 0)
(0.951748 0.0189974 0)
(1.0512 -0.00223411 0)
(0.93051 0.00249706 0)
(0.99128 0.00775486 0)
(0.991239 -0.00114455 0)
(0.97291 0.0045988 0)
(0.986893 0.00700908 0)
(0.990468 0.0129964 0)
(0.984931 0.014895 0)
(0.973963 0.00842394 0)
(0.962763 0.0253228 0)
(0.969155 0.0113252 0)
(0.958075 0.0272743 0)
(0.968083 0.0143049 0)
(0.968925 0.0188668 0)
(0.973444 0.0143132 0)
(0.974217 0.0141793 0)
(1.02421 -0.00400064 0)
(0.999348 0.00115683 0)
(0.98559 -0.00305713 0)
(0.961351 0.0183159 0)
(1.03734 -0.00216043 0)
(0.95601 0.00327733 0)
(0.983934 0.00709912 0)
(0.99634 -0.000935924 0)
(0.975716 0.00466403 0)
(0.98774 0.00676991 0)
(0.990714 0.0129776 0)
(0.987552 0.0152325 0)
(0.978818 0.00902933 0)
(0.965236 0.0253169 0)
(0.972545 0.0117984 0)
(0.96271 0.0267111 0)
(0.973697 0.0145601 0)
(0.976633 0.0179471 0)
(0.981374 0.014667 0)
(0.982529 0.014114 0)
(1.01888 -0.00407612 0)
(1.00194 0.00141905 0)
(0.990004 -0.00262715 0)
(0.971324 0.017807 0)
(1.02808 -0.00222579 0)
(0.970357 0.00400047 0)
(0.984157 0.00666077 0)
(0.998893 -0.000838964 0)
(0.980145 0.00476056 0)
(0.989483 0.00659539 0)
(0.991233 0.0129276 0)
(0.989424 0.0154821 0)
(0.983028 0.00962123 0)
(0.970496 0.0253031 0)
(0.978303 0.0122513 0)
(0.970681 0.0260151 0)
(0.981454 0.014789 0)
(0.985511 0.0169391 0)
(0.989681 0.0149555 0)
(0.988662 0.0140168 0)
(1.01583 -0.00409852 0)
(1.00291 0.00160055 0)
(0.993159 -0.00227476 0)
(0.981169 0.0174255 0)
(1.02197 -0.00230919 0)
(0.978214 0.00461732 0)
(0.987551 0.00633715 0)
(1.00097 -0.000791431 0)
(0.984268 0.00487614 0)
(0.991361 0.00649178 0)
(0.991768 0.012879 0)
(0.990701 0.0156678 0)
(0.986249 0.0101256 0)
(0.97677 0.0251927 0)
(0.984878 0.0126588 0)
(0.979908 0.0251855 0)
(0.989828 0.0150332 0)
(0.994198 0.0159357 0)
(0.99732 0.0152065 0)
(0.992933 0.013886 0)
(1.01415 -0.00407076 0)
(1.00322 0.00172914 0)
(0.994847 -0.00201311 0)
(0.989965 0.0171277 0)
(1.01793 -0.00234742 0)
(0.982966 0.0051125 0)
(0.991669 0.00607466 0)
(1.00284 -0.000755901 0)
(0.987645 0.00501323 0)
(0.993147 0.00645089 0)
(0.992461 0.0128412 0)
(0.991882 0.015798 0)
(0.988922 0.0105105 0)
(0.983067 0.0249371 0)
(0.991321 0.0130055 0)
(0.988817 0.0242407 0)
(0.997622 0.0153161 0)
(1.00178 0.0150081 0)
(1.00366 0.0154249 0)
(0.995729 0.0137245 0)
(1.01325 -0.00400059 0)
(1.00331 0.00182775 0)
(0.995504 -0.0018347 0)
(0.996855 0.016877 0)
(1.01538 -0.00232367 0)
(0.986324 0.00549627 0)
(0.995341 0.00585501 0)
(1.00435 -0.000725917 0)
(0.990267 0.00516786 0)
(0.9948 0.00645897 0)
(0.993445 0.0128061 0)
(0.993303 0.0158785 0)
(0.991451 0.010783 0)
(0.988919 0.0245229 0)
(0.997137 0.013297 0)
(0.996509 0.0232243 0)
(1.00411 0.0156298 0)
(1.00778 0.0142211 0)
(1.00844 0.0155929 0)
(0.997452 0.0135367 0)
(1.01273 -0.0038964 0)
(1.00336 0.00190986 0)
(0.995632 -0.00171831 0)
(1.00154 0.0166438 0)
(1.01391 -0.00224554 0)
(0.988872 0.0057895 0)
(0.998123 0.00567349 0)
(1.00548 -0.000695555 0)
(0.992158 0.00533971 0)
(0.996193 0.00649363 0)
(0.994636 0.0127648 0)
(0.994938 0.0159098 0)
(0.993882 0.0109652 0)
(0.993985 0.0239661 0)
(1.00197 0.0135531 0)
(1.00254 0.022177 0)
(1.00892 0.0159691 0)
(1.01209 0.0136102 0)
(1.01168 0.0156911 0)
(0.998451 0.0133276 0)
(1.01228 -0.0037657 0)
(1.00356 0.00198016 0)
(0.995529 -0.00163788 0)
(1.00437 0.0164069 0)
(1.01302 -0.00212888 0)
(0.990802 0.00601483 0)
(1.00006 0.0055292 0)
(1.00629 -0.000667383 0)
(0.993362 0.00552669 0)
(0.997194 0.00653381 0)
(0.995825 0.0127086 0)
(0.996564 0.015898 0)
(0.996034 0.0110704 0)
(0.997969 0.0233044 0)
(1.00558 0.013795 0)
(1.00677 0.021151 0)
(1.01201 0.0163058 0)
(1.01483 0.0131835 0)
(1.01364 0.0157163 0)
(0.998976 0.0131023 0)
(1.01177 -0.00361541 0)
(1.00402 0.00203848 0)
(0.995298 -0.00157023 0)
(1.00603 0.0161542 0)
(1.01227 -0.00198491 0)
(0.992319 0.00618434 0)
(1.00148 0.00542285 0)
(1.00687 -0.000646973 0)
(0.993978 0.00573169 0)
(0.997822 0.00657109 0)
(0.996882 0.0126238 0)
(0.998007 0.015855 0)
(0.997778 0.0111273 0)
(1.00078 0.0225753 0)
(1.00789 0.0140306 0)
(1.00936 0.0201874 0)
(1.0136 0.0166167 0)
(1.01627 0.0129262 0)
(1.01462 0.0156624 0)
(0.999164 0.0128659 0)
(1.01117 -0.00345271 0)
(1.00476 0.0020847 0)
(0.994982 -0.00149977 0)
(1.00703 0.0158825 0)
(1.01142 -0.00181828 0)
(0.993634 0.00629616 0)
(1.00268 0.00535811 0)
(1.0072 -0.000627032 0)
(0.994139 0.00595658 0)
(0.998213 0.00660022 0)
(0.997799 0.0125045 0)
(0.999223 0.0157841 0)
(0.999137 0.0111726 0)
(1.00256 0.0218167 0)
(1.00911 0.0142532 0)
(1.01066 0.0192988 0)
(1.01404 0.0168884 0)
(1.01674 0.0128058 0)
(1.01492 0.015524 0)
(0.999096 0.0126223 0)
(1.01056 -0.003284 0)
(1.00564 0.00211886 0)
(0.994651 -0.00141461 0)
(1.00753 0.0155926 0)
(1.01054 -0.00163213 0)
(0.994833 0.00634658 0)
(1.0037 0.00533993 0)
(1.00728 -0.000596076 0)
(0.99399 0.00619809 0)
(0.998476 0.00660861 0)
(0.998591 0.0123529 0)
(1.0002 0.0156936 0)
(1.00018 0.0112125 0)
(1.0036 0.0210692 0)
(1.00953 0.0144566 0)
(1.01105 0.0184857 0)
(1.01371 0.0171006 0)
(1.01654 0.012779 0)
(1.01477 0.015297 0)
(0.99886 0.012374 0)
(1.01004 -0.00311347 0)
(1.00648 0.00214065 0)
(0.99439 -0.00130389 0)
(1.00754 0.015283 0)
(1.0098 -0.00142891 0)
(0.995866 0.00633418 0)
(1.00439 0.00537447 0)
(1.0072 -0.00054926 0)
(0.993691 0.00644727 0)
(0.998625 0.00659632 0)
(0.999229 0.0121628 0)
(1.00089 0.0155979 0)
(1.00094 0.0112497 0)
(1.00412 0.020351 0)
(1.00943 0.0146467 0)
(1.01089 0.0177443 0)
(1.01295 0.017246 0)
(1.01592 0.0128243 0)
(1.01434 0.0149886 0)
(0.998562 0.012121 0)
(1.00963 -0.00294157 0)
(1.00714 0.00214952 0)
(0.994255 -0.00115984 0)
(1.00716 0.0149506 0)
(1.00929 -0.00121309 0)
(0.996663 0.00626898 0)
(1.00466 0.00546099 0)
(1.00704 -0.000491714 0)
(0.993401 0.00669318 0)
(0.99865 0.00657775 0)
(0.99968 0.0119276 0)
(1.00125 0.0155106 0)
(1.00142 0.0112771 0)
(1.00429 0.0196733 0)
(1.00906 0.014841 0)
(1.01045 0.0170707 0)
(1.01204 0.0173275 0)
(1.01508 0.0129318 0)
(1.01383 0.0146104 0)
(0.998294 0.0118619 0)
(1.00931 -0.00276524 0)
(1.00759 0.00214299 0)
(0.99425 -0.000976516 0)
(1.00659 0.0145894 0)
(1.00898 -0.000986637 0)
(0.997213 0.00616555 0)
(1.00458 0.0055931 0)
(1.00688 -0.000437483 0)
(0.993241 0.00693517 0)
(0.998585 0.00656375 0)
(0.999974 0.0116509 0)
(1.00133 0.0154275 0)
(1.00171 0.0113017 0)
(1.00424 0.0190349 0)
(1.00859 0.0150476 0)
(1.00994 0.0164509 0)
(1.01117 0.0173496 0)
(1.01421 0.0131073 0)
(1.01339 0.0141853 0)
(0.998102 0.0115947 0)
(1.00905 -0.00258155 0)
(1.00787 0.0021203 0)
(0.994353 -0.000755915 0)
(1.00603 0.0141986 0)
(1.0088 -0.000747797 0)
(0.997564 0.00603153 0)
(1.00431 0.00576242 0)
(1.00673 -0.000387433 0)
(0.993258 0.00717369 0)
(0.998496 0.00656822 0)
(1.00021 0.011333 0)
(1.00121 0.0153504 0)
(1.00188 0.0113281 0)
(1.00411 0.0184213 0)
(1.00817 0.0152597 0)
(1.00952 0.0158745 0)
(1.0105 0.0173024 0)
(1.01343 0.0133495 0)
(1.0131 0.0137372 0)
(0.997988 0.0113178 0)
(1.00884 -0.00238758 0)
(1.00802 0.00208007 0)
(0.994541 -0.000501107 0)
(1.00557 0.0137786 0)
(1.00868 -0.000491784 0)
(0.997771 0.00587449 0)
(1.00403 0.00596102 0)
(1.00659 -0.000346309 0)
(0.993435 0.00739747 0)
(0.998424 0.00661598 0)
(1.00046 0.0109676 0)
(1.00101 0.0152865 0)
(1.00202 0.0113506 0)
(1.004 0.0178173 0)
(1.00785 0.0154705 0)
(1.00923 0.0153399 0)
(1.01007 0.0171585 0)
(1.01276 0.0136433 0)
(1.01297 0.0132974 0)
(0.99793 0.0110292 0)
(1.00865 -0.0021785 0)
(1.00807 0.00201961 0)
(0.994803 -0.000214179 0)
(1.00522 0.0133289 0)
(1.00861 -0.00021189 0)
(0.997877 0.00569445 0)
(1.00381 0.00618574 0)
(1.00646 -0.000316045 0)
(0.993728 0.00759203 0)
(0.998378 0.00671189 0)
(1.0008 0.0105658 0)
(1.0008 0.015222 0)
(1.00217 0.0113859 0)
(1.00397 0.0171958 0)
(1.00763 0.0156751 0)
(1.00905 0.0148691 0)
(1.00986 0.0168976 0)
(1.01221 0.0139682 0)
(1.01294 0.0129249 0)
(0.997907 0.0107275 0)
(1.00849 -0.0019528 0)
(1.00805 0.0019387 0)
(0.995131 0.000100895 0)
(1.00491 0.0128519 0)
(1.00857 8.66768e-05 0)
(0.997914 0.00549332 0)
(1.00367 0.00642467 0)
(1.00632 -0.000279513 0)
(0.994091 0.00774721 0)
(0.998346 0.00686398 0)
(1.0012 0.0101371 0)
(1.00061 0.0151431 0)
(1.00229 0.0114457 0)
(1.004 0.0165516 0)
(1.00748 0.0158658 0)
(1.00895 0.014488 0)
(1.00981 0.0165162 0)
(1.01176 0.0142944 0)
(1.01296 0.012684 0)
(0.997908 0.0104121 0)
(1.00833 -0.0017094 0)
(1.00795 0.00183517 0)
(0.995514 0.000441359 0)
(1.00461 0.0123538 0)
(1.00856 0.000407183 0)
(0.997918 0.00528308 0)
(1.00357 0.00667038 0)
(1.0062 -0.000233378 0)
(0.994489 0.00785913 0)
(0.998315 0.00707205 0)
(1.00164 0.00969267 0)
(1.00046 0.0150456 0)
(1.00238 0.0115369 0)
(1.00409 0.0158814 0)
(1.00736 0.0160157 0)
(1.00887 0.0142161 0)
(1.00984 0.016031 0)
(1.01139 0.0145708 0)
(1.01293 0.012605 0)
(0.997932 0.0100828 0)
(1.00818 -0.0014463 0)
(1.00781 0.00171068 0)
(0.995934 0.000802582 0)
(1.00431 0.011838 0)
(1.00855 0.000752517 0)
(0.997926 0.00506368 0)
(1.0035 0.00691643 0)
(1.00611 -0.00017056 0)
(0.994896 0.00791779 0)
(0.998281 0.00732891 0)
(1.00209 0.00925166 0)
(1.00036 0.0149103 0)
(1.00241 0.0116726 0)
(1.00422 0.0151956 0)
(1.00727 0.016106 0)
(1.00878 0.0140608 0)
(1.00992 0.0154661 0)
(1.01109 0.0147298 0)
(1.01283 0.0126994 0)
(0.997979 0.00973727 0)
(1.00802 -0.00116033 0)
(1.00763 0.00156315 0)
(0.996365 0.00118574 0)
(1.00401 0.0113049 0)
(1.00852 0.00110865 0)
(0.99797 0.00484048 0)
(1.00343 0.0071511 0)
(1.00607 -7.45839e-05 0)
(0.995302 0.00791363 0)
(0.998244 0.00762861 0)
(1.00253 0.00881922 0)
(1.00031 0.0147161 0)
(1.00238 0.0118637 0)
(1.00437 0.0145053 0)
(1.00718 0.0161089 0)
(1.00866 0.0140232 0)
(1.01 0.0148858 0)
(1.01087 0.0147319 0)
(1.01266 0.0129187 0)
(0.99805 0.0093769 0)
(1.00784 -0.000853578 0)
(1.00744 0.00139221 0)
(0.996781 0.00158474 0)
(1.00375 0.0107658 0)
(1.00845 0.00146277 0)
(0.998073 0.00463132 0)
(1.00333 0.00735776 0)
(1.00608 5.34466e-05 0)
(0.995702 0.00784495 0)
(0.998203 0.00795493 0)
(1.00294 0.00841552 0)
(1.00034 0.0144603 0)
(1.00229 0.012103 0)
(1.00453 0.0138258 0)
(1.00712 0.0159975 0)
(1.00851 0.014083 0)
(1.01006 0.0143405 0)
(1.01073 0.0145653 0)
(1.01242 0.0131778 0)
(0.99814 0.0090022 0)
(1.00765 -0.000525284 0)
(1.00726 0.00119979 0)
(0.997161 0.00199486 0)
(1.00353 0.0102237 0)
(1.00834 0.00181516 0)
(0.998235 0.00444066 0)
(1.00322 0.00752293 0)
(1.00612 0.000227846 0)
(0.996102 0.00772807 0)
(0.998159 0.00829759 0)
(1.00333 0.00806523 0)
(1.00044 0.0141325 0)
(1.00216 0.0123751 0)
(1.0047 0.0132032 0)
(1.00711 0.0157647 0)
(1.00832 0.0142097 0)
(1.01009 0.0138663 0)
(1.01067 0.0142358 0)
(1.01216 0.0133873 0)
(0.998245 0.0086112 0)
(1.00742 -0.000174034 0)
(1.0071 0.000989012 0)
(0.997493 0.00241118 0)
(1.00336 0.00968779 0)
(1.00819 0.00215021 0)
(0.998446 0.00428413 0)
(1.00308 0.00764272 0)
(1.00617 0.000459307 0)
(0.996507 0.00757846 0)
(0.998114 0.00864152 0)
(1.00368 0.00777981 0)
(1.00061 0.0137403 0)
(1.00201 0.0126636 0)
(1.00485 0.0126586 0)
(1.00715 0.0154046 0)
(1.00812 0.0143648 0)
(1.01006 0.0135107 0)
(1.01067 0.0137831 0)
(1.01194 0.0134609 0)
(0.998357 0.00820711 0)
(1.00718 0.000194314 0)
(1.00697 0.000767589 0)
(0.997777 0.00281747 0)
(1.00324 0.00917664 0)
(1.00801 0.00245637 0)
(0.998686 0.00417601 0)
(1.00293 0.00770627 0)
(1.00623 0.00072709 0)
(0.996925 0.00740066 0)
(0.998068 0.0089715 0)
(1.004 0.00756133 0)
(1.00087 0.0132873 0)
(1.00185 0.0129525 0)
(1.00498 0.012216 0)
(1.00727 0.0149276 0)
(1.00794 0.0144942 0)
(1.00997 0.0132891 0)
(1.01072 0.0132831 0)
(1.0118 0.0133567 0)
(0.998471 0.00778873 0)
(1.00691 0.000582783 0)
(1.00687 0.00053235 0)
(0.998022 0.00322039 0)
(1.00314 0.00868496 0)
(1.00781 0.00272351 0)
(0.998935 0.00411507 0)
(1.00277 0.00772468 0)
(1.00627 0.00102951 0)
(0.997359 0.00720342 0)
(0.998028 0.00926468 0)
(1.00428 0.00741323 0)
(1.00121 0.0127859 0)
(1.00172 0.0132183 0)
(1.00506 0.0118837 0)
(1.00745 0.0143511 0)
(1.00778 0.0145621 0)
(1.00981 0.0132009 0)
(1.01076 0.0128135 0)
(1.01175 0.0130805 0)
(0.998585 0.00735857 0)
(1.00663 0.000983622 0)
(1.0068 0.000296936 0)
(0.998241 0.00360128 0)
(1.00306 0.00823047 0)
(1.00761 0.00293268 0)
(0.99918 0.00411778 0)
(1.00261 0.00771105 0)
(1.0063 0.00135518 0)
(0.997811 0.00699403 0)
(0.997997 0.00952812 0)
(1.00451 0.00733158 0)
(1.00162 0.0122503 0)
(1.00161 0.0134323 0)
(1.0051 0.0116721 0)
(1.00769 0.0137209 0)
(1.00769 0.0145364 0)
(1.0096 0.0132071 0)
(1.01076 0.012421 0)
(1.01178 0.0126757 0)
(0.998696 0.00691904 0)
(1.00632 0.00139194 0)
(1.00675 6.8538e-05 0)
(0.998444 0.00395121 0)
(1.00297 0.00783023 0)
(1.00742 0.00308497 0)
(0.999415 0.00416724 0)
(1.00246 0.00767147 0)
(1.0063 0.0016862 0)
(0.998283 0.00679362 0)
(0.997982 0.0097502 0)
(1.00469 0.00731021 0)
(1.00209 0.0116767 0)
(1.00154 0.0135887 0)
(1.00508 0.0115826 0)
(1.00796 0.013065 0)
(1.00767 0.0143959 0)
(1.00935 0.0132701 0)
(1.01071 0.0121358 0)
(1.01186 0.0122261 0)
(0.998805 0.00646915 0)
(1.006 0.00180818 0)
(1.00671 -0.000155701 0)
(0.998642 0.00426521 0)
(1.00287 0.00748803 0)
(1.00723 0.00317759 0)
(0.999641 0.00424539 0)
(1.0023 0.00762299 0)
(1.00629 0.0020188 0)
(0.998773 0.00660038 0)
(0.997983 0.00992241 0)
(1.00482 0.00735024 0)
(1.00261 0.011093 0)
(1.00153 0.0136629 0)
(1.00499 0.0115933 0)
(1.00823 0.0124205 0)
(1.00773 0.0141387 0)
(1.00908 0.0133592 0)
(1.01057 0.0119465 0)
(1.01194 0.0118086 0)
(0.998913 0.00601527 0)
(1.00566 0.00221912 0)
(1.00667 -0.000365844 0)
(0.998841 0.00452267 0)
(1.00275 0.0072221 0)
(1.00705 0.00320213 0)
(0.999862 0.00435748 0)
(1.00215 0.00757952 0)
(1.00625 0.00232367 0)
(0.99928 0.00641879 0)
(0.99801 0.0100613 0)
(1.0049 0.00745069 0)
(1.00316 0.0105089 0)
(1.00159 0.0136398 0)
(1.00485 0.0117003 0)
(1.0085 0.0118248 0)
(1.00789 0.0137492 0)
(1.00882 0.0134507 0)
(1.01037 0.0118431 0)
(1.01199 0.0114486 0)
(0.999018 0.0055572 0)
(1.00531 0.002627 0)
(1.00663 -0.000554946 0)
(0.999047 0.00471662 0)
(1.00261 0.00703449 0)
(1.00688 0.00318286 0)
(1.00008 0.00446532 0)
(1.002 0.00755248 0)
(1.00621 0.00260522 0)
(0.999805 0.00624157 0)
(0.998063 0.010154 0)
(1.00491 0.00761142 0)
(1.00372 0.00992745 0)
(1.00172 0.0135108 0)
(1.00464 0.011893 0)
(1.00871 0.0113227 0)
(1.00814 0.0132201 0)
(1.0086 0.0135068 0)
(1.01008 0.0118371 0)
(1.01198 0.0111415 0)
(0.999122 0.00509815 0)
(1.00494 0.00301961 0)
(1.00657 -0.00070311 0)
(0.999261 0.0048293 0)
(1.00245 0.0069305 0)
(1.00672 0.00312607 0)
(1.00031 0.00455846 0)
(1.00185 0.00755911 0)
(1.00614 0.00287334 0)
(1.00034 0.00605183 0)
(0.998154 0.010211 0)
(1.00487 0.00781677 0)
(1.00429 0.00937819 0)
(1.00195 0.0132639 0)
(1.0044 0.0121322 0)
(1.00885 0.0109642 0)
(1.00847 0.0125747 0)
(1.00846 0.0134625 0)
(1.00974 0.0119381 0)
(1.01189 0.0108951 0)
(0.999223 0.00464424 0)
(1.00456 0.00339 0)
(1.0065 -0.000809883 0)
(0.999487 0.00485773 0)
(1.00227 0.00689901 0)
(1.00655 0.00305335 0)
(1.00056 0.00462466 0)
(1.00171 0.0076007 0)
(1.00605 0.00313442 0)
(1.0009 0.00586075 0)
(0.998288 0.0102235 0)
(1.00477 0.0080577 0)
(1.00483 0.00888801 0)
(1.00228 0.0128978 0)
(1.00414 0.0123594 0)
(1.00887 0.0107674 0)
(1.00885 0.0118749 0)
(1.00844 0.0132537 0)
(1.00936 0.0121 0)
(1.01171 0.010753 0)
(0.999322 0.00419576 0)
(1.00418 0.00373938 0)
(1.0064 -0.00086351 0)
(0.999726 0.00479801 0)
(1.00208 0.00692688 0)
(1.00637 0.00299059 0)
(1.00081 0.00463159 0)
(1.00157 0.00767529 0)
(1.00593 0.00341498 0)
(1.00146 0.00565383 0)
(0.998473 0.0101804 0)
(1.00463 0.00833703 0)
(1.00533 0.00845665 0)
(1.0027 0.0124308 0)
(1.00392 0.0125412 0)
(1.00877 0.0107216 0)
(1.00923 0.0112036 0)
(1.00855 0.0128572 0)
(1.00899 0.0122271 0)
(1.01141 0.0107582 0)
(0.999418 0.00375724 0)
(1.00379 0.00405269 0)
(1.00628 -0.00085158 0)
(0.999979 0.0046518 0)
(1.00187 0.00699487 0)
(1.00618 0.00295001 0)
(1.00109 0.0045764 0)
(1.00145 0.00777284 0)
(1.00578 0.00371863 0)
(1.00202 0.00542409 0)
(0.998719 0.0100841 0)
(1.00444 0.00864343 0)
(1.00577 0.00811157 0)
(1.00322 0.0118861 0)
(1.00375 0.0126359 0)
(1.00856 0.010792 0)
(1.00956 0.0106344 0)
(1.00879 0.0123179 0)
(1.0087 0.0122403 0)
(1.01101 0.0108829 0)
(0.999511 0.00333479 0)
(1.0034 0.0043247 0)
(1.00613 -0.00077767 0)
(1.00025 0.00442825 0)
(1.00167 0.00707664 0)
(1.00597 0.00295739 0)
(1.00139 0.0044495 0)
(1.00135 0.0078666 0)
(1.00559 0.00405384 0)
(1.00257 0.00519511 0)
(0.999035 0.00991314 0)
(1.00423 0.00896851 0)
(1.00613 0.00787479 0)
(1.0038 0.0112661 0)
(1.00367 0.0126153 0)
(1.00826 0.0109505 0)
(1.0098 0.0102076 0)
(1.00913 0.0116886 0)
(1.00854 0.0120905 0)
(1.01057 0.0110211 0)
(0.9996 0.00293086 0)
(1.00301 0.00454665 0)
(1.00594 -0.000632488 0)
(1.00052 0.00413992 0)
(1.00146 0.00715252 0)
(1.00573 0.00303038 0)
(1.00171 0.00425041 0)
(1.00128 0.00793382 0)
(1.00536 0.0044423 0)
(1.00309 0.0049932 0)
(0.999425 0.00965232 0)
(1.004 0.00928454 0)
(1.00639 0.00776375 0)
(1.00443 0.0106108 0)
(1.00371 0.0124614 0)
(1.0079 0.0111391 0)
(1.00991 0.00993123 0)
(1.00951 0.0110369 0)
(1.00852 0.0117952 0)
(1.01014 0.0110893 0)
(0.999685 0.00254981 0)
(1.00262 0.00471743 0)
(1.00571 -0.000426393 0)
(1.00081 0.00380517 0)
(1.00127 0.00720331 0)
(1.00545 0.0031869 0)
(1.00203 0.00400399 0)
(1.00126 0.00793984 0)
(1.00509 0.00488972 0)
(1.00356 0.00484937 0)
(0.999888 0.00931068 0)
(1.0038 0.00955207 0)
(1.00654 0.00778257 0)
(1.00507 0.00997259 0)
(1.00387 0.0121531 0)
(1.00753 0.0112909 0)
(1.00988 0.00980187 0)
(1.00988 0.0104293 0)
(1.00864 0.0113813 0)
(1.00979 0.0110519 0)
(0.999766 0.00219737 0)
(1.00225 0.0048224 0)
(1.00544 -0.000150818 0)
(1.0011 0.0034395 0)
(1.00111 0.00719896 0)
(1.00513 0.00343355 0)
(1.00235 0.00375313 0)
(1.0013 0.0078658 0)
(1.0048 0.00536505 0)
(1.00398 0.00480185 0)
(1.00041 0.00891355 0)
(1.00363 0.00973527 0)
(1.00658 0.00790177 0)
(1.00567 0.00940168 0)
(1.00414 0.0116995 0)
(1.00718 0.0113517 0)
(1.00972 0.00979145 0)
(1.01019 0.00992134 0)
(1.00886 0.0108755 0)
(1.00955 0.0109105 0)
(0.999841 0.00187569 0)
(1.0019 0.00486259 0)
(1.00513 0.000172615 0)
(1.00138 0.00306973 0)
(1.00098 0.00712108 0)
(1.00477 0.00377272 0)
(1.00265 0.00353581 0)
(1.00141 0.0076943 0)
(1.00449 0.00582193 0)
(1.00431 0.0048604 0)
(1.00098 0.00847707 0)
(1.00352 0.0098064 0)
(1.00653 0.00808331 0)
(1.00621 0.00894213 0)
(1.00452 0.0111474 0)
(1.00691 0.0112908 0)
(1.00945 0.00984257 0)
(1.0104 0.00955103 0)
(1.00915 0.0103278 0)
(1.00942 0.0106679 0)
(0.99991 0.00158909 0)
(1.00156 0.00483355 0)
(1.00479 0.00053611 0)
(1.00165 0.00272822 0)
(1.00089 0.00695515 0)
(1.00439 0.00417239 0)
(1.00291 0.00339149 0)
(1.00157 0.00742662 0)
(1.00421 0.00621799 0)
(1.00455 0.00501958 0)
(1.00156 0.00804188 0)
(1.00349 0.00975433 0)
(1.0064 0.00827513 0)
(1.00664 0.00860082 0)
(1.00496 0.0105502 0)
(1.00674 0.0111046 0)
(1.00914 0.00989036 0)
(1.01047 0.00931705 0)
(1.00946 0.00980617 0)
(1.00942 0.0103233 0)
(0.999973 0.00133994 0)
(1.00126 0.00472821 0)
(1.00441 0.000937255 0)
(1.0019 0.00243402 0)
(1.00085 0.00668956 0)
(1.00399 0.00459242 0)
(1.00311 0.00336201 0)
(1.00179 0.00709426 0)
(1.00395 0.00651984 0)
(1.00471 0.0052544 0)
(1.00214 0.00764934 0)
(1.00354 0.00959052 0)
(1.00624 0.00843893 0)
(1.00697 0.00837064 0)
(1.00543 0.00995916 0)
(1.00668 0.0108042 0)
(1.00881 0.00988892 0)
(1.01043 0.00918281 0)
(1.00973 0.00937064 0)
(1.00952 0.00990159 0)
(1.00003 0.00112931 0)
(1.00099 0.00455804 0)
(1.00402 0.00134056 0)
(1.00211 0.00221208 0)
(1.00088 0.00633609 0)
(1.0036 0.00498421 0)
(1.00325 0.00345771 0)
(1.00204 0.00674739 0)
(1.00375 0.00670911 0)
(1.00479 0.00552406 0)
(1.00268 0.00731606 0)
(1.00365 0.00933801 0)
(1.00607 0.00854895 0)
(1.00717 0.00823687 0)
(1.00589 0.00941863 0)
(1.00672 0.0104154 0)
(1.00852 0.00981619 0)
(1.0103 0.00909446 0)
(1.00992 0.00904072 0)
(1.00968 0.0094587 0)
(1.00008 0.000953618 0)
(1.00075 0.00433369 0)
(1.00361 0.00173086 0)
(1.00228 0.00207675 0)
(1.00095 0.00591313 0)
(1.00324 0.00531199 0)
(1.00332 0.00365604 0)
(1.0023 0.00643246 0)
(1.0036 0.00679913 0)
(1.00482 0.0057963 0)
(1.00316 0.00705386 0)
(1.00384 0.00902896 0)
(1.00592 0.0085861 0)
(1.00728 0.00816538 0)
(1.0063 0.00895578 0)
(1.00684 0.00996871 0)
(1.00829 0.0096649 0)
(1.01011 0.00900808 0)
(1.01001 0.00879939 0)
(1.00985 0.00906086 0)
(1.00012 0.000815631 0)
(1.00055 0.00406387 0)
(1.0032 0.00208701 0)
(1.00239 0.00204052 0)
(1.00107 0.00545712 0)
(1.00292 0.00555134 0)
(1.00334 0.00390417 0)
(1.00256 0.00615625 0)
(1.00352 0.00680219 0)
(1.0048 0.00604438 0)
(1.00359 0.00686763 0)
(1.00406 0.00869812 0)
(1.0058 0.00855338 0)
(1.00732 0.00812464 0)
(1.00665 0.00858784 0)
(1.00702 0.00951179 0)
(1.00813 0.00944214 0)
(1.0099 0.00889886 0)
(1.01003 0.00860536 0)
(1.00999 0.00873442 0)
(1.00016 0.000708132 0)
(1.0004 0.00377286 0)
(1.00281 0.00237665 0)
(1.00246 0.00208835 0)
(1.00122 0.00500944 0)
(1.00266 0.00569749 0)
(1.0033 0.00419664 0)
(1.00279 0.00597017 0)
(1.00349 0.00674896 0)
(1.00477 0.00624339 0)
(1.00394 0.00671758 0)
(1.00431 0.00833654 0)
(1.00573 0.0084273 0)
(1.0073 0.00806819 0)
(1.00692 0.00828263 0)
(1.00722 0.00906796 0)
(1.00804 0.00915048 0)
(1.0097 0.00874476 0)
(1.00999 0.00841084 0)
(1.01008 0.00845312 0)
(1.00019 0.000628651 0)
(1.00027 0.0034783 0)
(1.00244 0.0026148 0)
(1.00247 0.00217854 0)
(1.00139 0.00456202 0)
(1.00247 0.0056913 0)
(1.00324 0.00446547 0)
(1.00299 0.00587325 0)
(1.00349 0.00669517 0)
(1.00471 0.00644829 0)
(1.00423 0.00666565 0)
(1.00457 0.00803701 0)
(1.00571 0.00828096 0)
(1.00725 0.0080304 0)
(1.00713 0.00806186 0)
(1.00743 0.00868102 0)
(1.00801 0.00884047 0)
(1.00951 0.00856667 0)
(1.00993 0.00822058 0)
(1.01012 0.00820274 0)
(1.00021 0.000565904 0)
(1.00019 0.0031924 0)
(1.0021 0.00279074 0)
(1.00243 0.00233896 0)
(1.00156 0.00420268 0)
(1.00234 0.00560617 0)
(1.00318 0.00467846 0)
(1.00318 0.00576727 0)
(1.00355 0.0065476 0)
(1.00467 0.0065177 0)
(1.00446 0.00657183 0)
(1.00483 0.00769871 0)
(1.00574 0.00803654 0)
(1.0072 0.00792288 0)
(1.00727 0.00786159 0)
(1.00761 0.00832311 0)
(1.00802 0.00850888 0)
(1.00936 0.00835619 0)
(1.00983 0.0080283 0)
(1.01012 0.00796478 0)
(1.00022 0.000513334 0)
(1.00013 0.00292888 0)
(1.00181 0.00289969 0)
(1.00236 0.00250797 0)
(1.00173 0.00390884 0)
(1.00227 0.0054786 0)
(1.0031 0.00487172 0)
(1.00331 0.00575703 0)
(1.00361 0.00647089 0)
(1.00463 0.00661763 0)
(1.00463 0.00655751 0)
(1.00506 0.00743921 0)
(1.00581 0.00778932 0)
(1.00717 0.00778775 0)
(1.00738 0.00768713 0)
(1.00778 0.00801435 0)
(1.00807 0.00817191 0)
(1.00924 0.00810866 0)
(1.00974 0.00781987 0)
(1.0101 0.00772323 0)
(1.00024 0.000493048 0)
(1.0001 0.00264897 0)
(1.00155 0.00286458 0)
(1.00225 0.00263835 0)
(1.00187 0.00371075 0)
(1.00226 0.00535676 0)
(1.00306 0.00499273 0)
(1.00343 0.00572619 0)
(1.0037 0.00633328 0)
(1.0046 0.00662948 0)
(1.00474 0.00651853 0)
(1.00525 0.00719574 0)
(1.00589 0.00751426 0)
(1.00714 0.0076057 0)
(1.00743 0.00750102 0)
(1.00788 0.00774749 0)
(1.00812 0.00786386 0)
(1.00915 0.00784881 0)
(1.00963 0.00761235 0)
(1.01004 0.00750311 0)
(1.00024 0.000464225 0)
(1.00007 0.00243699 0)
(1.00135 0.0027976 0)
(1.00217 0.00278139 0)
(1.00202 0.00360046 0)
(1.00228 0.00523748 0)
(1.00301 0.0050629 0)
(1.00351 0.00568487 0)
(1.00379 0.00618347 0)
(1.00459 0.0065981 0)
(1.00483 0.00649582 0)
(1.00543 0.00700477 0)
(1.00602 0.00725672 0)
(1.00716 0.0074087 0)
(1.00751 0.00731306 0)
(1.008 0.00750674 0)
(1.0082 0.00759915 0)
(1.00911 0.00760253 0)
(1.00955 0.00740349 0)
(1.00999 0.0072984 0)
(1.00025 0.000447826 0)
(1.00007 0.00226088 0)
(1.00117 0.00278658 0)
(1.00206 0.00293935 0)
(1.00213 0.0035264 0)
(1.00233 0.00508494 0)
(1.00299 0.00509457 0)
(1.00358 0.00564345 0)
(1.0039 0.00602826 0)
(1.0046 0.00652518 0)
(1.00488 0.00645048 0)
(1.00553 0.00682757 0)
(1.0061 0.00697984 0)
(1.00717 0.00714866 0)
(1.00754 0.00707101 0)
(1.00808 0.00721299 0)
(1.00825 0.00729296 0)
(1.00905 0.00732219 0)
(1.00947 0.00714095 0)
(1.00991 0.00704759 0)
(1.00025 0.000444896 0)
(1.00007 0.00210479 0)
(1.00105 0.00275596 0)
(1.00197 0.00305157 0)
(1.00223 0.00343299 0)
(1.00238 0.00487133 0)
(1.00296 0.00500772 0)
(1.0036 0.00551498 0)
(1.00399 0.00579106 0)
(1.00463 0.00635827 0)
(1.00493 0.00634751 0)
(1.00561 0.00667071 0)
(1.00619 0.00674334 0)
(1.0072 0.00690836 0)
(1.00759 0.00685746 0)
(1.00816 0.00697064 0)
(1.00833 0.00701902 0)
(1.00902 0.00708763 0)
(1.0094 0.0069272 0)
(1.00986 0.00682694 0)
(1.00025 0.000436946 0)
(1.00008 0.00201062 0)
(1.00094 0.00269235 0)
(1.00185 0.00310981 0)
(1.00228 0.00334425 0)
(1.00245 0.0046826 0)
(1.00296 0.00494421 0)
(1.00363 0.00547585 0)
(1.00409 0.00565526 0)
(1.0047 0.00623242 0)
(1.00499 0.00626846 0)
(1.00567 0.00655704 0)
(1.00624 0.00655631 0)
(1.00722 0.00667423 0)
(1.00762 0.00661489 0)
(1.0082 0.00672323 0)
(1.00839 0.00672462 0)
(1.009 0.00680727 0)
(1.00931 0.00669801 0)
(1.00978 0.00657354 0)
(1.00024 0.000427202 0)
(1.00009 0.00192418 0)
(1.00086 0.00263431 0)
(1.00174 0.00317104 0)
(1.00231 0.00331823 0)
(1.00252 0.00452942 0)
(1.00297 0.00486224 0)
(1.00362 0.00540104 0)
(1.00414 0.00548665 0)
(1.00475 0.00601012 0)
(1.00502 0.00608257 0)
(1.00569 0.00637262 0)
(1.00624 0.00634143 0)
(1.00721 0.00642457 0)
(1.00765 0.0063367 0)
(1.00823 0.00644719 0)
(1.00843 0.0064422 0)
(1.00901 0.00649984 0)
(1.00924 0.00645885 0)
(1.0097 0.00632883 0)
(1.00024 0.00042944 0)
(1.00011 0.00182251 0)
(1.0008 0.00252519 0)
(1.00163 0.00317406 0)
(1.00231 0.00327182 0)
(1.00257 0.00436476 0)
(1.00299 0.00474061 0)
(1.00361 0.00531305 0)
(1.00418 0.00535698 0)
(1.0048 0.00581919 0)
(1.00508 0.00589977 0)
(1.00571 0.00620572 0)
(1.00624 0.00615516 0)
(1.00717 0.00622019 0)
(1.00764 0.00609094 0)
(1.00825 0.00616182 0)
(1.00844 0.00617189 0)
(1.00901 0.00619332 0)
(1.00917 0.00618814 0)
(1.00959 0.00609678 0)
(1.00024 0.000429007 0)
(1.00011 0.0017352 0)
(1.00076 0.0024017 0)
(1.00155 0.00316532 0)
(1.00231 0.0032483 0)
(1.00264 0.00423557 0)
(1.00302 0.00461797 0)
(1.00359 0.00521837 0)
(1.00419 0.00522872 0)
(1.00483 0.00562755 0)
(1.00513 0.0056765 0)
(1.00573 0.00599759 0)
(1.00622 0.00595227 0)
(1.00711 0.006012 0)