/*--------------------------------*- C++ -*----------------------------------*\
| =========                 |                                                 |
| \\      /  F ield         | OpenFOAM: The Open Source CFD Toolbox           |
|  \\    /   O peration     | Version:  v1812                                 |
|   \\  /    A nd           | Web:      www.OpenFOAM.com                      |
|    \\/     M anipulation  |                                                 |
\*---------------------------------------------------------------------------*/
FoamFile
{
    version     2.0;
    format      ascii;
    class       surfaceScalarField;
    location    "0.6";
    object      phi;
}
// * * * * * * * * * * * * * * * * * * * * * * * * * * * * * * * * * * * * * //

dimensions      [0 3 -1 0 0 0 0];
oriented        oriented;


internalField   nonuniform List<scalar> 
19000
(
1.18008e-06
-2.49278e-07
1.19504e-06
3.62046e-07
1.1746e-06
4.76052e-07
1.11822e-06
-6.3777e-07
1.17897e-06
1.54309e-07
1.16094e-06
1.91456e-07
1.15102e-06
-7.58018e-08
1.16294e-06
3.87017e-07
1.15232e-06
-4.77077e-08
1.13976e-06
2.31265e-09
1.14866e-06
-3.65336e-07
1.15626e-06
8.89543e-08
1.17114e-06
-1.43667e-07
1.16567e-06
7.11108e-08
1.17103e-06
-1.27618e-07
1.15869e-06
-1.15499e-08
1.16247e-06
-6.11589e-08
1.15194e-06
5.71164e-09
1.15067e-06
7.09522e-08
6.89716e-08
1.125e-06
1.23649e-06
-2.61508e-07
1.25373e-06
3.44804e-07
1.23032e-06
4.99463e-07
1.1735e-06
-5.8095e-07
1.23215e-06
9.56593e-08
1.22004e-06
2.03565e-07
1.20636e-06
-6.21239e-08
1.2242e-06
3.69183e-07
1.21053e-06
-3.40351e-08
1.2022e-06
1.06381e-08
1.20684e-06
-3.69978e-07
1.22003e-06
7.5764e-08
1.22799e-06
-1.51626e-07
1.23277e-06
6.63369e-08
1.22711e-06
-1.21962e-07
1.22783e-06
-1.22693e-08
1.21373e-06
-4.7055e-08
1.2228e-06
-3.36154e-09
1.19555e-06
9.81986e-08
5.64845e-08
1.20804e-06
1.29398e-06
-2.72707e-07
1.31432e-06
3.24469e-07
1.28899e-06
5.24793e-07
1.23652e-06
-5.28481e-07
1.28626e-06
4.59209e-08
1.28544e-06
2.04377e-07
1.2643e-06
-4.09787e-08
1.286e-06
3.47481e-07
1.26993e-06
-1.79593e-08
1.26762e-06
1.29445e-08
1.26411e-06
-3.66473e-07
1.28211e-06
5.77672e-08
1.2828e-06
-1.52314e-07
1.29458e-06
5.4552e-08
1.28247e-06
-1.09845e-07
1.28721e-06
-1.7008e-08
1.2705e-06
-3.03525e-08
1.27615e-06
-9.00549e-09
1.26104e-06
1.13305e-07
6.38151e-08
1.25371e-06
1.35262e-06
-2.81225e-07
1.37456e-06
3.02532e-07
1.34996e-06
5.49396e-07
1.30646e-06
-4.8499e-07
1.3437e-06
8.68223e-09
1.35297e-06
1.95111e-07
1.32634e-06
-1.43465e-08
1.34563e-06
3.28186e-07
1.33148e-06
-3.80549e-09
1.33165e-06
1.27751e-08
1.32325e-06
-3.58079e-07
1.33953e-06
4.14882e-08
1.33891e-06
-1.5169e-07
1.35033e-06
4.31333e-08
1.33998e-06
-9.9498e-08
1.34233e-06
-1.9354e-08
1.32975e-06
-1.77779e-08
1.33013e-06
-9.38307e-09
1.32288e-06
1.20553e-07
7.56559e-08
1.31104e-06
1.4133e-06
-2.8617e-07
1.43409e-06
2.81739e-07
1.4132e-06
5.70287e-07
1.38093e-06
-4.52719e-07
1.40571e-06
-1.60971e-08
1.4199e-06
1.80922e-07
1.39322e-06
1.23329e-08
1.40588e-06
3.15524e-07
1.39632e-06
5.75684e-09
1.39658e-06
1.25184e-08
1.38685e-06
-3.48354e-07
1.3991e-06
2.92361e-08
1.39887e-06
-1.51462e-07
1.40862e-06
3.33904e-08
1.40078e-06
-9.16623e-08
1.40209e-06
-2.06577e-08
1.3916e-06
-7.29635e-09
1.39008e-06
-7.86324e-09
1.38507e-06
1.25571e-07
8.72604e-08
1.37346e-06
1.47728e-06
-2.87776e-07
1.49433e-06
2.64696e-07
1.4792e-06
5.85414e-07
1.45775e-06
-4.31268e-07
1.47276e-06
-3.11069e-08
1.48659e-06
1.67087e-07
1.46442e-06
3.45058e-08
1.47045e-06
3.09489e-07
1.46487e-06
1.13377e-08
1.46513e-06
1.2259e-08
1.45564e-06
-3.38862e-07
1.46492e-06
1.99539e-08
1.46395e-06
-1.50486e-07
1.47247e-06
2.48711e-08
1.46558e-06
-8.47759e-08
1.46717e-06
-2.22445e-08
1.45783e-06
2.04004e-09
1.45545e-06
-5.47917e-09
1.45209e-06
1.28932e-07
9.85541e-08
1.44079e-06
1.54552e-06
-2.87081e-07
1.55754e-06
2.52681e-07
1.54849e-06
5.94457e-07
1.53582e-06
-4.18596e-07
1.54452e-06
-3.98046e-08
1.55508e-06
1.56528e-07
1.53877e-06
5.08086e-08
1.54085e-06
3.07417e-07
1.53726e-06
1.49281e-08
1.53803e-06
1.14836e-08
1.52907e-06
-3.29903e-07
1.53692e-06
1.21077e-08
1.53415e-06
-1.47716e-07
1.54146e-06
1.75584e-08
1.53439e-06
-7.77057e-08
1.53638e-06
-2.42382e-08
1.52838e-06
1.0042e-08
1.52545e-06
-2.54359e-09
1.52412e-06
1.30262e-07
1.09389e-07
1.51328e-06
1.61825e-06
-2.85205e-07
1.62564e-06
2.45296e-07
1.62155e-06
5.98543e-07
1.61504e-06
-4.1208e-07
1.62019e-06
-4.49592e-08
1.62705e-06
1.49669e-07
1.61563e-06
6.22308e-08
1.61655e-06
3.06497e-07
1.61353e-06
1.79452e-08
1.61491e-06
1.01013e-08
1.60629e-06
-3.21277e-07
1.61362e-06
4.77875e-09
1.60883e-06
-1.42932e-07
1.61485e-06
1.15409e-08
1.60709e-06
-6.99474e-08
1.60915e-06
-2.62993e-08
1.60267e-06
1.65224e-08
1.59931e-06
8.14237e-10
1.60018e-06
1.29401e-07
1.19476e-07
1.59009e-06
1.69517e-06
-2.82799e-07
1.69947e-06
2.40999e-07
1.69877e-06
5.99234e-07
1.69584e-06
-4.09145e-07
1.69904e-06
-4.8164e-08
1.70319e-06
1.45523e-07
1.69509e-06
7.03311e-08
1.69656e-06
3.05026e-07
1.69363e-06
2.08761e-08
1.69539e-06
8.34164e-09
1.68668e-06
-3.1257e-07
1.69383e-06
-2.36851e-09
1.68737e-06
-1.36469e-07
1.69225e-06
6.65553e-09
1.68381e-06
-6.15058e-08
1.68552e-06
-2.80121e-08
1.68052e-06
2.15303e-08
1.67664e-06
4.68873e-09
1.67942e-06
1.26618e-07
1.28591e-07
1.67031e-06
1.77591e-06
-2.79988e-07
1.77887e-06
2.38038e-07
1.78043e-06
5.97671e-07
1.77888e-06
-4.07594e-07
1.78074e-06
-5.00233e-08
1.78351e-06
1.42761e-07
1.77757e-06
7.62667e-08
1.78024e-06
3.02351e-07
1.77741e-06
2.37124e-08
1.77929e-06
6.46057e-09
1.77007e-06
-3.03349e-07
1.77703e-06
-9.33307e-09
1.76943e-06
-1.28867e-07
1.77353e-06
2.55194e-09
1.76477e-06
-5.27432e-08
1.7658e-06
-2.90424e-08
1.76207e-06
2.52633e-08
1.75746e-06
9.30017e-09
1.76152e-06
1.22553e-07
1.36575e-07
1.75354e-06
1.86038e-06
-2.76623e-07
1.8633e-06
2.35126e-07
1.86661e-06
5.94357e-07
1.86482e-06
-4.05802e-07
1.86537e-06
-5.05775e-08
1.86784e-06
1.40289e-07
1.86341e-06
8.07003e-08
1.86736e-06
2.98404e-07
1.86476e-06
2.63056e-08
1.86659e-06
4.6295e-09
1.85656e-06
-2.93314e-07
1.8632e-06
-1.59798e-08
1.85501e-06
-1.20669e-07
1.85868e-06
-1.11944e-09
1.8501e-06
-4.41615e-08
1.85025e-06
-2.92004e-08
1.84755e-06
2.79717e-08
1.84204e-06
1.48042e-08
1.84659e-06
1.18003e-07
1.43298e-07
1.83987e-06
1.94877e-06
-2.72552e-07
1.95229e-06
2.31606e-07
1.95722e-06
5.89423e-07
1.95421e-06
-4.02787e-07
1.95333e-06
-4.97036e-08
1.95619e-06
1.37437e-07
1.95289e-06
8.39951e-08
1.95794e-06
2.93359e-07
1.95573e-06
2.85101e-08
1.95742e-06
2.94364e-09
1.94646e-06
-2.82361e-07
1.95264e-06
-2.21575e-08
1.9443e-06
-1.12324e-07
1.94775e-06
-4.57422e-09
1.9398e-06
-3.62075e-08
1.93903e-06
-2.84317e-08
1.9371e-06
2.99014e-08
1.93074e-06
2.11659e-08
1.93503e-06
1.13706e-07
1.48639e-07
1.92969e-06
2.04137e-06
-2.67733e-07
2.04569e-06
2.27283e-07
2.05218e-06
5.82939e-07
2.04754e-06
-3.9815e-07
2.0452e-06
-4.73653e-08
2.0487e-06
1.3394e-07
2.04634e-06
8.6354e-08
2.05223e-06
2.87465e-07
2.05051e-06
3.023e-08
2.05199e-06
1.46375e-09
2.0402e-06
-2.70564e-07
2.04579e-06
-2.77505e-08
2.03762e-06
-1.04154e-07
2.04091e-06
-7.86234e-09
2.03386e-06
-2.91609e-08
2.03221e-06
-2.67839e-08
2.03083e-06
3.12887e-08
2.02384e-06
2.81543e-08
2.02737e-06
1.10175e-07
1.52526e-07
2.02348e-06
2.13849e-06
-2.62225e-07
2.14358e-06
2.22199e-07
2.15146e-06
5.75051e-07
2.14522e-06
-3.91902e-07
2.14154e-06
-4.36893e-08
2.14564e-06
1.29841e-07
2.14412e-06
8.78785e-08
2.1506e-06
2.80984e-07
2.1494e-06
3.14278e-08
2.15061e-06
2.48262e-10
2.13817e-06
-2.58122e-07
2.14311e-06
-3.2686e-08
2.13532e-06
-9.63639e-08
2.13837e-06
-1.09132e-08
2.13232e-06
-2.31084e-08
2.12991e-06
-2.4379e-08
2.12883e-06
3.23742e-08
2.12156e-06
3.54192e-08
2.12408e-06
1.0766e-07
1.54961e-07
2.12164e-06
2.2404e-06
-2.56138e-07
2.24611e-06
2.16486e-07
2.25519e-06
5.65971e-07
2.24757e-06
-3.84274e-07
2.24281e-06
-3.89318e-08
2.24729e-06
1.25356e-07
2.24656e-06
8.86087e-08
2.25339e-06
2.74162e-07
2.25271e-06
3.21032e-08
2.2536e-06
-6.4041e-10
2.24076e-06
-2.45281e-07
2.245e-06
-3.69242e-08
2.23769e-06
-8.90601e-08
2.2404e-06
-1.3618e-08
2.23526e-06
-1.79684e-08
2.23227e-06
-2.13932e-08
2.23123e-06
3.34111e-08
2.22406e-06
4.25913e-08
2.22553e-06
1.06189e-07
1.56043e-07
2.22445e-06
2.34733e-06
-2.49592e-07
2.35352e-06
2.103e-07
2.36357e-06
5.55915e-07
2.35485e-06
-3.75556e-07
2.34933e-06
-3.34108e-08
2.35393e-06
1.2076e-07
2.35398e-06
8.85612e-08
2.36091e-06
2.67229e-07
2.36075e-06
3.22641e-08
2.36125e-06
-1.14716e-09
2.34826e-06
-2.32283e-07
2.35178e-06
-4.04511e-08
2.34499e-06
-8.2267e-08
2.34727e-06
-1.59015e-08
2.34286e-06
-1.35491e-08
2.33949e-06
-1.80244e-08
2.33826e-06
3.46404e-08
2.33149e-06
4.93622e-08
2.33203e-06
1.05644e-07
1.55955e-07
2.33212e-06
2.45951e-06
-2.42704e-07
2.46601e-06
2.03795e-07
2.47686e-06
5.4507e-07
2.4673e-06
-3.66003e-07
2.46135e-06
-2.74526e-08
2.4658e-06
1.1631e-07
2.46661e-06
8.77499e-08
2.47344e-06
2.60397e-07
2.47379e-06
3.1912e-08
2.47388e-06
-1.23717e-09
2.46092e-06
-2.19326e-07
2.46376e-06
-4.3286e-08
2.45743e-06
-7.59389e-08
2.45929e-06
-1.77618e-08
2.45534e-06
-9.60022e-09
2.45177e-06
-1.44555e-08
2.45023e-06
3.6183e-08
2.44398e-06
5.56114e-08
2.44381e-06
1.05817e-07
1.54937e-07
2.44483e-06
2.57717e-06
-2.35578e-07
2.58386e-06
1.97107e-07
2.59534e-06
5.33582e-07
2.58514e-06
-3.55796e-07
2.57904e-06
-2.13571e-08
2.58314e-06
1.12218e-07
2.5847e-06
8.61861e-08
2.59125e-06
2.5385e-07
2.59211e-06
3.10467e-08
2.59178e-06
-9.02514e-10
2.57899e-06
-2.0654e-07
2.5812e-06
-4.55001e-08
2.57523e-06
-6.99623e-08
2.57674e-06
-1.92744e-08
2.57301e-06
-5.87119e-09
2.56935e-06
-1.07968e-08
2.56753e-06
3.80015e-08
2.56175e-06
6.13985e-08
2.56111e-06
1.06455e-07
1.5324e-07
2.5628e-06
2.70055e-06
-2.28296e-07
2.70732e-06
1.90337e-07
2.71935e-06
5.21551e-07
2.70859e-06
-3.45036e-07
2.70261e-06
-1.53793e-08
2.70618e-06
1.08644e-07
2.7085e-06
8.38701e-08
2.71461e-06
2.4774e-07
2.71598e-06
2.9679e-08
2.71524e-06
-1.67218e-10
2.70267e-06
-1.93973e-07
2.7044e-06
-4.72218e-08
2.69861e-06
-6.41758e-08
2.69989e-06
-2.05523e-08
2.69619e-06
-2.16914e-09
2.69244e-06
-7.05453e-09
2.69049e-06
3.99532e-08
2.68505e-06
6.68402e-08
2.68416e-06
1.07342e-07
1.51076e-07
2.68633e-06
2.8299e-06
-2.20924e-07
2.83667e-06
1.8356e-07
2.84919e-06
5.09032e-07
2.83791e-06
-3.33755e-07
2.83225e-06
-9.72087e-09
2.83519e-06
1.05711e-07
2.83826e-06
8.07918e-08
2.84384e-06
2.42168e-07
2.84567e-06
2.78471e-08
2.8446e-06
9.01846e-10
2.83221e-06
-1.81584e-07
2.83362e-06
-4.86358e-08
2.82784e-06
-5.8392e-08
2.82898e-06
-2.16885e-08
2.82525e-06
1.55967e-09
2.82129e-06
-3.09937e-09
2.81939e-06
4.18549e-08
2.81424e-06
7.19913e-08
2.81321e-06
1.0837e-07
1.48593e-07
2.8157e-06
2.96548e-06
-2.1351e-07
2.97221e-06
1.76834e-07
2.9852e-06
4.96038e-07
2.97339e-06
-3.21941e-07
2.9682e-06
-4.53494e-09
2.9704e-06
1.03512e-07
2.97426e-06
7.69381e-08
2.97924e-06
2.37179e-07
2.98146e-06
2.56272e-08
2.98018e-06
2.18533e-09
2.96785e-06
-1.69249e-07
2.96916e-06
-4.99521e-08
2.96322e-06
-5.24518e-08
2.96422e-06
-2.26916e-08
2.96057e-06
5.21864e-09
2.95618e-06
1.28924e-09
2.95447e-06
4.35637e-08
2.94968e-06
7.67787e-08
2.94851e-06
1.09538e-07
1.45899e-07
2.95121e-06
3.10759e-06
-2.06092e-07
3.11422e-06
1.70206e-07
3.1277e-06
4.82549e-07
3.11532e-06
-3.09555e-07
3.11072e-06
6.49132e-11
3.11211e-06
1.02118e-07
3.11674e-06
7.23079e-08
3.12116e-06
2.32758e-07
3.12365e-06
2.31458e-08
3.12233e-06
3.50452e-09
3.10985e-06
-1.56777e-07
3.11128e-06
-5.13792e-08
3.10509e-06
-4.62593e-08
3.10587e-06
-2.34709e-08
3.10245e-06
8.63377e-09
3.09745e-06
6.28983e-09
3.09594e-06
4.50781e-08
3.09171e-06
8.10076e-08
3.09036e-06
1.10892e-07
1.43099e-07
3.09316e-06
3.25652e-06
-1.98702e-07
3.263e-06
1.63726e-07
3.27702e-06
4.68524e-07
3.26402e-06
-2.96548e-07
3.26009e-06
3.99212e-09
3.26063e-06
1.0158e-07
3.26601e-06
6.69306e-08
3.26993e-06
2.2883e-07
3.2725e-06
2.05828e-08
3.27137e-06
4.63107e-09
3.25855e-06
-1.4396e-07
3.26024e-06
-5.30634e-08
3.25381e-06
-3.98314e-08
3.25416e-06
-2.38211e-08
3.2512e-06
1.15983e-08
3.24553e-06
1.19552e-08
3.24405e-06
4.65629e-08
3.24061e-06
8.44477e-08
3.23909e-06
1.12411e-07
1.40347e-07
3.24184e-06
3.4126e-06
-1.91372e-07
3.41888e-06
1.57447e-07
3.4335e-06
4.53909e-07
3.41981e-06
-2.82864e-07
3.41662e-06
7.17985e-09
3.41629e-06
1.01919e-07
3.42234e-06
6.08756e-08
3.42591e-06
2.25257e-07
3.42832e-06
1.81712e-08
3.42765e-06
5.30468e-09
3.4143e-06
-1.30612e-07
3.41629e-06
-5.5047e-08
3.40977e-06
-3.33131e-08
3.4094e-06
-2.34496e-08
3.40704e-06
1.39569e-08
3.40084e-06
1.81487e-08
3.3991e-06
4.83075e-08
3.39662e-06
8.69265e-08
3.39507e-06
1.13957e-07
1.37823e-07
3.3976e-06
3.57618e-06
-1.84136e-07
3.58219e-06
1.5143e-07
3.59746e-06
4.38641e-07
3.58305e-06
-2.6845e-07
3.58065e-06
9.57647e-09
3.57944e-06
1.03131e-07
3.58605e-06
5.42607e-08
3.58946e-06
2.21844e-07
3.59145e-06
1.61856e-08
3.59149e-06
5.26772e-09
3.5775e-06
-1.16626e-07
3.57967e-06
-5.72197e-08
3.57335e-06
-2.69887e-08
3.5719e-06
-2.20029e-08
3.57022e-06
1.56369e-08
3.56379e-06
2.45868e-08
3.5615e-06
5.05917e-08
3.55999e-06
8.84389e-08
3.55868e-06
1.15262e-07
1.35679e-07
3.56083e-06
3.7476e-06
-1.77029e-07
3.75329e-06
1.45741e-07
3.76927e-06
4.22657e-07
3.75408e-06
-2.5326e-07
3.75251e-06
1.11486e-08
3.75046e-06
1.05179e-07
3.75746e-06
4.72591e-08
3.76097e-06
2.18331e-07
3.76223e-06
1.49286e-08
3.76319e-06
4.30925e-09
3.74859e-06
-1.02028e-07
3.75068e-06
-5.93041e-08
3.74491e-06
-2.12273e-08
3.74208e-06
-1.91639e-08
3.741e-06
1.67101e-08
3.73469e-06
3.0899e-08
3.73173e-06
5.35543e-08
3.73099e-06
8.91811e-08
3.73024e-06
1.16008e-07
1.33941e-07
3.73198e-06
3.92725e-06
-1.70087e-07
3.93254e-06
1.40452e-07
3.94929e-06
4.05899e-07
3.9333e-06
-2.37266e-07
3.93255e-06
1.18949e-08
3.92976e-06
1.07973e-07
3.93692e-06
4.01039e-08
3.94083e-06
2.14419e-07
3.94107e-06
1.46908e-08
3.94306e-06
2.3147e-09
3.92803e-06
-8.69997e-08
3.9296e-06
-6.08724e-08
3.92478e-06
-1.64082e-08
3.92042e-06
-1.48008e-08
3.91966e-06
1.747e-08
3.91386e-06
3.66947e-08
3.91027e-06
5.7142e-08
3.90996e-06
8.9494e-08
3.91002e-06
1.15955e-07
1.32454e-07
3.9115e-06
4.11551e-06
-1.63348e-07
4.12033e-06
1.35632e-07
4.13791e-06
3.88321e-07
4.12112e-06
-2.20473e-07
4.12115e-06
1.18564e-08
4.11776e-06
1.11366e-07
4.12477e-06
3.30974e-08
4.12941e-06
2.09773e-07
4.12839e-06
1.57138e-08
4.1314e-06
-6.94109e-10
4.11627e-06
-7.18698e-08
4.11683e-06
-6.14351e-08
4.11322e-06
-1.27992e-08
4.10745e-06
-9.02994e-09
4.10659e-06
1.83312e-08
4.10162e-06
4.16693e-08
4.09762e-06
6.11399e-08
4.09738e-06
8.97378e-08
4.09827e-06
1.15062e-07
1.30913e-07
4.09981e-06
4.31281e-06
-1.56851e-07
4.31708e-06
1.31353e-07
4.33551e-06
3.699e-07
4.31796e-06
-2.02932e-07
4.31869e-06
1.11333e-08
4.31491e-06
1.15146e-07
4.32142e-06
2.65891e-08
4.32711e-06
2.04075e-07
4.3247e-06
1.81321e-08
4.32854e-06
-4.53503e-09
4.31375e-06
-5.70792e-08
4.31283e-06
-6.05153e-08
4.3105e-06
-1.04706e-08
4.30367e-06
-2.20666e-09
4.30227e-06
1.97366e-08
4.29831e-06
4.5625e-08
4.29419e-06
6.52669e-08
4.29376e-06
9.01666e-08
4.29531e-06
1.13512e-07
1.28985e-07
4.29724e-06
4.51956e-06
-1.50633e-07
4.52323e-06
1.27676e-07
4.54249e-06
3.50645e-07
4.52431e-06
-1.84758e-07
4.52555e-06
9.89897e-09
4.52166e-06
1.19037e-07
4.52729e-06
2.096e-08
4.53429e-06
1.97069e-07
4.53049e-06
2.19364e-08
4.53482e-06
-8.86864e-09
4.52085e-06
-4.31101e-08
4.51812e-06
-5.77787e-08
4.51691e-06
-9.26265e-09
4.50952e-06
5.17829e-09
4.50724e-06
2.20157e-08
4.50433e-06
4.85351e-08
4.50037e-06
6.92314e-08
4.49966e-06
9.08749e-08
4.50154e-06
1.11631e-07
1.26458e-07
4.50407e-06
4.73621e-06
-1.44726e-07
4.73924e-06
1.24647e-07
4.75927e-06
3.30609e-07
4.74066e-06
-1.66149e-07
4.74216e-06
8.4082e-09
4.73848e-06
1.22707e-07
4.74285e-06
1.65906e-08
4.75129e-06
1.8863e-07
4.74632e-06
2.69105e-08
4.75067e-06
-1.32152e-08
4.73794e-06
-3.03877e-08
4.73328e-06
-5.3114e-08
4.73287e-06
-8.85172e-09
4.72541e-06
1.264e-08
4.72211e-06
2.53104e-08
4.72011e-06
5.05393e-08
4.71659e-06
7.2751e-08
4.71559e-06
9.18707e-08
4.71752e-06
1.09702e-07
1.23371e-07
4.72061e-06
4.96323e-06
-1.39158e-07
4.96559e-06
1.22288e-07
4.9863e-06
3.09899e-07
4.96755e-06
-1.47399e-07
4.96895e-06
7.00205e-09
4.96587e-06
1.2579e-07
4.96866e-06
1.38054e-08
4.97848e-06
1.78807e-07
4.97271e-06
3.26792e-08
4.97656e-06
-1.70644e-08
4.96534e-06
-1.91656e-08
4.95889e-06
-4.66632e-08
4.95883e-06
-8.79406e-09
4.95173e-06
1.97348e-08
4.94743e-06
2.96112e-08
4.94611e-06
5.18653e-08
4.94327e-06
7.55905e-08
4.94205e-06
9.3092e-08
4.94385e-06
1.07904e-07
1.19964e-07
4.94725e-06
5.2011e-06
-1.33946e-07
5.2028e-06
1.20589e-07
5.22401e-06
2.88694e-07
5.20552e-06
-1.28914e-07
5.20642e-06
6.10399e-09
5.2043e-06
1.27908e-07
5.20529e-06
1.28143e-08
5.21622e-06
1.67882e-07
5.2102e-06
3.86972e-08
5.21307e-06
-1.99326e-08
5.20339e-06
-9.48664e-09
5.19547e-06
-3.8745e-08
5.19533e-06
-8.65837e-09
5.18893e-06
2.61385e-08
5.18376e-06
3.47835e-08
5.18284e-06
5.27819e-08
5.18088e-06
7.75549e-08
5.17952e-06
9.4454e-08
5.1811e-06
1.06317e-07
1.16514e-07
5.18455e-06
5.45034e-06
-1.29094e-07
5.45142e-06
1.19505e-07
5.47287e-06
2.67248e-07
5.45516e-06
-1.1121e-07
5.45506e-06
6.2037e-09
5.45426e-06
1.28712e-07
5.4534e-06
1.36719e-08
5.46495e-06
1.56332e-07
5.45926e-06
4.4396e-08
5.46084e-06
-2.1513e-08
5.45256e-06
-1.21243e-09
5.44351e-06
-2.96932e-08
5.44299e-06
-8.14235e-09
5.43752e-06
3.16145e-08
5.43166e-06
4.06425e-08
5.43082e-06
5.36229e-08
5.42989e-06
7.84829e-08
5.42853e-06
9.58114e-08
5.42983e-06
1.05017e-07
1.13197e-07
5.43315e-06
5.71146e-06
-1.24595e-07
5.71202e-06
1.18948e-07
5.73337e-06
2.45896e-07
5.71705e-06
-9.48895e-08
5.71545e-06
7.80478e-09
5.71621e-06
1.27944e-07
5.71365e-06
1.62343e-08
5.72521e-06
1.44778e-07
5.72029e-06
4.93097e-08
5.7205e-06
-2.17228e-08
5.71336e-06
5.92917e-09
5.70352e-06
-1.98512e-08
5.70247e-06
-7.0898e-09
5.69805e-06
3.60282e-08
5.69173e-06
4.69602e-08
5.69061e-06
5.47496e-08
5.69076e-06
7.83272e-08
5.68965e-06
9.69203e-08
5.6906e-06
1.04075e-07
1.10096e-07
5.6937e-06
5.98502e-06
-1.20423e-07
5.98518e-06
1.18787e-07
6.00602e-06
2.25059e-07
5.99171e-06
-8.05846e-08
5.98819e-06
1.13332e-08
5.99057e-06
1.25564e-07
5.98676e-06
2.00354e-08
5.99759e-06
1.33953e-07
5.99369e-06
5.3204e-08
5.99275e-06
-2.07747e-08
5.98637e-06
1.23098e-08
5.97607e-06
-9.55104e-09
5.97443e-06
-5.45408e-09
5.97112e-06
3.93395e-08
5.96462e-06
5.34637e-08
5.96286e-06
5.6502e-08
5.96396e-06
7.72317e-08
5.96345e-06
9.74286e-08
5.96401e-06
1.03519e-07
1.07279e-07
5.96682e-06
6.2716e-06
-1.16534e-07
6.27153e-06
1.18857e-07
6.29137e-06
2.05218e-07
6.27965e-06
-6.8861e-08
6.27399e-06
1.69931e-08
6.27773e-06
1.21816e-07
6.27344e-06
2.433e-08
6.28283e-06
1.24565e-07
6.27989e-06
5.61442e-08
6.27817e-06
-1.90553e-08
6.27231e-06
1.81716e-08
6.26165e-06
1.10492e-09
6.25947e-06
-3.27775e-09
6.2573e-06
4.15098e-08
6.25092e-06
5.98451e-08
6.24832e-06
5.91058e-08
6.24999e-06
7.55575e-08
6.25042e-06
9.69973e-08
6.25073e-06
1.03216e-07
1.04837e-07
6.25317e-06
6.5718e-06
-1.12866e-07
6.57169e-06
1.18967e-07
6.59004e-06
1.86867e-07
6.58129e-06
-6.01098e-08
6.57368e-06
2.46057e-08
6.57822e-06
1.1727e-07
6.57424e-06
2.83145e-08
6.58171e-06
1.17092e-07
6.57939e-06
5.8467e-08
6.5773e-06
-1.69693e-08
6.57192e-06
2.35558e-08
6.561e-06
1.20276e-08
6.55809e-06
-3.74599e-10
6.55718e-06
4.24254e-08
6.55128e-06
6.57431e-08
6.54774e-06
6.26466e-08
6.54953e-06
7.37694e-08
6.55106e-06
9.54647e-08
6.5514e-06
1.02873e-07
1.02807e-07
6.55343e-06
6.88626e-06
-1.09339e-07
6.88631e-06
1.18923e-07
6.90276e-06
1.70415e-07
6.89712e-06
-5.4473e-08
6.88813e-06
3.36021e-08
6.89251e-06
1.12883e-07
6.88959e-06
3.12414e-08
6.89514e-06
1.11542e-07
6.8928e-06
6.0801e-08
6.89071e-06
-1.48747e-08
6.88604e-06
2.82287e-08
6.87485e-06
2.32088e-08
6.87098e-06
3.50012e-09
6.87124e-06
4.21603e-08
6.8663e-06
7.06889e-08
6.8619e-06
6.70442e-08
6.86333e-06
7.2342e-08
6.86588e-06
9.29103e-08
6.86662e-06
1.02137e-07
1.01101e-07
6.86832e-06
7.21565e-06
-1.05856e-07
7.21604e-06
1.18532e-07
7.23029e-06
1.56166e-07
7.22765e-06
-5.18272e-08
7.2182e-06
4.30458e-08
7.22135e-06
1.09735e-07
7.21991e-06
3.26871e-08
7.22399e-06
1.07462e-07
7.22092e-06
6.38713e-08
7.21894e-06
-1.29021e-08
7.21538e-06
3.17882e-08
7.20409e-06
3.44985e-08
7.19892e-06
8.67511e-09
7.20008e-06
4.1002e-08
7.19653e-06
7.42315e-08
7.19158e-06
7.19983e-08
7.19223e-06
7.16947e-08
7.19553e-06
8.96102e-08
7.19693e-06
1.00731e-07
9.95305e-08
7.1985e-06
7.56068e-06
-1.02308e-07
7.56163e-06
1.17582e-07
7.57346e-06
1.4433e-07
7.57343e-06
-5.17967e-08
7.56467e-06
5.18081e-08
7.56563e-06
1.08773e-07
7.5657e-06
3.26241e-08
7.56906e-06
1.04099e-07
7.56477e-06
6.81614e-08
7.5625e-06
-1.06341e-08
7.56051e-06
3.37808e-08
7.54957e-06
4.54378e-08
7.54282e-06
1.54243e-08
7.54435e-06
3.94767e-08
7.54254e-06
7.60344e-08
7.5375e-06
7.70452e-08
7.53709e-06
7.21002e-08
7.54075e-06
8.59491e-08
7.54296e-06
9.85262e-08
9.79083e-08
7.54458e-06
7.92207e-06
-9.85714e-08
7.92385e-06
1.15802e-07
7.93314e-06
1.3504e-07
7.93514e-06
-5.37902e-08
7.92816e-06
5.87884e-08
7.92637e-06
1.10566e-07
7.92756e-06
3.14263e-08
7.93104e-06
1.00622e-07
7.92533e-06
7.38682e-08
7.92211e-06
-7.40682e-09
7.92187e-06
3.40183e-08
7.91198e-06
5.5328e-08
7.90369e-06
2.37135e-08
7.90487e-06
3.82979e-08
7.90486e-06
7.60383e-08
7.90034e-06
8.15681e-08
7.89882e-06
7.36202e-08
7.90238e-06
8.23857e-08
7.90541e-06
9.55041e-08
9.61265e-08
7.90719e-06
8.30063e-06
-9.45164e-08
8.30353e-06
1.129e-07
8.31026e-06
1.28304e-07
8.31348e-06
-5.7006e-08
8.30921e-06
6.30564e-08
8.30463e-06
1.15143e-07
8.30608e-06
2.99852e-08
8.31052e-06
9.61784e-08
8.30364e-06
8.07484e-08
8.29863e-06
-2.39474e-09
8.29998e-06
3.26655e-08
8.29192e-06
6.3386e-08
8.2825e-06
3.31382e-08
8.28262e-06
3.81765e-08
8.28414e-06
7.45144e-08
8.28073e-06
8.49829e-08
8.27832e-06
7.60252e-08
8.28129e-06
7.94168e-08
8.28505e-06
9.17432e-08
9.40885e-08
8.28709e-06
8.69716e-06
-9.00145e-08
8.70149e-06
1.0857e-07
8.70573e-06
1.24064e-07
8.70926e-06
-6.05364e-08
8.70836e-06
6.39524e-08
8.7016e-06
1.21912e-07
8.70198e-06
2.96056e-08
8.70799e-06
9.01679e-08
8.70076e-06
8.79782e-08
8.69325e-06
5.11661e-09
8.69556e-06
3.03513e-08
8.68994e-06
6.90034e-08
8.68005e-06
4.3026e-08
8.67869e-06
3.95402e-08
8.68117e-06
7.20355e-08
8.67926e-06
8.68941e-08
8.67646e-06
7.88204e-08
8.67843e-06
7.7449e-08
8.6827e-06
8.74724e-08
9.16537e-08
8.68514e-06
9.11256e-06
-8.49555e-08
9.11854e-06
1.02586e-07
9.12051e-06
1.22102e-07
9.12337e-06
-6.33995e-08
9.12616e-06
6.11623e-08
9.1183e-06
1.29772e-07
9.11638e-06
3.15248e-08
9.12394e-06
8.26049e-08
9.11743e-06
9.44873e-08
9.10745e-06
1.51017e-08
9.10953e-06
2.82718e-08
9.10661e-06
7.19183e-08
9.09708e-06
5.2561e-08
9.09419e-06
4.24299e-08
9.0969e-06
6.93255e-08
9.09658e-06
8.72104e-08
9.094e-06
8.14002e-08
9.09485e-06
7.65975e-08
9.09919e-06
8.31406e-08
8.86238e-08
9.10222e-06
9.54776e-06
-7.92586e-08
9.5555e-06
9.48499e-08
9.55557e-06
1.2203e-07
9.55684e-06
-6.46703e-08
9.56319e-06
5.4818e-08
9.55569e-06
1.37267e-07
9.55054e-06
3.66721e-08
9.55904e-06
7.41091e-08
9.55436e-06
9.91666e-08
9.54249e-06
2.69697e-08
9.54304e-06
2.77273e-08
9.54263e-06
7.23264e-08
9.53428e-06
6.09063e-08
9.53009e-06
4.66277e-08
9.53245e-06
6.69602e-08
9.53347e-06
8.61903e-08
9.53163e-06
8.3238e-08
9.53164e-06
7.65908e-08
9.53545e-06
7.93273e-08
8.48964e-08
9.53918e-06
1.00038e-05
-7.28911e-08
1.00132e-05
8.54419e-08
1.00119e-05
1.23277e-07
1.00108e-05
-6.35528e-08
1.00202e-05
4.54e-08
1.00146e-05
1.42888e-07
1.00059e-05
4.53408e-08
1.00142e-05
6.5826e-08
1.00121e-05
1.01303e-07
9.99932e-06
3.9741e-08
9.99763e-06
2.94086e-08
9.99893e-06
7.10309e-08
9.99234e-06
6.75013e-08
9.98732e-06
5.16472e-08
9.98898e-06
6.52929e-08
9.99089e-06
8.42811e-08
9.99004e-06
8.40875e-08
9.98972e-06
7.6916e-08
9.99267e-06
7.63731e-08
8.07059e-08
9.99686e-06
1.04816e-05
-6.58868e-08
1.04924e-05
7.46549e-08
1.04906e-05
1.25074e-07
1.04865e-05
-5.94435e-08
1.04982e-05
3.36858e-08
1.04956e-05
1.45498e-07
1.0484e-05
5.69409e-08
1.04906e-05
5.92e-08
1.04913e-05
1.00635e-07
1.04788e-05
5.22285e-08
1.04747e-05
3.352e-08
1.04767e-05
6.90875e-08
1.0472e-05
7.21597e-08
1.04668e-05
5.68564e-08
1.04676e-05
6.45256e-08
1.047e-05
8.18487e-08
1.04701e-05
8.39797e-08
1.04699e-05
7.71069e-08
1.04721e-05
7.41804e-08
7.65818e-08
1.04762e-05
1.09825e-05
-5.83474e-08
1.09942e-05
6.29366e-08
1.09927e-05
1.26616e-07
1.09853e-05
-5.20941e-08
1.09982e-05
2.07648e-08
1.09994e-05
1.44366e-07
1.09859e-05
7.03627e-08
1.09897e-05
5.54255e-08
1.09929e-05
9.74415e-08
1.09818e-05
6.33336e-08
1.09755e-05
3.98022e-08
1.09772e-05
6.74388e-08
1.09743e-05
7.50719e-08
1.09694e-05
6.17011e-08
1.09693e-05
6.46449e-08
1.09719e-05
7.92421e-08
1.09728e-05
8.30379e-08
1.0973e-05
7.69148e-08
1.09748e-05
7.2453e-08
7.28519e-08
1.09785e-05
1.15075e-05
-5.04342e-08
1.15196e-05
5.0833e-08
1.1519e-05
1.27147e-07
1.15086e-05
-4.16641e-08
1.15214e-05
7.93021e-09
1.15265e-05
1.39275e-07
1.15127e-05
8.42222e-08
1.15131e-05
5.50194e-08
1.15179e-05
9.26357e-08
1.15089e-05
7.23378e-08
1.15013e-05
4.74182e-08
1.15018e-05
6.6857e-08
1.15003e-05
7.66064e-08
1.14961e-05
6.5915e-08
1.14953e-05
6.53796e-08
1.14978e-05
7.68261e-08
1.14994e-05
8.13907e-08
1.15e-05
7.62961e-08
1.15016e-05
7.08806e-08
6.96182e-08
1.15048e-05
1.20578e-05
-4.23665e-08
1.20696e-05
3.8977e-08
1.20707e-05
1.26009e-07
1.20578e-05
-2.86891e-08
1.20691e-05
-3.3701e-09
1.20779e-05
1.30443e-07
1.20652e-05
9.69523e-08
1.20622e-05
5.7964e-08
1.20674e-05
8.74814e-08
1.2061e-05
7.8764e-08
1.20528e-05
5.5616e-08
1.20521e-05
6.74846e-08
1.20513e-05
7.73889e-08
1.2048e-05
6.93087e-08
1.20468e-05
6.64891e-08
1.20489e-05
7.47878e-08
1.2051e-05
7.92929e-08
1.20521e-05
7.52139e-08
1.20536e-05
6.93224e-08
6.67206e-08
1.20565e-05
1.26346e-05
-3.43938e-08
1.26456e-05
2.79975e-08
1.26489e-05
1.22742e-07
1.26342e-05
-1.39735e-08
1.26426e-05
-1.17857e-08
1.26546e-05
1.18431e-07
1.26444e-05
1.07135e-07
1.26385e-05
6.38627e-08
1.26429e-05
8.30371e-08
1.26391e-05
8.26416e-08
1.26311e-05
6.35802e-08
1.26294e-05
6.92295e-08
1.26289e-05
7.78861e-08
1.26263e-05
7.19115e-08
1.26249e-05
6.77944e-08
1.26266e-05
7.31414e-08
1.26288e-05
7.70434e-08
1.26303e-05
7.37101e-08
1.2632e-05
6.76635e-08
6.40018e-08
1.26347e-05
1.32393e-05
-2.67674e-08
1.32489e-05
1.84351e-08
1.32544e-05
1.17168e-07
1.32389e-05
1.52932e-09
1.32435e-05
-1.63777e-08
1.32579e-05
1.04108e-07
1.32511e-05
1.13872e-07
1.32432e-05
7.17329e-08
1.32462e-05
8.00864e-08
1.32443e-05
8.45014e-08
1.32374e-05
7.05701e-08
1.32347e-05
7.19141e-08
1.32343e-05
7.82988e-08
1.32323e-05
7.39002e-08
1.3231e-05
6.90384e-08
1.32322e-05
7.19689e-08
1.32345e-05
7.47369e-08
1.32363e-05
7.19157e-08
1.32381e-05
6.58624e-08
6.13663e-08
1.32407e-05
1.38731e-05
-1.97113e-08
1.38809e-05
1.06901e-08
1.38885e-05
1.09489e-07
1.38734e-05
1.66753e-08
1.38738e-05
-1.67998e-08
1.38891e-05
8.88254e-08
1.38862e-05
1.16754e-07
1.38776e-05
8.03088e-08
1.38786e-05
7.90979e-08
1.38782e-05
8.49219e-08
1.38726e-05
7.61992e-08
1.38694e-05
7.50937e-08
1.38689e-05
7.87942e-08
1.38675e-05
7.53212e-08
1.38663e-05
7.01659e-08
1.38672e-05
7.11381e-08
1.38693e-05
7.2602e-08
1.38714e-05
6.98075e-08
1.38734e-05
6.39192e-08
5.88368e-08
1.38759e-05
1.45374e-05
-1.34046e-08
1.4543e-05
5.00443e-09
1.45524e-05
1.00168e-07
1.45386e-05
3.042e-08
1.45352e-05
-1.33441e-08
1.45499e-05
7.40804e-08
1.45508e-05
1.15819e-07
1.45427e-05
8.84221e-08
1.45419e-05
7.99181e-08
1.45422e-05
8.46621e-08
1.4538e-05
8.03527e-08
1.45348e-05
7.83089e-08
1.45342e-05
7.9441e-08
1.45333e-05
7.61711e-08
1.45324e-05
7.10938e-08
1.4533e-05
7.05046e-08
1.45348e-05
7.07894e-08
1.4537e-05
6.76005e-08
1.45392e-05
6.17452e-08
5.64454e-08
1.45416e-05
1.52334e-05
-7.96214e-09
1.5237e-05
1.45788e-09
1.52473e-05
8.98436e-08
1.52358e-05
4.18972e-08
1.52292e-05
-6.75482e-09
1.52421e-05
6.12295e-08
1.52463e-05
1.11593e-07
1.52396e-05
9.51439e-08
1.52375e-05
8.20129e-08
1.52379e-05
8.42937e-08
1.52351e-05
8.31577e-08
1.52321e-05
8.12286e-08
1.52315e-05
8.0096e-08
1.52311e-05
7.65642e-08
1.52306e-05
7.15514e-08
1.52311e-05
7.00459e-08
1.52327e-05
6.91865e-08
1.52347e-05
6.56437e-08
1.5237e-05
5.94028e-08
5.40999e-08
1.52393e-05
1.59628e-05
-3.42424e-09
1.59643e-05
-9.39773e-11
1.5975e-05
7.92358e-08
1.59662e-05
5.06757e-08
1.59575e-05
1.90161e-09
1.59676e-05
5.11268e-08
1.59742e-05
1.0505e-07
1.59695e-05
9.98036e-08
1.59667e-05
8.48072e-08
1.5967e-05
8.40294e-08
1.59653e-05
8.48529e-08
1.59628e-05
8.36904e-08
1.59622e-05
8.06648e-08
1.59623e-05
7.64826e-08
1.59625e-05
7.14015e-08
1.59631e-05
6.94167e-08
1.59645e-05
6.78408e-08
1.59661e-05
6.39519e-08
1.59683e-05
5.72729e-08
5.1683e-08
1.59707e-05
1.67269e-05
2.41575e-10
1.67268e-05
4.75686e-11
1.6737e-05
6.90149e-08
1.67309e-05
5.67425e-08
1.67215e-05
1.13968e-08
1.67284e-05
4.42197e-08
1.67361e-05
9.73124e-08
1.67339e-05
1.02047e-07
1.6731e-05
8.76935e-08
1.67311e-05
8.39236e-08
1.67303e-05
8.56138e-08
1.67284e-05
8.56069e-08
1.67279e-05
8.12025e-08
1.67285e-05
7.58612e-08
1.67292e-05
7.06925e-08
1.67303e-05
6.83003e-08
1.67316e-05
6.65315e-08
1.6733e-05
6.25709e-08
1.67347e-05
5.55736e-08
4.93846e-08
1.6737e-05
1.75275e-05
3.11591e-09
1.75261e-05
1.42698e-09
1.75353e-05
5.98122e-08
1.75317e-05
6.03302e-08
1.75224e-05
2.07496e-08
1.75262e-05
4.03894e-08
1.75342e-05
8.93007e-08
1.75342e-05
1.02093e-07
1.75318e-05
9.00973e-08
1.75317e-05
8.3941e-08
1.75318e-05
8.55434e-08
1.75305e-05
8.68856e-08
1.75299e-05
8.18057e-08
1.75309e-05
7.4917e-08
1.75322e-05
6.93489e-08
1.75338e-05
6.671e-08
1.75354e-05
6.4898e-08
1.75366e-05
6.14292e-08
1.75377e-05
5.44089e-08
4.75137e-08
1.75396e-05
1.83662e-05
5.30868e-09
1.8364e-05
3.61437e-09
1.83718e-05
5.20157e-08
1.83702e-05
6.18573e-08
1.83617e-05
2.92761e-08
1.8363e-05
3.90998e-08
1.83705e-05
8.18356e-08
1.83722e-05
1.00393e-07
1.83707e-05
9.16044e-08
1.83707e-05
8.39215e-08
1.83715e-05
8.47182e-08
1.83709e-05
8.74473e-08
1.83703e-05
8.24803e-08
1.83711e-05
7.40651e-08
1.8373e-05
6.74212e-08
1.8375e-05
6.47573e-08
1.8377e-05
6.2902e-08
1.83783e-05
6.00786e-08
1.83789e-05
5.38226e-08
4.61047e-08
1.83803e-05
1.92448e-05
6.91952e-09
1.92421e-05
6.30323e-09
1.92484e-05
4.57121e-08
1.92484e-05
6.18462e-08
1.9241e-05
3.66871e-08
1.92406e-05
3.95197e-08
1.9247e-05
7.54204e-08
1.92499e-05
9.74583e-08
1.92493e-05
9.22163e-08
1.92496e-05
8.36668e-08
1.9251e-05