/*--------------------------------*- C++ -*----------------------------------*\
| =========                 |                                                 |
| \\      /  F ield         | OpenFOAM: The Open Source CFD Toolbox           |
|  \\    /   O peration     | Version:  v1906                                 |
|   \\  /    A nd           | Web:      www.OpenFOAM.com                      |
|    \\/     M anipulation  |                                                 |
\*---------------------------------------------------------------------------*/
FoamFile
{
    version     2.0;
    format      ascii;
    class       volVectorField;
    location    "0.6";
    object      U;
}
// * * * * * * * * * * * * * * * * * * * * * * * * * * * * * * * * * * * * * //

dimensions      [0 1 -1 0 0 0 0];


internalField   nonuniform List<vector> 
9600
(
(0.855371 -0.00242436 0)
(1.15235 0.00408904 0)
(0.903914 0.00550837 0)
(1.09871 -0.00879329 0)
(0.825986 0.0027811 0)
(1.17948 0.00271711 0)
(0.820988 -0.0014187 0)
(1.13646 0.0071622 0)
(0.86414 -0.00109488 0)
(1.10146 -0.000149341 0)
(0.856361 -0.00845696 0)
(1.10302 0.00240629 0)
(0.881001 -0.00371286 0)
(1.11895 0.00205474 0)
(0.880303 -0.00414353 0)
(1.12016 -0.000709404 0)
(0.86608 -0.00239297 0)
(1.11956 -4.42183e-05 0)
(0.852064 0.00293542 0)
(1.11755 0.00312055 0)
(0.865554 -0.00256065 0)
(1.14288 0.00386845 0)
(0.915226 0.00577483 0)
(1.08745 -0.00788916 0)
(0.839088 0.00181756 0)
(1.16168 0.00306405 0)
(0.843807 -0.0011618 0)
(1.11576 0.00691048 0)
(0.892564 -0.000827347 0)
(1.07923 0.000178678 0)
(0.890377 -0.00865172 0)
(1.07561 0.00217426 0)
(0.921098 -0.00415642 0)
(1.0816 0.00214988 0)
(0.934785 -0.0041912 0)
(1.06771 -0.000244882 0)
(0.939521 -0.00216086 0)
(1.042 0.000136334 0)
(0.954704 0.00417255 0)
(1.00045 0.00219087 0)
(0.884998 -0.00269819 0)
(1.12261 0.00365834 0)
(0.934807 0.0061077 0)
(1.06924 -0.00714478 0)
(0.866205 0.000925031 0)
(1.12963 0.00319294 0)
(0.883797 -0.000886849 0)
(1.07941 0.00652825 0)
(0.930784 -0.000497351 0)
(1.04659 0.000286189 0)
(0.932078 -0.00866249 0)
(1.03682 0.00171611 0)
(0.962183 -0.00423257 0)
(1.03822 0.00185744 0)
(0.978765 -0.00374899 0)
(1.02248 -0.000579299 0)
(0.98204 -0.00146167 0)
(1.00093 -0.000355186 0)
(0.985574 0.00489442 0)
(0.983708 0.00286563 0)
(0.91061 -0.0027962 0)
(1.0945 0.00343648 0)
(0.956919 0.0064057 0)
(1.048 -0.00653523 0)
(0.901227 0.000312239 0)
(1.09171 0.00310299 0)
(0.927263 -0.000466851 0)
(1.04176 0.00613298 0)
(0.962662 -0.000194786 0)
(1.01869 0.00027732 0)
(0.962433 -0.00848863 0)
(1.00724 0.00124307 0)
(0.98368 -0.0042114 0)
(1.0112 0.00146551 0)
(0.994648 -0.0034185 0)
(1.00255 -0.000685863 0)
(0.991232 -0.000896625 0)
(0.990134 -0.000434146 0)
(0.986297 0.00535786 0)
(0.984381 0.00367096 0)
(0.937668 -0.00285764 0)
(1.06424 0.00319246 0)
(0.976287 0.00667326 0)
(1.02847 -0.00604694 0)
(0.935589 -9.68947e-05 0)
(1.05711 0.00289536 0)
(0.962076 4.43738e-06 0)
(1.01451 0.0058254 0)
(0.982058 3.49161e-05 0)
(1.00268 0.000267105 0)
(0.978713 -0.00826615 0)
(0.992876 0.000869202 0)
(0.990643 -0.00421628 0)
(0.999457 0.00113141 0)
(0.996772 -0.00313797 0)
(0.996181 -0.000720204 0)
(0.99118 -0.00047016 0)
(0.987528 -0.000385168 0)
(0.984649 0.00570534 0)
(0.983662 0.00423041 0)
(0.961612 -0.00288596 0)
(1.0376 0.00297512 0)
(0.989903 0.00688968 0)
(1.01396 -0.0057019 0)
(0.963033 -0.000361309 0)
(1.0317 0.00266053 0)
(0.983857 0.00042215 0)
(1.00048 0.00565799 0)
(0.991453 0.000176806 0)
(0.996579 0.000265589 0)
(0.986507 -0.00804669 0)
(0.989069 0.000602891 0)
(0.99263 -0.00420907 0)
(0.995418 0.000860824 0)
(0.995854 -0.00289621 0)
(0.99417 -0.000769156 0)
(0.990692 -7.7886e-05 0)
(0.987178 -0.000295766 0)
(0.984557 0.00589883 0)
(0.984074 0.00476428 0)
(0.979624 -0.00288754 0)
(1.01811 0.00281382 0)
(0.997562 0.00703448 0)
(1.00519 -0.00548826 0)
(0.981561 -0.000517403 0)
(1.01634 0.00246708 0)
(0.994747 0.000738977 0)
(0.995858 0.00559732 0)
(0.995754 0.000261116 0)
(0.995717 0.000256939 0)
(0.990716 -0.00783425 0)
(0.990065 0.000396295 0)
(0.994054 -0.00415497 0)
(0.994464 0.000624932 0)
(0.994956 -0.00266868 0)
(0.993328 -0.00083693 0)
(0.990611 0.00026818 0)
(0.987823 -0.00017733 0)
(0.985571 0.00598186 0)
(0.985782 0.00531519 0)
(0.991152 -0.0028735 0)
(1.00616 0.00271087 0)
(1.00097 0.00710992 0)
(1.00096 -0.0053721 0)
(0.992385 -0.000607406 0)
(1.00854 0.00233501 0)
(0.999108 0.000962257 0)
(0.995727 0.00558124 0)
(0.998241 0.000325737 0)
(0.996875 0.000233869 0)
(0.993518 -0.00763006 0)
(0.992428 0.000207994 0)
(0.995638 -0.00404428 0)
(0.994637 0.00042372 0)
(0.994464 -0.00242411 0)
(0.992812 -0.000915147 0)
(0.990668 0.000551656 0)
(0.988659 -4.66553e-05 0)
(0.98701 0.00597065 0)
(0.987824 0.00584781 0)
(0.997341 -0.00285271 0)
(0.999979 0.00265247 0)
(1.00221 0.00713465 0)
(0.999532 -0.00531781 0)
(0.997844 -0.00066353 0)
(1.00506 0.00225542 0)
(1.00046 0.00111938 0)
(0.996966 0.00556493 0)
(1.00017 0.000386332 0)
(0.998576 0.000198242 0)
(0.995583 -0.00742893 0)
(0.994637 2.42854e-05 0)
(0.997067 -0.00388139 0)
(0.995137 0.000260081 0)
(0.994333 -0.00215431 0)
(0.99253 -0.000984989 0)
(0.990779 0.000771103 0)
(0.989354 0.000101808 0)
(0.988324 0.00586846 0)
(0.989546 0.0063373 0)
(1 -0.00282785 0)
(0.997217 0.00261746 0)
(1.00272 0.00712842 0)
(0.999597 -0.00529346 0)
(0.999995 -0.000698317 0)
(1.00353 0.0022079 0)
(1.0007 0.00123324 0)
(0.998257 0.0055284 0)
(1.00176 0.000445305 0)
(1.00023 0.000157034 0)
(0.997096 -0.00722031 0)
(0.996202 -0.000155897 0)
(0.998067 -0.00368035 0)
(0.995638 0.00012711 0)
(0.994462 -0.00186662 0)
(0.992551 -0.00103435 0)
(0.990991 0.000929649 0)
(0.989909 0.000289807 0)
(0.989293 0.00569466 0)
(0.990706 0.00676915 0)
(1.00076 -0.00279785 0)
(0.996078 0.00258827 0)
(1.00309 0.00709993 0)
(1.0004 -0.00527396 0)
(1.00026 -0.000714586 0)
(1.00268 0.00217176 0)
(1.00058 0.00131809 0)
(0.999194 0.00546702 0)
(1.00299 0.000500069 0)
(1.0016 0.000116209 0)
(0.998144 -0.00699476 0)
(0.997103 -0.000330609 0)
(0.998586 -0.00345652 0)
(0.996016 1.4479e-05 0)
(0.994736 -0.0015776 0)
(0.992859 -0.00105525 0)
(0.991338 0.00104033 0)
(0.990402 0.000517002 0)
(0.989958 0.00548185 0)
(0.991356 0.00713333 0)
(1.00071 -0.00276087 0)
(0.995577 0.00255427 0)
(1.00344 0.00705137 0)
(1.00148 -0.00524271 0)
(0.999593 -0.000711563 0)
(1.00201 0.00213268 0)
(1.00034 0.00138173 0)
(0.999727 0.00538301 0)
(1.00385 0.000548272 0)
(1.00261 7.76245e-05 0)
(0.998821 -0.00674702 0)
(0.997503 -0.00049499 0)
(0.998729 -0.00322415 0)
(0.996253 -8.94909e-05 0)
(0.995051 -0.00130542 0)
(0.993342 -0.00103958 0)
(0.991794 0.00111838 0)
(0.990877 0.000779733 0)
(0.990444 0.00527009 0)
(0.991681 0.00742401 0)
(1.00042 -0.0027161 0)
(0.995308 0.00251142 0)
(1.00374 0.00698346 0)
(1.00256 -0.00519202 0)
(0.99861 -0.000687701 0)
(1.00137 0.00208392 0)
(1.00008 0.00142859 0)
(0.999947 0.00528107 0)
(1.0044 0.000587524 0)
(1.00328 4.23492e-05 0)
(0.999228 -0.00647764 0)
(0.997605 -0.000645627 0)
(0.998654 -0.00299498 0)
(0.996382 -0.000191583 0)
(0.995339 -0.00106215 0)
(0.99387 -0.000989548 0)
(0.992294 0.00117355 0)
(0.991341 0.00107024 0)
(0.99086 0.00509397 0)
(0.991871 0.00763842 0)
(1.00013 -0.0026639 0)
(0.99514 0.00245957 0)
(1.00396 0.00689739 0)
(1.00345 -0.00512032 0)
(0.9977 -0.000643861 0)
(1.00079 0.00202455 0)
(0.999853 0.001461 0)
(0.999987 0.00516634 0)
(1.00471 0.000616652 0)
(1.00368 1.26543e-05 0)
(0.99946 -0.00619178 0)
(0.997581 -0.000779769 0)
(0.9985 -0.00277553 0)
(0.996449 -0.000288108 0)
(0.995567 -0.000851176 0)
(0.994348 -0.000914015 0)
(0.992772 0.00121385 0)
(0.991778 0.00137045 0)
(0.991262 0.0049713 0)
(0.992051 0.00777835 0)
(0.999917 -0.00260527 0)
(0.995038 0.00240002 0)
(1.0041 0.00679557 0)
(1.0041 -0.00502963 0)
(0.997035 -0.000582988 0)
(1.00029 0.00195726 0)
(0.999681 0.00147988 0)
(0.999953 0.00504335 0)
(1.00488 0.000635426 0)
(1.00388 -1.0369e-05 0)
(0.999586 -0.00589461 0)
(0.997534 -0.000896506 0)
(0.998349 -0.00256863 0)
(0.996491 -0.000374034 0)
(0.995728 -0.000672697 0)
(0.994734 -0.000814567 0)
(0.993186 0.00125499 0)
(0.992172 0.00166327 0)
(0.991661 0.00490324 0)
(0.992271 0.00785224 0)
(0.999784 -0.00254141 0)
(0.994991 0.00233437 0)
(1.00417 0.00668087 0)
(1.00451 -0.00492322 0)
(0.996635 -0.000509595 0)
(0.999905 0.00188669 0)
(0.999568 0.00148552 0)
(0.999902 0.00491695 0)
(1.00495 0.000643565 0)
(1.00395 -2.48976e-05 0)
(0.999653 -0.0055926 0)
(0.997512 -0.000994506 0)
(0.998235 -0.00237579 0)
(0.996526 -0.000448226 0)
(0.995831 -0.000519908 0)
(0.995022 -0.00069735 0)
(0.993522 0.00130572 0)
(0.992513 0.00194231 0)
(0.99205 0.00488118 0)
(0.992532 0.00787365 0)
(0.999716 -0.00247358 0)
(0.994995 0.00226444 0)
(1.00417 0.00655578 0)
(1.00473 -0.00480464 0)
(0.996446 -0.00042766 0)
(0.999643 0.00181632 0)
(0.999507 0.00147826 0)
(0.999847 0.00479062 0)
(1.00495 0.000641018 0)
(1.00392 -2.90935e-05 0)
(0.999684 -0.0052911 0)
(0.997525 -0.00107308 0)
(0.998163 -0.00219828 0)
(0.996564 -0.000509071 0)
(0.995891 -0.000384755 0)
(0.995232 -0.000573604 0)
(0.99379 0.00136834 0)
(0.992804 0.00220764 0)
(0.99242 0.00488773 0)
(0.992818 0.00785089 0)
(0.999691 -0.00240294 0)
(0.995043 0.00219194 0)
(1.00412 0.00642235 0)
(1.00482 -0.00467663 0)
(0.996399 -0.000341782 0)
(0.999486 0.00174915 0)
(0.99949 0.00145861 0)
(0.999793 0.00466807 0)
(1.00489 0.000627692 0)
(1.00384 -2.42743e-05 0)
(0.999692 -0.00499129 0)
(0.99757 -0.00113506 0)
(0.998127 -0.00203114 0)
(0.99661 -0.000557753 0)
(0.995927 -0.000258916 0)
(0.995389 -0.000448676 0)
(0.994013 0.00144394 0)
(0.993059 0.00246027 0)
(0.992771 0.00490324 0)
(0.993122 0.00778779 0)
(0.999691 -0.00233033 0)
(0.995129 0.00211799 0)
(1.00403 0.00628218 0)
(1.00481 -0.00454104 0)
(0.996435 -0.000255739 0)
(0.999408 0.00168942 0)
(0.999507 0.00142601 0)
(0.99974 0.00455329 0)
(1.00479 0.000603811 0)
(1.00371 -1.14126e-05 0)
(0.999684 -0.00469602 0)
(0.997638 -0.0011837 0)
(0.998119 -0.00187055 0)
(0.996668 -0.000599488 0)
(0.995954 -0.000133468 0)
(0.995516 -0.000321732 0)
(0.994214 0.00152472 0)
(0.993294 0.00270578 0)
(0.993108 0.00492377 0)
(0.99344 0.00769354 0)
(0.999706 -0.00225654 0)
(0.995241 0.00204368 0)
(1.00392 0.00613593 0)
(1.00475 -0.00439857 0)
(0.996516 -0.000173718 0)
(0.999382 0.00163956 0)
(0.999547 0.00138028 0)
(0.99969 0.00444794 0)
(1.00468 0.000569585 0)
(1.00356 1.00731e-05 0)
(0.999663 -0.00440772 0)
(0.997722 -0.00122081 0)
(0.998131 -0.00171157 0)
(0.996736 -0.0006369 0)
(0.995983 -8.60066e-06 0)
(0.995629 -0.000185673 0)
(0.994412 0.0015988 0)
(0.993522 0.0029469 0)
(0.993437 0.00495706 0)
(0.993773 0.00757692 0)
(0.999726 -0.00218222 0)
(0.99537 0.00196975 0)
(1.00381 0.00598395 0)
(1.00466 -0.00424958 0)
(0.996619 -9.65952e-05 0)
(0.999384 0.00160001 0)
(0.999604 0.00132176 0)
(0.999644 0.0043533 0)
(1.00455 0.000527449 0)
(1.0034 3.76392e-05 0)
(0.999633 -0.00412211 0)
(0.997815 -0.00125342 0)
(0.998156 -0.00154623 0)
(0.996815 -0.000674003 0)
(0.99602 0.00011811 0)
(0.995737 -4.03461e-05 0)
(0.994617 0.00165466 0)
(0.993755 0.00317386 0)
(0.993759 0.00500578 0)
(0.994116 0.0074418 0)
(0.999749 -0.00210749 0)
(0.99551 0.00189614 0)
(1.00369 0.00582674 0)
(1.00455 -0.00409347 0)
(0.996731 -2.58621e-05 0)
(0.999399 0.00157234 0)
(0.999669 0.00124941 0)
(0.999603 0.00427098 0)
(1.00442 0.000478678 0)
(1.00324 6.82031e-05 0)
(0.999595 -0.00383385 0)
(0.997914 -0.00128848 0)
(0.998188 -0.00137215 0)
(0.996901 -0.000706864 0)
(0.996069 0.000241272 0)
(0.995842 0.000124003 0)
(0.994834 0.00169872 0)
(0.993998 0.00337649 0)
(0.994074 0.00507081 0)
(0.994466 0.00729159 0)
(0.999773 -0.00203304 0)
(0.995655 0.00182408 0)
(1.00357 0.00566337 0)
(1.00443 -0.00392903 0)
(0.996849 3.40255e-05 0)
(0.999416 0.00155849 0)
(0.999739 0.0011634 0)
(0.999565 0.00419815 0)
(1.00429 0.000426906 0)
(1.00309 9.58775e-05 0)
(0.999552 -0.00353918 0)
(0.998016 -0.00133028 0)
(0.998225 -0.00118954 0)
(0.996991 -0.000726108 0)
(0.996133 0.0003495 0)
(0.995947 0.000321627 0)
(0.995062 0.00174455 0)
(0.994256 0.00354303 0)
(0.994382 0.00515412 0)
(0.994814 0.00713525 0)
(0.999797 -0.00195905 0)
(0.995803 0.00175375 0)
(1.00345 0.00549331 0)
(1.00432 -0.00375648 0)
(0.996969 8.40634e-05 0)
(0.999432 0.00155899 0)
(0.999811 0.00106405 0)
(0.999531 0.00413181 0)
(1.00415 0.000376751 0)
(1.00294 0.000113071 0)
(0.999503 -0.00323263 0)
(0.99812 -0.00138053 0)
(0.998267 -0.00100303 0)
(0.997083 -0.00072798 0)
(0.996213 0.000434647 0)
(0.996054 0.00054837 0)
(0.995298 0.00180369 0)
(0.994529 0.0036629 0)
(0.994683 0.00525067 0)
(0.995155 0.00698893 0)
(0.99982 -0.00188567 0)
(0.995955 0.00168547 0)
(1.00332 0.00531564 0)
(1.0042 -0.0035749 0)
(0.997091 0.000123594 0)
(0.999445 0.00157225 0)
(0.999884 0.000957012 0)
(0.999499 0.00406957 0)
(1.00402 0.000330102 0)
(1.00281 0.000120001 0)
(0.999449 -0.00290614 0)
(0.998225 -0.00143822 0)
(0.998315 -0.00082179 0)
(0.997175 -0.000701935 0)
(0.996311 0.000490659 0)
(0.996165 0.000786334 0)
(0.995536 0.00188388 0)
(0.994818 0.00373283 0)
(0.994979 0.0053437 0)
(0.995481 0.00686766 0)
(0.999844 -0.00181335 0)
(0.996109 0.00162039 0)
(1.0032 0.00512972 0)
(1.00408 -0.00338291 0)
(0.997216 0.000151021 0)
(0.999455 0.00159975 0)
(0.999958 0.000840802 0)
(0.999469 0.00400927 0)
(1.00388 0.000299931 0)
(1.00268 0.00011011 0)
(0.99939 -0.00255971 0)
(0.99833 -0.00149769 0)
(0.998371 -0.000653168 0)
(0.997266 -0.000634575 0)
(0.996427 0.00052211 0)
(0.996285 0.00101925 0)
(0.995772 0.00199129 0)
(0.995121 0.00376027 0)
(0.995277 0.00541135 0)
(0.995791 0.00678456 0)
(0.999868 -0.00174248 0)
(0.996264 0.00155935 0)
(1.00308 0.00493521 0)
(1.00397 -0.00318031 0)
(0.997344 0.000165611 0)
(0.999462 0.00163983 0)
(1.00003 0.000718345 0)
(0.999442 0.00394665 0)
(1.00374 0.000286776 0)
(1.00257 7.59755e-05 0)
(0.999328 -0.00220184 0)
(0.998433 -0.00154888 0)
(0.998439 -0.000508555 0)
(0.997355 -0.000520573 0)
(0.996559 0.000542956 0)
(0.996418 0.00123714 0)
(0.996003 0.00213073 0)
(0.995434 0.00376496 0)
(0.995583 0.00543163 0)
(0.996082 0.00674049 0)
(0.999892 -0.00167402 0)
(0.996421 0.00150423 0)
(1.00295 0.00473105 0)
(1.00385 -0.00296775 0)
(0.997473 0.000167789 0)
(0.999467 0.00168862 0)
(1.00011 0.000598969 0)
(0.999419 0.00386997 0)
(1.00359 0.000291093 0)
(1.00247 1.83286e-05 0)
(0.999263 -0.00184011 0)
(0.99853 -0.00158101 0)
(0.998522 -0.000394389 0)
(0.997443 -0.000362023 0)
(0.996705 0.000565221 0)
(0.996568 0.00142802 0)
(0.99623 0.00229358 0)
(0.995749 0.0037654 0)
(0.995901 0.00539245 0)
(0.996364 0.00670453 0)
(0.999917 -0.00160699 0)
(0.996578 0.00145347 0)
(1.00283 0.00451662 0)
(1.00373 -0.00274394 0)
(0.997605 0.000159465 0)
(0.999469 0.00174543 0)
(1.00018 0.000484235 0)
(0.999399 0.00377458 0)
(1.00344 0.000328074 0)
(1.00238 -6.04161e-05 0)
(0.999199 -0.0014868 0)
(0.998621 -0.00157582 0)
(0.998622 -0.000314975 0)
(0.997532 -0.000170054 0)
(0.99686 0.000599878 0)
(0.996738 0.00158322 0)
(0.996454 0.00246744 0)
(0.996059 0.00377537 0)
(0.996232 0.00530459 0)
(0.996647 0.00663517 0)
(0.999941 -0.00154294 0)
(0.996736 0.00140953 0)
(1.00271 0.00429154 0)
(1.00362 -0.00250869 0)
(0.997738 0.000142447 0)
(0.99947 0.00180674 0)
(1.00025 0.000381624 0)
(0.999386 0.00365707 0)
(1.00329 0.000393793 0)
(1.00231 -0.000152746 0)
(0.999139 -0.00115078 0)
(0.998702 -0.00152217 0)
(0.998739 -0.000270707 0)
(0.997626 4.82933e-05 0)
(0.99702 0.000660369 0)
(0.996929 0.00170209 0)
(0.996681 0.00264261 0)
(0.996358 0.0038069 0)
(0.996568 0.00519426 0)
(0.996945 0.00651084 0)
(0.999965 -0.00148229 0)
(0.996893 0.00137358 0)
(1.00259 0.00405602 0)
(1.0035 -0.00226719 0)
(0.997872 0.000120912 0)
(0.99947 0.00186675 0)
(1.00033 0.000298475 0)
(0.999381 0.00351024 0)
(1.00313 0.000484439 0)
(1.00225 -0.00024883 0)
(0.999086 -0.000840322 0)
(0.998772 -0.00142066 0)
(0.998873 -0.000251706 0)
(0.997729 0.000278262 0)
(0.997181 0.000754304 0)
(0.997139 0.00178673 0)
(0.996914 0.00280201 0)
(0.996645 0.00385875 0)
(0.9969 0.00508659 0)
(0.99726 0.00633673 0)
(0.999988 -0.00142433 0)
(0.997049 0.00134384 0)
(1.00248 0.00381037 0)
(1.00338 -0.002022 0)
(0.998007 9.83785e-05 0)
(0.999468 0.0019209 0)
(1.0004 0.000241244 0)
(0.999386 0.0033357 0)
(1.00296 0.000594458 0)
(1.0022 -0.00033813 0)
(0.999044 -0.000565878 0)
(0.99883 -0.00127599 0)
(0.999023 -0.0002495 0)
(0.997845 0.000498317 0)
(0.997339 0.000880241 0)
(0.997364 0.00184112 0)
(0.997159 0.00293286 0)
(0.996921 0.00392192 0)
(0.997222 0.00499736 0)
(0.997589 0.00613922 0)
(1.00001 -0.00136992 0)
(0.997203 0.001322 0)
(1.00237 0.00355715 0)
(1.00326 -0.00177703 0)
(0.99814 8.06963e-05 0)
(0.999466 0.00196031 0)
(1.00046 0.000214725 0)
(0.9994 0.00314322 0)
(1.0028 0.000713029 0)
(1.00216 -0.00040857 0)
(0.999016 -0.000326501 0)
(0.998876 -0.00108982 0)
(0.999186 -0.000247237 0)
(0.997979 0.000704999 0)
(0.997492 0.00103651 0)
(0.9976 0.00187216 0)
(0.99742 0.00303127 0)
(0.997191 0.0039907 0)
(0.997528 0.00492582 0)
(0.997919 0.00594616 0)
(1.00003 -0.00131983 0)
(0.997353 0.00130866 0)
(1.00226 0.00330192 0)
(1.00315 -0.00154009 0)
(0.998273 7.31986e-05 0)
(0.999463 0.00198031 0)
(1.00052 0.000218362 0)
(0.999425 0.00293383 0)
(1.00263 0.000833684 0)
(1.00213 -0.00044956 0)
(0.999005 -0.000119034 0)
(0.998911 -0.000873543 0)
(0.999359 -0.000238398 0)
(0.998132 0.000891303 0)
(0.997638 0.00122168 0)
(0.997841 0.00188979 0)
(0.997699 0.00309026 0)
(0.997458 0.00406399 0)
(0.997819 0.0048648 0)
(0.998242 0.00576911 0)
(1.00005 -0.00127326 0)
(0.9975 0.00130124 0)
(1.00216 0.00304652 0)
(1.00303 -0.00131714 0)
(0.998403 8.40152e-05 0)
(0.999461 0.00197727 0)
(1.00057 0.000252871 0)
(0.99946 0.00271893 0)
(1.00247 0.000936786 0)
(1.0021 -0.000463361 0)
(0.999011 6.0997e-05 0)
(0.998936 -0.000636708 0)
(0.99954 -0.000217715 0)
(0.99831 0.00104814 0)
(0.997777 0.00142925 0)
(0.998079 0.00190812 0)
(0.998 0.00309893 0)
(0.997727 0.00413736 0)
(0.998093 0.00482004 0)
(0.998552 0.00560615 0)
(1.00008 -0.00122995 0)
(0.997641 0.00129858 0)
(1.00205 0.0027929 0)
(1.00292 -0.00111787 0)
(0.99853 0.000121822 0)
(0.999461 0.00194609 0)
(1.00061 0.000310323 0)
(0.9995 0.00251608 0)
(1.00231 0.00101808 0)
(1.00208 -0.000454966 0)
(0.999037 0.000219959 0)
(0.998953 -0.000382807 0)
(0.999723 -0.000180321 0)
(0.998515 0.00117173 0)
(0.997913 0.00165474 0)
(0.998307 0.00194822 0)
(0.998322 0.00305385 0)
(0.998007 0.00418827 0)
(0.998351 0.00480082 0)
(0.998845 0.00545079 0)
(1.0001 -0.00118974 0)
(0.997776 0.00129993 0)
(1.00196 0.00254714 0)
(1.00282 -0.000948516 0)
(0.998652 0.0001904 0)
(0.999462 0.0018915 0)
(1.00065 0.000382704 0)
(0.999545 0.00233479 0)
(1.00216 0.00108075 0)
(1.00207 -0.000424744 0)
(0.999083 0.000366039 0)
(0.998963 -0.000110455 0)
(0.999904 -0.000128284 0)
(0.998748 0.00125448 0)
(0.99805 0.00188713 0)
(0.998513 0.00202801 0)
(0.998658 0.00297194 0)
(0.99831 0.00419143 0)
(0.998594 0.00480742 0)
(0.999115 0.00531289 0)
(1.00011 -0.00115181 0)
(0.997904 0.00130276 0)
(1.00186 0.00231875 0)
(1.00272 -0.000818441 0)
(0.998769 0.000293513 0)
(0.999462 0.00182253 0)
(1.00068 0.00045571 0)
(0.999592 0.00218912 0)
(1.00202 0.00112844 0)
(1.00206 -0.000383766 0)
(0.999152 0.000502899 0)
(0.998967 0.000170401 0)
(1.00008 -5.56139e-05 0)
(0.999009 0.00129513 0)
(0.998197 0.00210744 0)
(0.998693 0.00214951 0)
(0.998997 0.00288093 0)
(0.998642 0.00413604 0)
(0.998834 0.00481879 0)
(0.999358 0.00521221 0)
(1.00013 -0.00111629 0)
(0.998025 0.00130539 0)
(1.00176 0.002112 0)
(1.00263 -0.000728803 0)
(0.998881 0.000421122 0)
(0.99946 0.00175061 0)
(1.00071 0.000512579 0)
(0.999641 0.00208443 0)
(1.00187 0.00116974 0)
(1.00206 -0.00034509 0)
(0.999243 0.000628565 0)
(0.998967 0.000457464 0)
(1.00023 3.37446e-05 0)
(0.999298 0.00129186 0)
(0.998365 0.00229748 0)
(0.998846 0.00230859 0)
(0.999325 0.00280539 0)
(0.999005 0.0040292 0)
(0.999084 0.00480489 0)
(0.999574 0.00514822 0)
(1.00015 -0.00108128 0)
(0.998139 0.00130522 0)
(1.00165 0.00192866 0)
(1.00255 -0.000679283 0)
(0.998988 0.000559774 0)
(0.999452 0.00169021 0)
(1.00074 0.000541597 0)
(0.999691 0.00200576 0)
(1.00173 0.00122406 0)
(1.00206 -0.000309852 0)
(0.999361 0.000727865 0)
(0.998964 0.000753906 0)
(1.00036 0.000151446 0)
(0.999609 0.00124767 0)
(0.998563 0.00243902 0)
(0.998975 0.00249747 0)
(0.999627 0.00276101 0)
(0.99939 0.00388371 0)
(0.999359 0.00474934 0)
(0.999777 0.00509517 0)
(1.00016 -0.00104693 0)
(0.998247 0.0013009 0)
(1.00154 0.00177573 0)
(1.00248 -0.000669936 0)
(0.999093 0.000693427 0)
(0.999436 0.00166007 0)
(1.00077 0.000542221 0)
(0.999746 0.00194282 0)
(1.00159 0.00130064 0)
(1.00207 -0.00027153 0)
(0.999506 0.000789231 0)
(0.998964 0.00105006 0)
(1.00047 0.00031885 0)
(0.999933 0.00118509 0)
(0.998801 0.00251746 0)
(0.99909 0.0026977 0)
(0.999891 0.00276005 0)
(0.999786 0.00371511 0)
(0.999663 0.00465269 0)
(0.999981 0.00502836 0)
(1.00018 -0.00101107 0)
(0.998349 0.0012876 0)
(1.00143 0.00165238 0)
(1.00242 -0.000690349 0)
(0.999199 0.000809181 0)
(0.999408 0.00167265 0)
(1.00079 0.000524429 0)
(0.999809 0.00188367 0)
(1.00145 0.00140611 0)
(1.00207 -0.000215374 0)
(0.999681 0.000801793 0)
(0.998976 0.00132636 0)
(1.00053 0.000538076 0)
(1.00026 0.00113416 0)
(0.999081 0.00253099 0)
(0.999203 0.00288595 0)
(1.00011 0.00281096 0)
(1.00018 0.00354412 0)
(0.999997 0.00451809 0)
(1.0002 0.00494043 0)
(1.00019 -0.000973194 0)
(0.998446 0.00126421 0)
(1.0013 0.00155736 0)
(1.00236 -0.000728633 0)
(0.999311 0.000889842 0)
(0.999367 0.00173204 0)
(1.0008 0.000496051 0)
(0.999883 0.00180722 0)
(1.0013 0.00154345 0)
(1.00206 -0.000125398 0)
(0.99988 0.000768292 0)
(0.999011 0.00155612 0)
(1.00056 0.000800309 0)
(1.00056 0.00111588 0)
(0.999401 0.00248745 0)
(0.999331 0.0030355 0)
(1.00028 0.00290833 0)
(1.00055 0.00339463 0)
(1.00036 0.00434571 0)
(1.00043 0.00483364 0)
(1.0002 -0.000930636 0)
(0.998538 0.00122531 0)
(1.00117 0.00149513 0)
(1.0023 -0.000776013 0)
(0.999432 0.000923038 0)
(0.999315 0.00183093 0)
(1.0008 0.000477522 0)
(0.999972 0.00170229 0)
(1.00117 0.00169223 0)
(1.00202 1.25022e-05 0)
(1.0001 0.000711566 0)
(0.999078 0.00172512 0)
(1.00056 0.00108522 0)
(1.00083 0.0011434 0)
(0.999751 0.00240639 0)
(0.999488 0.00312823 0)
(1.00041 0.00303126 0)
(1.00087 0.00328751 0)
(1.00073 0.00414263 0)
(1.00068 0.00471047 0)
(1.0002 -0.000882539 0)
(0.998627 0.00116817 0)
(1.00102 0.00146284 0)
(1.00224 -0.000820916 0)
(0.999565 0.000904842 0)
(0.999254 0.00195383 0)
(1.00078 0.000489482 0)
(1.00007 0.00156198 0)
(1.00104 0.00183204 0)
(1.00195 0.00021039 0)
(1.00032 0.000653992 0)
(0.999184 0.00181659 0)
(1.00055 0.00136525 0)
(1.00106 0.00122039 0)
(1.00011 0.00231059 0)
(0.99968 0.00315948 0)
(1.00051 0.00315322 0)
(1.00114 0.00323251 0)
(1.00111 0.00392621 0)
(1.00095 0.00456727 0)
(1.00021 -0.000829704 0)
(0.998715 0.00109324 0)
(1.00087 0.00145734 0)
(1.00218 -0.000848669 0)
(0.999713 0.000825799 0)
(0.999191 0.00208114 0)
(1.00073 0.000550635 0)
(1.00019 0.00139941 0)
(1.00094 0.00194578 0)
(1.00186 0.000457246 0)
(1.00052 0.00062101 0)
(0.999328 0.00183068 0)
(1.00053 0.00161035 0)
(1.00124 0.00133777 0)
(1.00048 0.0022208 0)
(0.99991 0.00313635 0)
(1.0006 0.00325319 0)
(1.00135 0.00322854 0)
(1.00147 0.00372022 0)
(1.00124 0.00439101 0)
(1.00021 -0.000768287 0)
(0.998803 0.000996181 0)
(1.00071 0.00146761 0)
(1.0021 -0.000849534 0)
(0.999876 0.000699796 0)
(0.999135 0.00218628 0)
(1.00065 0.000676771 0)
(1.0003 0.00123796 0)
(1.00087 0.00200796 0)
(1.00174 0.00073636 0)
(1.0007 0.000642019 0)
(0.999503 0.0018029 0)
(1.00053 0.00180846 0)
(1.00137 0.00148345 0)
(1.00082 0.00215144 0)
(1.00017 0.00307194 0)
(1.0007 0.00331343 0)
(1.00151 0.00326142 0)
(1.0018 0.0035524 0)
(1.00156 0.00417332 0)
(1.0002 -0.000699924 0)
(0.998892 0.000881303 0)
(1.00055 0.00148836 0)
(1.002 -0.000814636 0)
(1.00005 0.000543226 0)
(0.999096 0.00224772 0)
(1.00054 0.000862051 0)
(1.00041 0.00109866 0)
(1.00083 0.00200633 0)
(1.00161 0.0010197 0)
(1.00085 0.000727921 0)
(0.999698 0.00176125 0)
(1.00054 0.00195542 0)
(1.00147 0.00164261 0)
(1.00113 0.00210826 0)
(1.00046 0.00297885 0)
(1.00082 0.00332279 0)
(1.00162 0.00330048 0)
(1.00206 0.00344295 0)
(1.00188 0.00393589 0)
(1.0002 -0.000626819 0)
(0.998983 0.000754713 0)
(1.00039 0.00151161 0)
(1.00189 -0.000734999 0)
(1.00023 0.00036443 0)
(0.999084 0.00225673 0)
(1.0004 0.00108097 0)
(1.0005 0.00100699 0)
(1.00083 0.00194954 0)
(1.00148 0.00127789 0)
(1.00095 0.000864382 0)
(0.999898 0.00172166 0)
(1.00058 0.00205262 0)
(1.00154 0.00179936 0)
(1.0014 0.00209909 0)
(1.00075 0.00287454 0)
(1.00097 0.00328876 0)
(1.00171 0.00331468 0)
(1.00226 0.00338338 0)
(1.00219 0.00372194 0)
(1.00019 -0.000547775 0)
(0.999077 0.000618456 0)
(1.00024 0.001525 0)
(1.00176 -0.000611794 0)
(1.00042 0.000182318 0)
(0.999107 0.00220039 0)
(1.00025 0.00131784 0)
(1.00055 0.000978544 0)
(1.00086 0.00185464 0)
(1.00137 0.00148964 0)
(1.00102 0.00103984 0)
(1.00009 0.0017049 0)
(1.00064 0.00211598 0)
(1.00159 0.00193776 0)
(1.00164 0.00211609 0)
(1.00104 0.00277056 0)
(1.00113 0.00322258 0)
(1.0018 0.00329258 0)
(1.00242 0.00333737 0)
(1.00245 0.00355795 0)
(1.00018 -0.000465443 0)
(0.999174 0.000481094 0)
(1.00011 0.00152094 0)
(1.0016 -0.000451892 0)
(1.00059 1.6441e-05 0)
(0.999169 0.00207577 0)
(1.0001 0.00154901 0)
(1.00057 0.00101405 0)
(1.00092 0.00175478 0)
(1.00129 0.00164025 0)
(1.00106 0.0012251 0)
(1.00027 0.00170988 0)
(1.00072 0.00215335 0)
(1.00163 0.00206038 0)
(1.00183 0.00215257 0)
(1.00132 0.00268091 0)
(1.00131 0.00313327 0)
(1.00189 0.00324574 0)
(1.00254 0.00327559 0)
(1.00267 0.00343161 0)
(1.00017 -0.000383721 0)
(0.999274 0.000353416 0)
(0.999996 0.00149315 0)
(1.00143 -0.00026678 0)
(1.00075 -0.000120174 0)
(0.999271 0.00189741 0)
(0.999953 0.00174073 0)
(1.00055 0.00110913 0)
(1.00098 0.00166069 0)
(1.00123 0.00174607 0)
(1.00107 0.00140881 0)
(1.00043 0.00173895 0)
(1.00082 0.00216807 0)
(1.00167 0.00216424 0)
(1.00198 0.00220533 0)
(1.00157 0.0026125 0)
(1.0015 0.00302641 0)
(1.00199 0.00317729 0)
(1.00264 0.00319502 0)
(1.00285 0.00331225 0)
(1.00015 -0.000304547 0)
(0.999373 0.000240995 0)
(0.999907 0.00143787 0)
(1.00124 -7.4315e-05 0)
(1.00088 -0.000213775 0)
(0.999408 0.0016831 0)
(0.999837 0.00187804 0)
(1.0005 0.00125147 0)
(1.00103 0.001589 0)
(1.00121 0.00180186 0)
(1.00108 0.00158458 0)
(1.00056 0.00179277 0)
(1.00093 0.00217269 0)
(1.00172 0.00223488 0)
(1.00211 0.00226942 0)
(1.00178 0.00257216 0)
(1.00169 0.00292173 0)
(1.00209 0.00308503 0)
(1.00273 0.00310208 0)
(1.003 0.00318036 0)
(1.00014 -0.000229459 0)
(0.99947 0.000146245 0)
(0.999842 0.00135391 0)
(1.00105 0.000123582 0)
(1.00098 -0.000247545 0)
(0.999575 0.00144861 0)
(0.999759 0.0019483 0)
(1.00042 0.00140906 0)
(1.00107 0.001566 0)
(1.00121 0.0018185 0)
(1.00109 0.00173293 0)
(1.00066 0.00186607 0)
(1.00103 0.00217863 0)
(1.00178 0.00227879 0)
(1.00221 0.00232535 0)
(1.00196 0.00256169 0)
(1.00186 0.00283605 0)
(1.00218 0.0029801 0)
(1.0028 0.00299834 0)
(1.00313 0.00303976 0)
(1.00012 -0.000162316 0)
(0.999562 7.48737e-05 0)
(0.999804 0.00124643 0)
(1.00086 0.000315572 0)
(1.00105 -0.00022278 0)
(0.999758 0.00121745 0)
(0.999724 0.00194817 0)
(1.00033 0.00155971 0)
(1.0011 0.00157646 0)
(1.00123 0.00182591 0)
(1.0011 0.00184679 0)
(1.00074 0.00194892 0)
(1.00113 0.00218228 0)
(1.00184 0.00230612 0)
(1.00231 0.00235823 0)
(1.00211 0.00256295 0)
(1.002 0.00277681 0)
(1.00227 0.00287797 0)
(1.00286 0.0028833 0)
(1.00323 0.0028991 0)
(1.00011 -0.000103276 0)
(0.999647 2.63855e-05 0)
(0.999789 0.00112318 0)
(1.00068 0.000483482 0)
(1.00108 -0.000147866 0)
(0.999946 0.00100815 0)
(0.999735 0.00188899 0)
(1.00025 0.00169326 0)
(1.0011 0.00161105 0)
(1.00127 0.00182405 0)
(1.00113 0.00192982 0)
(1.00081 0.002034 0)
(1.00122 0.00219212 0)
(1.00191 0.00230955 0)
(1.0024 0.00237747 0)
(1.00225 0.00255546 0)
(1.00211 0.00274435 0)
(1.00233 0.00279963 0)
(1.0029 0.00276562 0)
(1.0033 0.00276261 0)
(1.00009 -5.31915e-05 0)
(0.999723 1.59043e-07 0)
(0.999797 0.000994149 0)
(1.00052 0.000616954 0)
(1.00108 -3.46925e-05 0)
(1.00013 0.000834851 0)
(0.999789 0.00179068 0)
(1.00018 0.001785 0)
(1.00108 0.00166566 0)
(1.00131 0.00182122 0)
(1.00117 0.00198538 0)
(1.00086 0.0021076 0)
(1.00128 0.00221658 0)
(1.00198 0.00229123 0)
(1.0025 0.00236979 0)
(1.00238 0.00253603 0)
(1.00221 0.00271093 0)
(1.00236 0.00275324 0)
(1.00292 0.00266147 0)
(1.00335 0.00262868 0)
(1.00008 -1.3335e-05 0)
(0.999789 -4.65762e-06 0)
(0.999822 0.000868642 0)
(1.00038 0.000708743 0)
(1.00104 0.000100051 0)
(1.00029 0.000711139 0)
(0.999878 0.00166941 0)
(1.00012 0.00183413 0)
(1.00105 0.00171613 0)
(1.00134 0.00182038 0)
(1.00123 0.00202022 0)
(1.00091 0.00216503 0)
(1.00133 0.00223688 0)
(1.00203 0.00228093 0)
(1.00259 0.00232917 0)
(1.00251 0.00249743 0)
(1.00231 0.00266431 0)
(1.00236 0.00271956 0)
(1.00289 0.00259131 0)
(1.00336 0.00250208 0)
(1.00007 1.91414e-05 0)
(0.999845 4.89022e-06 0)
(0.999861 0.00075325 0)
(1.00026 0.000767155 0)
(1.00099 0.000237885 0)
(1.00043 0.000641174 0)
(0.999993 0.00153752 0)
(1.0001 0.00185076 0)
(1.00101 0.00175837 0)
(1.00137 0.00181415 0)
(1.00129 0.00203202 0)
(1.00096 0.00222426 0)
(1.00136 0.00224868 0)
(1.00206 0.00226299 0)
(1.00266 0.00228228 0)
(1.00264 0.00242351 0)
(1.00242 0.00260289 0)
(1.00237 0.00268128 0)
(1.00282 0.00255968 0)
(1.00333 0.00240353 0)
(1.00006 4.43603e-05 0)
(0.999889 2.67538e-05 0)
(0.999909 0.000653702 0)
(1.00017 0.000794784 0)
(1.00092 0.000364386 0)
(1.00054 0.000611931 0)
(1.00012 0.00141388 0)
(1.0001 0.00183413 0)
(1.00097 0.00179286 0)
(1.0014 0.00180586 0)
(1.00137 0.00201243 0)
(1.001 0.00226243 0)
(1.00136 0.00228327 0)
(1.00207 0.00222434 0)
(1.00272 0.00223101 0)
(1.00276 0.00233704 0)
(1.00254 0.0025096 0)
(1.00238 0.00262737 0)
(1.00272 0.00254389 0)
(1.00324 0.00234802 0)
(1.00005 6.30899e-05 0)
(0.999923 5.42678e-05 0)
(0.999961 0.000572364 0)
(1.0001 0.00080077 0)
(1.00085 0.000476818 0)
(1.00062 0.000606851 0)
(1.00026 0.00130784 0)
(1.00012 0.00179301 0)
(1.00093 0.00181114 0)
(1.00141 0.00179546 0)
(1.00145 0.00197849 0)
(1.00107 0.00225808 0)
(1.00134 0.00233186 0)
(1.00205 0.00221243 0)
(1.00276 0.0021546 0)
(1.00286 0.00225353 0)
(1.00266 0.00239835 0)
(1.00243 0.00254047 0)