/*--------------------------------*- C++ -*----------------------------------*\
| =========                 |                                                 |
| \\      /  F ield         | OpenFOAM: The Open Source CFD Toolbox           |
|  \\    /   O peration     | Version:  v1906                                 |
|   \\  /    A nd           | Web:      www.OpenFOAM.com                      |
|    \\/     M anipulation  |                                                 |
\*---------------------------------------------------------------------------*/
FoamFile
{
    version     2.0;
    format      ascii;
    class       volScalarField;
    location    "7.7";
    object      p;
}
// * * * * * * * * * * * * * * * * * * * * * * * * * * * * * * * * * * * * * //

dimensions      [0 2 -2 0 0 0 0];


internalField   nonuniform List<scalar> 
9600
(
-1.41772e-11
-0.00135741
0.00210582
0.00214372
-0.00304628
-0.00118824
-0.00159664
-0.0042985
-0.0032585
-0.00148572
-0.00301318
-0.003722
-0.00379229
-0.00393631
-0.00407289
-0.00502393
-0.00605417
-0.0068408
-0.00696286
-0.00618493
7.16117e-06
-0.00135095
0.00207234
0.00213244
-0.00301772
-0.00122436
-0.00159546
-0.00428795
-0.00327362
-0.00145679
-0.00300996
-0.00372845
-0.00379388
-0.0039533
-0.00406373
-0.00506983
-0.00603482
-0.00687997
-0.00694386
-0.0063076
1.59445e-05
-0.00134392
0.0020362
0.00212366
-0.00297466
-0.00127422
-0.00158071
-0.00427213
-0.00328709
-0.00142329
-0.00301714
-0.00374107
-0.00379914
-0.0039776
-0.00405483
-0.00513127
-0.00600406
-0.00693161
-0.0069209
-0.00648457
2.27844e-05
-0.00133465
0.00199842
0.00210068
-0.00294637
-0.00131644
-0.00155624
-0.004251
-0.00329487
-0.00141239
-0.00303107
-0.00375385
-0.00380803
-0.00400344
-0.00405274
-0.00519802
-0.00598006
-0.00696925
-0.00691756
-0.00665374
2.82376e-05
-0.0013229
0.00195496
0.00206667
-0.00293032
-0.00134586
-0.00152351
-0.00422436
-0.00330085
-0.00142451
-0.00304309
-0.0037689
-0.00382222
-0.00403166
-0.00405317
-0.00526927
-0.00595518
-0.00699643
-0.00693962
-0.00678945
3.33162e-05
-0.00130964
0.00190576
0.00202424
-0.0029183
-0.00135668
-0.00148575
-0.00419687
-0.00330938
-0.00145162
-0.00305036
-0.00378859
-0.00384124
-0.00406091
-0.00405462
-0.00534123
-0.00592486
-0.00702436
-0.00697804
-0.0068937
3.85305e-05
-0.00129619
0.00185127
0.00197464
-0.00290679
-0.00134926
-0.00144922
-0.00417228
-0.00332219
-0.00148593
-0.00305364
-0.00381081
-0.00386205
-0.00409019
-0.00405816
-0.00540957
-0.00589578
-0.00705296
-0.00702758
-0.00698098
4.40221e-05
-0.00128355
0.00179288
0.00191881
-0.0028951
-0.00132953
-0.00141844
-0.0041514
-0.00333883
-0.00152132
-0.00305339
-0.00383278
-0.00388246
-0.00412021
-0.00406368
-0.00547365
-0.00587368
-0.00707716
-0.0070913
-0.00705949
4.97472e-05
-0.00127204
0.00173222
0.00185766
-0.00288359
-0.00130455
-0.0013941
-0.00413332
-0.00335822
-0.00155487
-0.00305041
-0.00385405
-0.00390188
-0.00415185
-0.00407089
-0.00553444
-0.00586067
-0.007095
-0.00717254
-0.00713128
5.56279e-05
-0.00126146
0.00167061
0.00179168
-0.00287288
-0.00127952
-0.00137357
-0.00411713
-0.00337963
-0.00158622
-0.00304608
-0.00387547
-0.00392058
-0.00418563
-0.00407994
-0.00559249
-0.00585859
-0.00710602
-0.00727046
-0.00719778
6.1671e-05
-0.00125136
0.00160858
0.00172107
-0.00286323
-0.00125731
-0.00135441
-0.0041023
-0.00340295
-0.00161591
-0.00304174
-0.0038981
-0.00393903
-0.0042214
-0.00409097
-0.00564773
-0.00586934
-0.00710944
-0.00738198
-0.00726269
6.7986e-05
-0.00124142
0.00154595
0.00164594
-0.00285433
-0.00123904
-0.00133497
-0.00408844
-0.00342853
-0.00164461
-0.00303859
-0.00392325
-0.0039574
-0.00425846
-0.00410451
-0.00569962
-0.00589421
-0.00710503
-0.00750348
-0.007331
7.47123e-05
-0.00123162
0.00148226
0.00156654
-0.00284557
-0.0012249
-0.00131439
-0.00407526
-0.00345684
-0.0016727
-0.0030377
-0.00395212
-0.00397567
-0.00429592
-0.0041213
-0.00574734
-0.00593408
-0.0070937
-0.00763073
-0.00740711
8.19502e-05
-0.00122217
0.00141706
0.00148335
-0.00283635
-0.00121478
-0.00129242
-0.00406246
-0.00348832
-0.00170023
-0.00303971
-0.00398546
-0.00399401
-0.00433295
-0.00414206
-0.00579038
-0.00598917
-0.00707745
-0.00775898
-0.00749424
8.97462e-05
-0.0012134
0.00135002
0.00139689
-0.00282624
-0.00120854
-0.00126908
-0.00404977
-0.0035233
-0.001727
-0.00304468
-0.00402368
-0.00401278
-0.00436871
-0.00416775
-0.00582863
-0.00605862
-0.00705906
-0.00788351
-0.00759434
9.81051e-05
-0.00120559
0.00128098
0.00130769
-0.00281499
-0.00120604
-0.00124454
-0.00403692
-0.00356208
-0.0017526
-0.00305229
-0.00406682
-0.00403219
-0.00440263
-0.00419918
-0.00586239
-0.00614094
-0.00704169
-0.00800017
-0.00770839
0.000106989
-0.00119898
0.00120981
0.00121621
-0.0028025
-0.00120724
-0.00121909
-0.00402353
-0.00360487
-0.00177667
-0.00306206
-0.00411459
-0.00405251
-0.0044347
-0.00423636
-0.0058922
-0.00623487
-0.00702852
-0.00810556
-0.0078363
0.000116322
-0.00119367
0.00113645
0.00112286
-0.00278875
-0.00121209
-0.00119307
-0.00400907
-0.00365188
-0.00179905
-0.0030733
-0.00416659
-0.00407414
-0.00446516
-0.00427865
-0.00591868
-0.00633933
-0.00702199
-0.0081965
-0.007977
0.000126003
-0.0011897
0.00106083
0.00102798
-0.00277385
-0.00122053
-0.00116684
-0.00399302
-0.0037037
-0.00181978
-0.00308517
-0.00422257
-0.00409733
-0.00449441
-0.00432562
-0.00594229
-0.00645294
-0.00702369
-0.00827023
-0.00812913
0.000135901
-0.00118704
0.000982881
0.000931886
-0.00275796
-0.00123243
-0.00114082
-0.00397483
-0.00376004
-0.00183914
-0.00309685
-0.00428254
-0.00412192
-0.00452296
-0.00437731
-0.00596297
-0.00657435
-0.0070356
-0.00832434
-0.00829063
0.000145856
-0.00118556
0.000902484
0.000834839
-0.00274124
-0.00124764
-0.00111547
-0.003954
-0.00382118
-0.00185757
-0.00310736
-0.00434687
-0.00414757
-0.00455095
-0.00443437
-0.00598
-0.00670229
-0.00706084
-0.00835639
-0.0084574
0.000155677
-0.00118506
0.000819489
0.000737057
-0.00272386
-0.00126596
-0.00109138
-0.00393014
-0.00388709
-0.00187571
-0.00311559
-0.00441613
-0.00417419
-0.00457807
-0.00449794
-0.00599255
-0.00683485
-0.0071035
-0.00836473
-0.0086226
0.000165135
-0.00118529
0.000733717
0.00063876
-0.00270607
-0.00128717
-0.00106909
-0.00390297
-0.00395751
-0.00189458
-0.00312038
-0.00449065
-0.00420214
-0.00460364
-0.00456952
-0.00600033
-0.00696877
-0.00716782
-0.00834983
-0.00877658
0.000173952
-0.00118594
0.000644946
0.000540152
-0.00268811
-0.00131098
-0.00104915
-0.00387237
-0.004032
-0.0019156
-0.00312032
-0.00457074
-0.00423238
-0.00462614
-0.00465069
-0.00600437
-0.00709915
-0.00725735
-0.00831562
-0.00890719
0.000181813
-0.00118662
0.000552943
0.000441393
-0.00267018
-0.00133717
-0.00103212
-0.00383822
-0.00410999
-0.00194046
-0.00311412
-0.00465654
-0.00426628
-0.00464326
-0.00474274
-0.00600751
-0.00721929
-0.0073739
-0.00827112
-0.00900161
0.000188362
-0.00118694
0.000457484
0.000342665
-0.00265247
-0.00136559
-0.00101847
-0.00380066
-0.00419038
-0.00197089
-0.00310105
-0.00474745
-0.00430552
-0.00465285
-0.00484612
-0.00601402
-0.00732195
-0.0075158
-0.00823008
-0.00904921
0.000193182
-0.00118641
0.000358309
0.000244149
-0.00263517
-0.00139619
-0.00100842
-0.00376002
-0.00427188
-0.00200847
-0.00308072
-0.00484233
-0.0043521
-0.00465312
-0.00495982
-0.00602951
-0.0074013
-0.00767683
-0.00820876
-0.00904672
0.000195815
-0.00118453
0.000255178
0.000145936
-0.00261835
-0.00142898
-0.00100211
-0.00371677
-0.00435334
-0.0020545
-0.00305306
-0.00493991
-0.0044084
-0.00464277
-0.00508115
-0.0060603
-0.0074543
-0.00784597
-0.00822249
-0.00900378
0.00019575
-0.00118076
0.000147916
4.80873e-05
-0.00260206
-0.00146419
-0.000999412
-0.00367155
-0.00443375
-0.00211008
-0.00301822
-0.00503823
-0.00447743
-0.0046213
-0.00520534
-0.00611266
-0.00748222
-0.00800883
-0.00827971
-0.00894028
0.000192423
-0.00117452
3.64333e-05
-4.94867e-05
-0.00258621
-0.00150221
-0.000999904
-0.00362502
-0.00451266
-0.00217618
-0.00297699
-0.00513451
-0.00456176
-0.0045893
-0.00532644
-0.00619199
-0.00749074
-0.00815001
-0.00837772
-0.00888359
0.000185203
-0.00116519
-7.92665e-05
-0.000147012
-0.00257041
-0.00154361
-0.00100306
-0.00357763
-0.00458984
-0.00225351
-0.00293043
-0.00522587
-0.00466369
-0.00454852
-0.005438
-0.00630162
-0.00748852
-0.00825569
-0.00850306
-0.00886203
0.000173452
-0.00115225
-0.00019906
-0.000244744
-0.00255406
-0.00158928
-0.00100848
-0.00352939
-0.00466527
-0.00234226
-0.00287957
-0.00531008
-0.00478573
-0.0045021
-0.0055325
-0.00644139
-0.00748691
-0.00831758
-0.00863646
-0.00889282
0.000156545
-0.00113516
-0.000322649
-0.000343208
-0.00253641
-0.00164024
-0.00101617
-0.0034799
-0.00473916
-0.00244259
-0.00282577
-0.00538426
-0.00492982
-0.00445538
-0.00560186
-0.00660753
-0.00749894
-0.00833561
-0.00875629
-0.00897368
0.000133767
-0.00111349
-0.000449429
-0.000443138
-0.00251653
-0.00169744
-0.00102659
-0.00342838
-0.00481168
-0.00255515
-0.00277053
-0.00544444
-0.00509736
-0.00441564
-0.00563838
-0.00679318
-0.00753727
-0.00831685
-0.00884346
-0.00908604
0.000104425
-0.00108695
-0.000578479
-0.000545507
-0.00249324
-0.00176146
-0.00104074
-0.00337354
-0.00488297
-0.002681
-0.00271557
-0.00548683
-0.00528831
-0.00439101
-0.00563601
-0.00698827
-0.00761287
-0.00827229
-0.00888592
-0.00920738
6.79415e-05
-0.0010555
-0.000708555
-0.000651496
-0.00246511
-0.00183228
-0.00106073
-0.00331371
-0.0049521
-0.00282148
-0.00266336
-0.00550793
-0.0055001
-0.00439097
-0.00559216
-0.00717904
-0.00773464
-0.00821585
-0.00887776
-0.00931696
2.37792e-05
-0.00101942
-0.000837822
-0.000762472
-0.00243121
-0.00190903
-0.00108942
-0.00324804
-0.00501699
-0.00297805
-0.0026177
-0.00550393
-0.0057274
-0.00442638
-0.00550975
-0.00734778
-0.00790687
-0.00816657
-0.00881621
-0.00939644
-2.85722e-05
-0.000979404
-0.000963759
-0.000879946
-0.00239164
-0.00198989
-0.00112997
-0.0031766
-0.00507492
-0.00315169
-0.00258343
-0.00547146
-0.00596235
-0.00450783
-0.00539897
-0.00747425
-0.00812382
-0.00814901
-0.00870534
-0.00942671
-8.94168e-05
-0.000936779
-0.00108297
-0.00100519
-0.00234789
-0.00207169
-0.00118596
-0.00310047
-0.00512173
-0.00334221
-0.00256619
-0.00540913
-0.00619509
-0.00464249
-0.00527579
-0.00754
-0.00836745
-0.00818794
-0.00856208
-0.00938821
-0.000158786
-0.000893367
-0.00119132
-0.00113955
-0.00230287
-0.00214963
-0.00126063
-0.00302231
-0.00515253
-0.00354767
-0.00257267
-0.00531858
-0.00641389
-0.0048317
-0.00515944
-0.00753509
-0.00861308
-0.00829742
-0.00841605
-0.00927069
-0.000236519
-0.000851298
-0.00128455
-0.00128375
-0.00226086
-0.00221843
-0.00135532
-0.00294657
-0.00516238
-0.00376364
-0.00261032
-0.00520511
-0.00660656
-0.00507086
-0.00507047
-0.00746077
-0.00883306
-0.00847381
-0.00830334
-0.0090853
-0.000322215
-0.000813007
-0.00135903
-0.00143729
-0.0022271
-0.00227362
-0.00146905
-0.002879
-0.00514762
-0.00398449
-0.00268629
-0.00507768
-0.00676154
-0.00534962
-0.0050274
-0.00732791
-0.00900154
-0.00869987
-0.0082537
-0.00886239
-0.000415144
-0.000780803
-0.00141289
-0.00159868
-0.0022068
-0.00231197
-0.00159887
-0.00282679
-0.00510806
-0.00420238
-0.00280403
-0.00494716
-0.00687057
-0.005654
-0.00504426
-0.00715394
-0.00909809
-0.00895259
-0.00828131
-0.00864011
-0.00051435
-0.000757011
-0.0014456
-0.00176432
-0.00220543
-0.00233287
-0.00173905
-0.00279757
-0.00504731
-0.00440682
-0.00296185
-0.00482584
-0.00693075
-0.00596761
-0.00512795
-0.00696126
-0.00911003
-0.00920642
-0.00838686
-0.00845387
-0.000618704
-0.000743786
-0.00145793
-0.00192877
-0.00222834
-0.00233864
-0.00188106
-0.00279677
-0.00497039
-0.00458852
-0.00315453
-0.00472467
-0.00694371
-0.00627393
-0.00527699
-0.00677602
-0.00903577
-0.00943175
-0.00856149
-0.00832845
-0.000726634
-0.000743069
-0.00145244
-0.00208585
-0.00227896
-0.00233379
-0.00201471
-0.002826
-0.004887
-0.00474277
-0.00337256
-0.00465152
-0.00691576
-0.00655933
-0.00548175
-0.00662173
-0.00888706
-0.00959872
-0.00878687
-0.00828008
-0.000835224
-0.000756932
-0.00143279
-0.00222904
-0.00235851
-0.00232598
-0.00213035
-0.0028821
-0.00481123
-0.00487011
-0.00360243
-0.00461033
-0.00685601
-0.00681245
-0.00572764
-0.00651488
-0.0086866
-0.00968721
-0.00903608
-0.00831788
-0.000942506
-0.000787235
-0.00140383
-0.00235138
-0.00246586
-0.00232626
-0.00222229
-0.00295811
-0.0047542
-0.00497428
-0.00383203
-0.00460117
-0.00677304
-0.00702453
-0.00599989
-0.00646491
-0.00846159
-0.0096916
-0.00927589
-0.00843906
-0.00104704
-0.000834941
-0.00137206
-0.00244624
-0.00259725
-0.00234743
-0.00229137
-0.00304139
-0.00471951
-0.00506117
-0.00405461
-0.00462074
-0.00667488
-0.00719051
-0.00628509
-0.00647572
-0.00823742
-0.00961889
-0.00947295
-0.0086239
-0.00114711
-0.000900174
-0.00134432
-0.00250992
-0.00274588
-0.00239949
-0.00234272
-0.00311897
-0.00470457
-0.00513865
-0.00426807
-0.00466453
-0.00656951
-0.00730866
-0.00656876
-0.00654496
-0.00803596
-0.00948616
-0.00960388
-0.00883844
-0.00124148
-0.000982219
-0.0013271
-0.0025419
-0.00290165
-0.00248807
-0.0023855
-0.00318185
-0.00470417
-0.00521322
-0.00447263
-0.0047285
-0.00646342
-0.00738039
-0.00683688
-0.00666358
-0.00787345
-0.00931579
-0.00966073
-0.00904429
-0.00132929
-0.00107883
-0.00132647
-0.00254439
-0.00305219
-0.002614
-0.00243406
-0.00322679
-0.00470934
-0.00528667
-0.00466961
-0.00480998
-0.00636196
-0.00740943
-0.00707935
-0.0068197
-0.00775715
-0.00912874
-0.00965022
-0.00920962
-0.00140611
-0.00118601
-0.00134621
-0.00252367
-0.00318565
-0.00277328
-0.00250489
-0.00325738
-0.00470875
-0.00535626
-0.00485975
-0.00490795
-0.00627108
-0.00739992
-0.00728704
-0.00700151
-0.00768868
-0.0089405
-0.00958743
-0.0093189
-0.00148119
-0.00129963
-0.00138807
-0.00248914
-0.00329327
-0.00295855
-0.00261049
-0.00328131
-0.00469479
-0.00541694
-0.00504247
-0.00502132
-0.00619656
-0.00735944
-0.00745152
-0.00719613
-0.00766967
-0.0087628
-0.00948647
-0.00937302
-0.00155107
-0.00141588
-0.00145278
-0.00245162
-0.00337065
-0.00315702
-0.00275436
-0.00331036
-0.00466632
-0.00546192
-0.00521457
-0.00514762
-0.00614224
-0.00729894
-0.00757036
-0.00738696
-0.0076982
-0.00860798
-0.0093567
-0.00938059
-0.00161747
-0.00153147
-0.00153921
-0.00242198
-0.00341859
-0.00335379
-0.00293405
-0.00335559
-0.00462637
-0.00548723
-0.00537127
-0.00528266
-0.00610869
-0.00722701
-0.00764804
-0.00755895
-0.0077632
-0.0084895
-0.00920884
-0.00934743
-0.00168051
-0.001644
-0.00164547
-0.00241209
-0.00344272
-0.003536
-0.00314014
-0.00342464
-0.00458191
-0.00549371
-0.0055087
-0.00542202
-0.00609636
-0.00714863
-0.00768976
-0.00770669
-0.0078493
-0.00841401
-0.00905939
-0.00927576
-0.00174087
-0.00174265
-0.00176966
-0.00243164
-0.00345309
-0.00369373
-0.00335627
-0.00352051
-0.00454282
-0.00548218
-0.00562452
-0.0055612
-0.00610559
-0.00706986
-0.00769728
-0.00782824
-0.00794529
-0.00837758
-0.00892615
-0.00917357
-0.00180474
-0.0018439
-0.00190048
-0.00247223
-0.00345533
-0.00382384
-0.00357001
-0.00364184
-0.00451909
-0.00545709
-0.00571781
-0.00569618
-0.0061338
-0.00699817
-0.00767408
-0.00791726
-0.00804343
-0.00837197
-0.00882014
-0.00905793
-0.00187235
-0.00194111
-0.00203677
-0.00253302
-0.00345702
-0.00392684
-0.00377297
-0.00378371
-0.0045151
-0.00542523
-0.00578945
-0.0058238
-0.00617697
-0.00693814
-0.00762997
-0.00796916
-0.00813371
-0.00839075
-0.00874426
-0.00894831
-0.00194486
-0.00203691
-0.00217216
-0.00261077
-0.00346485
-0.0040072
-0.00395998
-0.00394003
-0.00453329
-0.00539268
-0.00584138
-0.0059421
-0.00623339
-0.00689051
-0.00757272
-0.00798538
-0.00820362
-0.00842538
-0.0086961
-0.00885539
-0.00202409
-0.00213227
-0.00230379
-0.00270226
-0.00348377
-0.00407224
-0.0041286
-0.0041038
-0.0045751
-0.00536318
-0.00587235
-0.00604512
-0.00629951
-0.00685639
-0.00750539
-0.00797027
-0.00824458
-0.00846205
-0.00867044
-0.00878017
-0.00210947
-0.0022283
-0.0024312
-0.00280577
-0.00351663
-0.00412627
-0.00427657
-0.00426693
-0.00463682
-0.00533943
-0.00588253
-0.00612726
-0.00637083
-0.00684168
-0.00743706
-0.00793005
-0.008255
-0.00848734
-0.00865876
-0.00871912
-0.00220041
-0.00232418
-0.00255645
-0.00291801
-0.00356294
-0.00417309
-0.00440384
-0.00442489
-0.00471514
-0.00532632
-0.00587734
-0.00618611
-0.00643898
-0.00684653
-0.00737981
-0.00787442
-0.00823806
-0.00849418
-0.00865293
-0.00867146
-0.00229757
-0.00242478
-0.00267705
-0.00303484
-0.00362295
-0.00421868
-0.00451277
-0.00457382
-0.0048063
-0.00532624
-0.00586217
-0.00622139
-0.00649319
-0.00685731
-0.00733409
-0.00781123
-0.00819767
-0.00848013
-0.00864597
-0.00864209
-0.00240056
-0.00252613
-0.00279519
-0.00315548
-0.00369653
-0.0042664
-0.00460438
-0.00470826
-0.00490435
-0.00534049
-0.0058433
-0.00623619
-0.00653215
-0.00686621
-0.00729322
-0.00774513
-0.00813673
-0.00843875
-0.00862226
-0.00861968
-0.00250948
-0.00263481
-0.00291064
-0.00327656
-0.00378157
-0.0043194
-0.00468283
-0.00482688
-0.00500298
-0.00536617
-0.00582419
-0.00623138
-0.00655291
-0.00687264
-0.00725475
-0.00767958
-0.00806623
-0.00837345
-0.00857186
-0.00858363
-0.0026231
-0.00274555
-0.00302598
-0.00339815
-0.00387605
-0.00437924
-0.00475227
-0.00493037
-0.00509832
-0.00540081
-0.00580867
-0.00621058
-0.00654819
-0.00686727
-0.0072131
-0.00760609
-0.00798798
-0.00829477
-0.00849989
-0.00852783
-0.00274238
-0.00286203
-0.00314159
-0.003518
-0.0039782
-0.00444835
-0.00481684
-0.00501919
-0.00518616
-0.00543935
-0.00579682
-0.00618018
-0.00651711
-0.0068392
-0.00716386
-0.00751891
-0.0078908
-0.00819999
-0.00840814
-0.00845044
-0.00286775
-0.00298815
-0.00325837
-0.00363564
-0.00408507
-0.004527
-0.00488289
-0.00509657
-0.00526331
-0.00547829
-0.00578529
-0.00614183
-0.00646572
-0.00678035
-0.00709877
-0.00742134
-0.00776904
-0.00807955
-0.00829047
-0.00834457
-0.00299634
-0.00311328
-0.00338036
-0.00375476
-0.00419512
-0.00461212
-0.00495231
-0.00516936
-0.00533215
-0.00551747
-0.00577605
-0.0060936
-0.00639602
-0.00668766
-0.00699893
-0.0073054
-0.00762309
-0.0079278
-0.0081405
-0.00820269
-0.00313059
-0.00324732
-0.00350759
-0.00387341
-0.00430566
-0.00470348
-0.00502558
-0.00524055
-0.00539639
-0.00555398
-0.00576705
-0.00603278
-0.0063032
-0.0065628
-0.0068519
-0.00715039
-0.00744321
-0.00773824
-0.00795588
-0.00802606
-0.00327339
-0.00338861
-0.00364041
-0.00399417
-0.00441734
-0.0047986
-0.00510419
-0.00531389
-0.00546445
-0.00559585
-0.00575812
-0.00595705
-0.00617152
-0.00638654
-0.00663519
-0.00692231
-0.00720565
-0.00749577
-0.00772711
-0.00782016
-0.0034198
-0.0035333
-0.00378141
-0.0041228
-0.00453292
-0.00489535
-0.00518615
-0.00539496
-0.00554889
-0.00566943
-0.00577641
-0.00587453
-0.00598741
-0.00611321
-0.00626824
-0.00648494
-0.00673028
-0.00700499
-0.007296
-0.00752404
-0.0035684
-0.00368382
-0.00393063
-0.00425897
-0.00465231
-0.00499889
-0.00527624
-0.0054768
-0.00565255
-0.00583659
-0.00596622
-0.00597175
-0.00594267
-0.00595047
-0.00598724
-0.00603501
-0.00603158
-0.00594064
-0.00579835
-0.00568161
-0.0037394
-0.00383101
-0.00405393
-0.00435388
-0.00473393
-0.00510488
-0.00539988
-0.00554051
-0.00557578
-0.00561365
-0.00568105
-0.00574631
-0.00580187
-0.00583741
-0.00583305
-0.0057963
-0.00572387
-0.00564453
-0.00561036
-0.00568277
-0.00398448
-0.00409952
-0.00423382
-0.00442668
-0.00472526
-0.00501909
-0.00525692
-0.00540316
-0.00549986
-0.00560272
-0.00571713
-0.00581333
-0.00589493
-0.00593896
-0.0059233
-0.00585847
-0.00573286
-0.00555319
-0.00536103
-0.00524972
-0.00406933
-0.00411536
-0.00426182
-0.00446859
-0.00474215
-0.00500706
-0.00523377
-0.00539324
-0.00550703
-0.00560996
-0.00570761
-0.00574838
-0.00575957
-0.00578081
-0.00581756
-0.005926
-0.00614801
-0.00648066
-0.00687461
-0.00724411
-0.00428933
-0.00436334
-0.00442758
-0.00453219
-0.00474011
-0.00498124
-0.005208
-0.00537611
-0.00551527
-0.00563128
-0.00573314
-0.00580378
-0.00581885
-0.00581157
-0.00575569
-0.00563588
-0.0054645
-0.00527088
-0.00511486
-0.00507622
-0.00442252
-0.00447122
-0.00449736
-0.00456279
-0.00474016
-0.0049662
-0.00519438
-0.00536821
-0.00552108
-0.00565664
-0.00576056
-0.00583431
-0.00584157
-0.0057989
-0.00572546
-0.00562384
-0.00553051
-0.00547819
-0.00550484
-0.00566249
-0.00552384
-0.00812477
-0.0133595
-0.017296
-0.0178958
-0.0164074
-0.0145248
-0.0131102
-0.012372
-0.0121174
-0.0120781
-0.0120498
-0.011873
-0.0114596
-0.0109141
-0.0104965
-0.010286
-0.0101208
-0.00990752
-0.00966541
-0.00935612
-0.00897543
-0.00860558
-0.00829591
-0.00802339
-0.0077467
-0.00747036
-0.00722122
-0.0069921
-0.00675866
-0.00652021
-0.00632235
-0.00619219
-0.00607383
-0.00592274
-0.00578117
-0.00569787
-0.00560759
-0.00543373
-0.00520927
-0.00501269
-0.00483217
-0.00463814
-0.00440511
-0.0041493
-0.00390401
-0.0036394
-0.00335043
-0.00314766
-0.00307061
-0.00301947
-0.00287481
-0.00261569
-0.00227492
-0.00192796
-0.00163791
-0.00139712
-0.00118387
-0.00097298
-0.000741923
-0.000476346
-0.000192515
0.000103175
0.000415721
0.000705766
0.00100949
0.00133251
0.00166098
0.00196989
0.00228955
0.00262558
0.00296806
0.00334656
0.00374108
0.00414217
0.00452422
0.00492289
0.00532476
0.00575212
0.00615286
0.00656935
0.00699088
0.00745668
0.00793578
0.00840003
0.008856
0.00929901
0.00978666
0.0102669
0.0107963
0.011291
0.0118201
0.0123658
0.0128954
0.0134738
0.0140603
0.0146437
0.0153027
0.016056
0.0167266
-0.00583738
-0.00820109
-0.0132544
-0.0171665
-0.0178202
-0.0163682
-0.0144977
-0.0130895
-0.0123562
-0.0121053
-0.0120688
-0.0120429
-0.0118681
-0.0114559
-0.0109107
-0.0104931
-0.0102829
-0.0101181
-0.00990501
-0.00966319
-0.00935414
-0.0089735
-0.00860368
-0.0082941
-0.00802173
-0.00774514
-0.00746885
-0.00721977
-0.00699073
-0.00675735
-0.00651891
-0.00632104
-0.00619094
-0.0060727
-0.00592164
-0.00578004
-0.0056968
-0.00560665
-0.00543286
-0.00520838
-0.00501181
-0.00483135
-0.00463739
-0.00440443
-0.00414865
-0.0039034
-0.00363885
-0.00334988
-0.00314705
-0.00307004
-0.00301901
-0.00287444
-0.00261534
-0.00227456
-0.00192759
-0.00163755
-0.00139677
-0.00118353
-0.000972674
-0.000741644
-0.00047608
-0.000192254
0.000103419
0.000415961
0.000706002
0.0010097
0.00133272
0.00166119
0.0019701
0.00228975
0.00262578
0.00296824
0.00334674
0.00374126
0.00414234
0.00452439
0.00492305
0.00532491
0.00575228
0.00615302
0.0065695
0.00699101
0.00745681
0.00793591
0.00840016
0.00885612
0.00929912
0.00978676
0.010267
0.0107964
0.0112911
0.0118202
0.0123659
0.0128954
0.0134739
0.0140603
0.0146438
0.0153028
0.0160561
0.0167269
-0.00623014
-0.00828653
-0.0130333
-0.0169104
-0.0176886
-0.01632
-0.0144747
-0.0130712
-0.0123401
-0.0120912
-0.0120564
-0.0120323
-0.0118599
-0.0114499
-0.0109064
-0.0104896
-0.01028
-0.0101155
-0.00990258
-0.00966113
-0.00935233
-0.0089717
-0.00860188
-0.00829242
-0.00802021
-0.00774373
-0.00746749
-0.00721847
-0.00698952
-0.0067562
-0.00651774
-0.00631985
-0.00618984
-0.00607172
-0.00592069
-0.00577906
-0.0056959
-0.00560588
-0.00543213
-0.00520759
-0.00501104
-0.00483064
-0.00463674
-0.00440384
-0.00414807
-0.00390287
-0.00363836
-0.00334932
-0.00314645
-0.00306952
-0.00301866
-0.00287418
-0.00261508
-0.00227424
-0.00192723
-0.00163721
-0.00139646
-0.00118324
-0.000972414
-0.000741416
-0.000475858
-0.000192029
0.000103631
0.000416174
0.000706206
0.00100989
0.00133291
0.00166138
0.00197028
0.00228991
0.00262594
0.00296839
0.00334688
0.00374141
0.0041425
0.00452454
0.00492319
0.00532505
0.00575241
0.00615315
0.00656962
0.00699113
0.00745691
0.00793602
0.00840027
0.00885623
0.00929922
0.00978686
0.0102671
0.0107965
0.0112912
0.0118202
0.012366
0.0128955
0.0134739
0.0140604
0.0146439
0.0153029
0.0160562
0.0167272
-0.00659608
-0.00833948
-0.0127461
-0.0165836
-0.0175121
-0.0162576
-0.0144469
-0.0130487
-0.0123196
-0.0120732
-0.0120395
-0.0120154
-0.011844
-0.0114378
-0.0108986
-0.0104847
-0.0102761
-0.0101117
-0.00989919
-0.00965837
-0.00935005
-0.00896959
-0.00859984
-0.00829051
-0.00801852
-0.00774223
-0.00746609
-0.00721714
-0.00698828
-0.00675504
-0.00651658
-0.00631864
-0.00618867
-0.00607068
-0.00591972
-0.0057781
-0.00569499
-0.0056051
-0.0054314
-0.00520681
-0.00501025
-0.00482989
-0.00463604
-0.0044032
-0.00414745
-0.00390229
-0.0036378
-0.00334868
-0.00314577
-0.00306896
-0.00301832
-0.00287397
-0.00261485
-0.00227389
-0.00192681
-0.00163683
-0.00139611
-0.00118292
-0.000972147
-0.00074119
-0.000475636
-0.000191794
0.00010385
0.000416398
0.000706412
0.00101007
0.0013331
0.00166158
0.00197046
0.00229008
0.00262611
0.00296854
0.00334703
0.00374157
0.00414266
0.00452469
0.00492332
0.00532518
0.00575256
0.00615329
0.00656974
0.00699124
0.00745702
0.00793615
0.00840039
0.00885634
0.00929931
0.00978695
0.0102672
0.0107966
0.0112913
0.0118203
0.012366
0.0128956
0.013474
0.0140605
0.014644
0.015303
0.0160563
0.0167277
-0.00692839
-0.00839856
-0.0124552
-0.0162389
-0.0173187
-0.016189
-0.0144173
-0.0130234
-0.0122953
-0.0120512
-0.0120177
-0.0119911
-0.0118191
-0.0114176
-0.0108859
-0.0104772
-0.01027
-0.0101056
-0.00989364
-0.00965394
-0.00934665
-0.00896683
-0.00859734
-0.00828813
-0.00801643
-0.00774058
-0.0074647
-0.00721579
-0.00698695
-0.00675385
-0.00651547
-0.0063174
-0.00618731
-0.00606943
-0.00591867
-0.0057771
-0.00569397
-0.00560415
-0.00543056
-0.00520601
-0.00500942
-0.00482902
-0.00463521
-0.00440246
-0.00414673
-0.00390159
-0.00363709
-0.0033479
-0.00314497
-0.00306828
-0.00301792
-0.00287373
-0.00261458
-0.00227347
-0.00192631
-0.00163638
-0.00139572
-0.00118256
-0.000971844
-0.000740941
-0.000475388
-0.000191526
0.000104102
0.000416648
0.000706639
0.00101028
0.00133331
0.00166179
0.00197066
0.00229025
0.00262628
0.00296869
0.00334718
0.00374173
0.00414283
0.00452484
0.00492347
0.00532532
0.00575271
0.00615343
0.00656987
0.00699135
0.00745713
0.00793628
0.00840052
0.00885646
0.00929941
0.00978705
0.0102673
0.0107967
0.0112914
0.0118204
0.0123661
0.0128957
0.0134741
0.0140606
0.014644
0.015303
0.0160564
0.0167283
-0.00724831
-0.00849094
-0.0121768
-0.0158844
-0.017112
-0.0161154
-0.0143878
-0.0129973
-0.0122685
-0.0120265
-0.0119925
-0.0119616
-0.0117872
-0.0113909
-0.0108691
-0.0104672
-0.0102612
-0.0100964
-0.00988507
-0.00964704
-0.00934152
-0.00896308
-0.00859423
-0.00828513
-0.00801378
-0.00773868
-0.00746339
-0.00721456
-0.00698569
-0.0067528
-0.0065146
-0.00631628
-0.00618576
-0.0060679
-0.00591754
-0.00577608
-0.00569273
-0.00560283
-0.0054295
-0.00520516
-0.00500853
-0.00482799
-0.00463421
-0.00440164
-0.00414595
-0.00390073
-0.00363617
-0.00334694
-0.00314401
-0.00306744
-0.0030174
-0.00287343
-0.00261426
-0.00227294
-0.0019257
-0.00163587
-0.00139525
-0.00118211
-0.000971482
-0.00074065
-0.000475095
-0.000191202
0.000104403
0.000416937
0.000706895
0.00101051
0.00133355
0.00166202
0.00197088
0.00229044
0.00262647
0.00296884
0.00334734
0.00374191
0.00414302
0.00452501
0.00492363
0.00532548
0.00575288
0.00615359
0.00657001
0.00699148
0.00745725
0.00793643
0.00840067
0.0088566
0.00929952
0.00978715
0.0102674
0.0107968
0.0112915
0.0118205
0.0123662
0.0128957
0.0134741
0.0140606
0.0146441
0.015303
0.0160563
0.016729
-0.00756127
-0.00861288
-0.0119064
-0.0155168
-0.0168897
-0.0160359
-0.0143583
-0.0129707
-0.0122395
-0.0119992
-0.0119652
-0.0119295
-0.0117517
-0.0113605
-0.0108499
-0.0104557
-0.0102504
-0.0100842
-0.00987337
-0.00963738
-0.00933433
-0.00895809
-0.00859034
-0.00828145
-0.00801051
-0.00773645
-0.00746206
-0.00721346
-0.0069846
-0.00675211
-0.00651425
-0.00631549
-0.0061841
-0.00606611
-0.00591638
-0.00577509
-0.00569118
-0.00560094
-0.00542802
-0.00520416
-0.0050075
-0.0048267
-0.00463299
-0.00440079
-0.00414521
-0.00389978
-0.00363505
-0.00334581
-0.00314288
-0.00306637
-0.00301668
-0.00287302
-0.00261383
-0.00227227
-0.00192496
-0.00163525
-0.00139468
-0.00118156
-0.000971029
-0.00074029
-0.00047473
-0.000190796
0.000104778
0.000417279
0.0007072
0.0010108
0.00133382
0.00166228
0.00197112
0.00229066
0.00262668
0.00296901
0.00334752
0.00374211
0.00414323
0.00452519
0.00492379
0.00532564
0.00575306
0.00615376
0.00657016
0.00699161
0.00745739
0.0079366
0.00840083
0.00885675
0.00929964
0.00978728
0.0102675
0.0107969
0.0112916
0.0118206
0.0123663
0.0128958
0.0134742
0.0140607
0.0146441
0.0153029
0.0160562
0.0167299
-0.00785808
-0.00875417
-0.0116436
-0.015137
-0.0166517
-0.0159494
-0.0143287
-0.0129441
-0.0122082
-0.0119693
-0.0119359
-0.0118957
-0.0117142
-0.0113282
-0.0108294
-0.0104433
-0.0102384
-0.01007
-0.00985923
-0.00962533
-0.0093252
-0.00895178
-0.00858562
-0.00827715
-0.00800673
-0.00773385
-0.00746056
-0.00721232
-0.00698365
-0.00675186
-0.00651461
-0.00631525
-0.00618251
-0.0060642
-0.00591532
-0.00577427
-0.00568936
-0.00559839
-0.00542596
-0.0052028
-0.00500612
-0.00482494
-0.00463138
-0.00439985
-0.00414459
-0.00389886
-0.00363389
-0.00334467
-0.00314166
-0.00306499
-0.00301567
-0.00287242
-0.00261325
-0.00227142
-0.00192407
-0.00163453
-0.00139398
-0.00118084
-0.000970445
-0.000739831
-0.000474259
-0.000190268
0.000105257
0.000417698
0.00070758
0.00101117
0.00133417
0.0016626
0.0019714
0.00229091
0.00262691
0.0029692
0.00334772
0.00374233
0.00414345
0.00452539
0.00492397
0.00532581
0.00575325
0.00615394
0.00657032
0.00699176
0.00745753
0.00793679
0.00840101
0.00885692
0.00929977
0.00978742
0.0102676
0.010797
0.0112917
0.0118207
0.0123665
0.0128959
0.0134743
0.0140607
0.0146442
0.0153028
0.0160559
0.0167309
-0.00812887
-0.00891103
-0.0113954
-0.0147491
-0.0163969
-0.0158538
-0.0142981
-0.0129175
-0.012175
-0.0119367
-0.0119046
-0.0118606
-0.0116754
-0.0112943
-0.0108076
-0.0104301
-0.0102256
-0.0100547
-0.00984353
-0.00961154
-0.00931448
-0.00894426
-0.00858011
-0.00827235
-0.00800258
-0.00773098
-0.00745879
-0.00721095
-0.00698268
-0.00675197
-0.00651565
-0.00631565
-0.00618113
-0.00606228
-0.00591449
-0.00577376
-0.00568746
-0.00559532
-0.00542331
-0.00520097
-0.00500423
-0.00482251
-0.00462913
-0.00439863
-0.004144
-0.00389806
-0.0036329
-0.00334382
-0.00314058
-0.00306342
-0.00301433
-0.00287155
-0.00261245
-0.00227037
-0.00192307
-0.00163374
-0.00139314
-0.00117993
-0.000969688
-0.000739237
-0.000473645
-0.000189576
0.000105877
0.000418219
0.000708063
0.00101166
0.00133462
0.001663
0.00197176
0.00229122
0.00262718
0.00296942
0.00334795
0.00374258
0.0041437
0.0045256
0.00492417
0.005326
0.00575345
0.00615413
0.00657048
0.00699192
0.00745769
0.00793699
0.00840121
0.0088571
0.00929992
0.00978758
0.0102678
0.0107972
0.0112919
0.0118208
0.0123666
0.012896
0.0134743