/*--------------------------------*- C++ -*----------------------------------*\
| =========                 |                                                 |
| \\      /  F ield         | OpenFOAM: The Open Source CFD Toolbox           |
|  \\    /   O peration     | Version:  v1906                                 |
|   \\  /    A nd           | Web:      www.OpenFOAM.com                      |
|    \\/     M anipulation  |                                                 |
\*---------------------------------------------------------------------------*/
FoamFile
{
    version     2.0;
    format      ascii;
    class       surfaceScalarField;
    location    "7.7";
    object      phi;
}
// * * * * * * * * * * * * * * * * * * * * * * * * * * * * * * * * * * * * * //

dimensions      [0 3 -1 0 0 0 0];
oriented        oriented;


internalField   nonuniform List<scalar> 
19000
(
1.22328e-06
5.45365e-07
1.21826e-06
3.14101e-07
1.10537e-06
-2.41042e-07
1.11081e-06
3.35581e-08
1.25528e-06
1.95628e-06
1.10554e-06
7.06384e-07
1.11567e-06
-1.70237e-07
1.134e-06
3.09457e-07
1.10219e-06
-4.64471e-07
1.17757e-06
4.67735e-07
1.16569e-06
3.66229e-07
1.15643e-06
7.23762e-07
1.14672e-06
4.82598e-07
1.13258e-06
2.90907e-07
1.14974e-06
4.83276e-07
1.12041e-06
1.37808e-07
1.14095e-06
5.11078e-07
1.11417e-06
3.22365e-07
1.11704e-06
3.08485e-07
2.67901e-07
1.10122e-06
1.27933e-06
4.90293e-07
1.27533e-06
3.18103e-07
1.15951e-06
-1.25223e-07
1.16756e-06
2.551e-08
1.3154e-06
1.80843e-06
1.16377e-06
8.5802e-07
1.17435e-06
-1.80814e-07
1.1941e-06
2.89702e-07
1.16221e-06
-4.32576e-07
1.24142e-06
3.88525e-07
1.22574e-06
3.81907e-07
1.22185e-06
7.2765e-07
1.20431e-06
5.00139e-07
1.19577e-06
2.99447e-07
1.20132e-06
4.77728e-07
1.18619e-06
1.52936e-07
1.18238e-06
5.14885e-07
1.18713e-06
3.17618e-07
1.15315e-06
3.42458e-07
2.36444e-07
1.18461e-06
1.33571e-06
4.37371e-07
1.33648e-06
3.17325e-07
1.21892e-06
-7.6588e-09
1.22208e-06
2.23508e-08
1.37185e-06
1.65866e-06
1.23704e-06
9.92834e-07
1.23713e-06
-1.80901e-07
1.26799e-06
2.58834e-07
1.23044e-06
-3.9502e-07
1.3113e-06
3.07661e-07
1.29135e-06
4.01856e-07
1.2962e-06
7.22804e-07
1.26738e-06
5.28958e-07
1.26561e-06
3.0122e-07
1.26146e-06
4.81871e-07
1.25522e-06
1.59177e-07
1.24443e-06
5.25675e-07
1.2507e-06
3.11355e-07
1.22873e-06
3.64421e-07
2.36234e-07
1.22894e-06
1.39188e-06
3.89597e-07
1.40256e-06
3.06644e-07
1.2835e-06
1.11404e-07
1.27776e-06
2.80842e-08
1.4262e-06
1.51023e-06
1.32352e-06
1.09551e-06
1.3051e-06
-1.62477e-07
1.34864e-06
2.15291e-07
1.30264e-06
-3.49018e-07
1.37625e-06
2.34057e-07
1.35968e-06
4.18423e-07
1.36701e-06
7.15471e-07
1.33444e-06
5.61532e-07
1.33098e-06
3.04677e-07
1.32618e-06
4.86677e-07
1.32066e-06
1.64694e-07
1.31576e-06
5.30571e-07
1.31415e-06
3.12965e-07
1.30513e-06
3.73448e-07
2.49386e-07
1.29197e-06
1.44754e-06
3.50415e-07
1.47223e-06
2.81946e-07
1.35346e-06
2.3018e-07
1.33536e-06
4.61809e-08
1.47681e-06
1.36877e-06
1.41704e-06
1.15528e-06
1.37716e-06
-1.226e-07
1.42557e-06
1.66884e-07
1.37526e-06
-2.98707e-07
1.43067e-06
1.78652e-07
1.42644e-06
4.22649e-07
1.43224e-06
7.09672e-07
1.40302e-06
5.90747e-07
1.39361e-06
3.14089e-07
1.38954e-06
4.90749e-07
1.38263e-06
1.71601e-07
1.38333e-06
5.29875e-07
1.37727e-06
3.19025e-07
1.37375e-06
3.76964e-07
2.65377e-07
1.35776e-06
1.50338e-06
3.22715e-07
1.54236e-06
2.42959e-07
1.42904e-06
3.43505e-07
1.39737e-06
7.78525e-08
1.52437e-06
1.24177e-06
1.50831e-06
1.17134e-06
1.45314e-06
-6.74233e-08
1.49395e-06
1.26074e-07
1.44701e-06
-2.51775e-07
1.48002e-06
1.45649e-07
1.48951e-06
4.13157e-07
1.49582e-06
7.03356e-07
1.4731e-06
6.13468e-07
1.45841e-06
3.28784e-07
1.45266e-06
4.96495e-07
1.44362e-06
1.80642e-07
1.44682e-06
5.26674e-07
1.43938e-06
3.26462e-07
1.43936e-06
3.76989e-07
2.8092e-07
1.42382e-06
1.56138e-06
3.07551e-07
1.61037e-06
1.93971e-07
1.51055e-06
4.43327e-07
1.4669e-06
1.21503e-07
1.57255e-06
1.13612e-06
1.59221e-06
1.15168e-06
1.53329e-06
-8.50503e-09
1.55762e-06
1.01744e-07
1.51847e-06
-2.12621e-07
1.53273e-06
1.31382e-07
1.5504e-06
3.95487e-07
1.5607e-06
6.9306e-07
1.54569e-06
6.28482e-07
1.52849e-06
3.45985e-07
1.51974e-06
5.05243e-07
1.50759e-06
1.92793e-07
1.51116e-06
5.23098e-07
1.50345e-06
3.34171e-07
1.50688e-06
3.7356e-07
2.94465e-07
1.49334e-06
1.62421e-06
3.03468e-07
1.67609e-06
1.42092e-07
1.59753e-06
5.2189e-07
1.5458e-06
1.7323e-07
1.62651e-06
1.0554e-06
1.67018e-06
1.10801e-06
1.61704e-06
4.46356e-08
1.62334e-06
9.54424e-08
1.591e-06
-1.80275e-07
1.59322e-06
1.29155e-07
1.61262e-06
3.76094e-07
1.62785e-06
6.77832e-07
1.62071e-06
6.35621e-07
1.60413e-06
3.62567e-07
1.5932e-06
5.16169e-07
1.57765e-06
2.08341e-07
1.5807e-06
5.20047e-07
1.57273e-06
3.42146e-07
1.57938e-06
3.66906e-07
3.05319e-07
1.56853e-06
1.69403e-06
3.07011e-07
1.74164e-06
9.44858e-08
1.68807e-06
5.75457e-07
1.63372e-06
2.27575e-07
1.6905e-06
9.98626e-07
1.74678e-06
1.05172e-06
1.70283e-06
8.85854e-08
1.69567e-06
1.02603e-07
1.66687e-06
-1.51473e-07
1.66203e-06
1.33997e-07
1.67903e-06
3.59098e-07
1.69769e-06
6.59166e-07
1.69745e-06
6.35859e-07
1.68389e-06
3.76135e-07
1.67295e-06
5.27108e-07
1.65492e-06
2.26372e-07
1.65766e-06
5.17309e-07
1.64919e-06
3.5061e-07
1.65835e-06
3.57751e-07
3.13411e-07
1.65025e-06
1.77162e-06
3.14111e-07
1.80993e-06
5.6175e-08
1.77967e-06
6.05719e-07
1.7287e-06
2.78546e-07
1.76629e-06
9.61033e-07
1.82581e-06
9.92207e-07
1.78948e-06
1.24916e-07
1.77583e-06
1.16256e-07
1.74851e-06
-1.24152e-07
1.73877e-06
1.43733e-07
1.75135e-06
3.46516e-07
1.77112e-06
6.39393e-07
1.77606e-06
6.30925e-07
1.76664e-06
3.85551e-07
1.75793e-06
5.35818e-07
1.7391e-06
2.45201e-07
1.74252e-06
5.13895e-07
1.73369e-06
3.59439e-07
1.74445e-06
3.46989e-07
3.18967e-07
1.73889e-06
1.85642e-06
3.21438e-07
1.88339e-06
2.92058e-08
1.87086e-06
6.18247e-07
1.82838e-06
3.21025e-07
1.85306e-06
9.36359e-07
1.90906e-06
9.362e-07
1.87711e-06
1.56868e-07
1.86277e-06
1.30599e-07
1.83699e-06
-9.83717e-08
1.82346e-06
1.57263e-07
1.831e-06
3.38973e-07
1.84985e-06
6.20548e-07
1.858e-06
6.22768e-07
1.85267e-06
3.90885e-07
1.84761e-06
5.40875e-07
1.82964e-06
2.63174e-07
1.83492e-06
5.08617e-07
1.82622e-06
3.68135e-07
1.83777e-06
3.35441e-07
3.22264e-07
1.83447e-06
1.94726e-06
3.27015e-07
1.9634e-06
1.30725e-08
1.96198e-06
6.19666e-07
1.93097e-06
3.52028e-07
1.94837e-06
9.18965e-07
1.99697e-06
8.876e-07
1.96694e-06
1.86896e-07
1.95489e-06
1.42651e-07
1.93177e-06
-7.52574e-08
1.91604e-06
1.72995e-07
1.91917e-06
3.35841e-07
1.93587e-06
6.03854e-07
1.94543e-06
6.13204e-07
1.94326e-06
3.93051e-07
1.94223e-06
5.41903e-07
1.92615e-06
2.79257e-07
1.93411e-06
5.00658e-07
1.9261e-06
3.76143e-07
1.93766e-06
3.23888e-07
3.23544e-07
1.93638e-06
2.04311e-06
3.30099e-07
2.0504e-06
5.77497e-09
2.05459e-06
6.15482e-07
2.03548e-06
3.7113e-07
2.04953e-06
9.04919e-07
2.08945e-06
8.47678e-07
2.06038e-06
2.15972e-07
2.05113e-06
1.51899e-07
2.0316e-06
-5.57242e-08
2.01574e-06
1.88848e-07
2.0161e-06
3.35484e-07
2.03039e-06
5.89562e-07
2.03996e-06
6.0364e-07
2.03968e-06
3.93331e-07
2.04225e-06
5.39327e-07
2.02835e-06
2.93165e-07
2.03911e-06
4.89896e-07
2.03214e-06
3.83109e-07
2.04287e-06
3.13155e-07
3.23016e-07
2.0434e-06
2.14337e-06
3.30726e-07
2.14431e-06
4.84344e-09
2.15054e-06
6.09252e-07
2.14167e-06
3.80001e-07
2.15456e-06
8.92026e-07
2.18646e-06
8.15777e-07
2.15846e-06
2.43969e-07
2.15128e-06
1.59077e-07
2.1355e-06
-3.99394e-08
2.12124e-06
2.03107e-07
2.12075e-06
3.3597e-07
2.13316e-06
5.77158e-07
2.14193e-06
5.94869e-07
2.14234e-06
3.92913e-07
2.14771e-06
5.33959e-07
2.13573e-06
3.05147e-07
2.14875e-06
4.76877e-07
2.14296e-06
3.88898e-07
2.15209e-06
3.04022e-07
3.20892e-07
2.15422e-06
2.24792e-06
3.29298e-07
2.24477e-06
7.99339e-09
2.25126e-06
6.02763e-07
2.2498e-06
3.81456e-07
2.26247e-06
8.79354e-07
2.28804e-06
7.90209e-07
2.26176e-06
2.70255e-07
2.25568e-06
1.65154e-07
2.24316e-06
-2.74235e-08
2.23122e-06
2.15048e-07
2.23136e-06
3.35833e-07
2.24271e-06
5.65812e-07
2.25048e-06
5.87098e-07
2.25079e-06
3.92606e-07
2.25808e-06
5.26661e-07
2.24758e-06
3.15646e-07
2.26195e-06
4.62514e-07
2.25737e-06
3.9348e-07
2.26437e-06
2.97022e-07
3.17385e-07
2.26787e-06
2.35684e-06
3.26338e-07
2.35142e-06
1.34122e-08
2.35759e-06
5.9659e-07
2.36053e-06
3.78513e-07
2.37322e-06
8.6667e-07
2.39437e-06
7.69051e-07
2.37054e-06
2.94086e-07
2.36483e-06
1.70871e-07
2.35477e-06
-1.73666e-08
2.34489e-06
2.24924e-07
2.3463e-06
3.34427e-07
2.35732e-06
5.54796e-07
2.36425e-06
5.80159e-07
2.36409e-06
3.92774e-07
2.37257e-06
5.18175e-07
2.36319e-06
3.25033e-07
2.37796e-06
4.47743e-07
2.3746e-06
3.96832e-07
2.37934e-06
2.92285e-07
3.12715e-07
2.38401e-06
2.47038e-06
3.22358e-07
2.46397e-06
1.98171e-08
2.46993e-06
5.9063e-07
2.47466e-06
3.73783e-07
2.48732e-06
8.54006e-07
2.50573e-06
7.50647e-07
2.48496e-06
3.14853e-07
2.47914e-06
1.76697e-07
2.47068e-06
-8.91143e-09
2.46207e-06
2.33538e-07
2.46466e-06
3.31835e-07
2.47578e-06
5.43674e-07
2.48217e-06
5.73775e-07
2.48151e-06
3.93431e-07
2.49063e-06
5.09056e-07
2.48212e-06
3.33544e-07
2.4966e-06
4.33257e-07
2.49449e-06
3.98948e-07
2.49717e-06
2.89605e-07
3.07075e-07
2.50281e-06
2.58886e-06
3.17792e-07
2.58227e-06
2.6407e-08
2.58844e-06
5.84464e-07
2.59299e-06
3.69231e-07
2.60561e-06
8.41383e-07
2.62248e-06
7.3378e-07
2.6051e-06
3.32226e-07
2.59886e-06
1.82939e-07
2.5913e-06
-1.34816e-09
2.58304e-06
2.41794e-07
2.58632e-06
3.28555e-07
2.59774e-06
5.32263e-07
2.60379e-06
5.67717e-07
2.60285e-06
3.94376e-07
2.61222e-06
4.99687e-07
2.60446e-06
3.41299e-07
2.61827e-06
4.19447e-07
2.61736e-06
3.99858e-07
2.61837e-06
2.886e-07
3.00636e-07
2.62481e-06
2.71267e-06
3.12947e-07
2.70629e-06
3.27919e-08
2.71318e-06
5.77569e-07
2.71622e-06
3.66191e-07
2.7289e-06
8.28705e-07
2.74504e-06
7.17642e-07
2.73104e-06
3.4622e-07
2.72415e-06
1.89838e-07
2.71701e-06
5.78411e-09
2.70841e-06
2.50401e-07
2.71174e-06
3.25223e-07
2.72352e-06
5.20486e-07
2.72937e-06
5.61863e-07
2.72845e-06
3.95299e-07
2.73786e-06
4.90277e-07
2.73074e-06
3.48412e-07
2.74375e-06
4.06443e-07
2.74399e-06
3.99613e-07
2.74369e-06
2.88906e-07
2.93582e-07
2.75074e-06
2.84223e-06
3.07982e-07
2.83611e-06
3.89138e-08
2.84424e-06
5.69441e-07
2.84498e-06
3.65451e-07
2.85792e-06
8.15761e-07
2.87379e-06
7.01774e-07
2.86289e-06
3.57121e-07
2.85511e-06
1.97616e-07
2.84821e-06
1.26901e-08
2.83886e-06
2.59746e-07
2.84163e-06
3.22449e-07
2.85386e-06
5.08261e-07
2.85957e-06
5.56155e-07
2.85895e-06
3.95919e-07
2.86835e-06
4.80871e-07
2.86173e-06
3.55031e-07
2.87396e-06
3.94218e-07
2.87531e-06
3.98262e-07
2.87394e-06
2.90276e-07
2.86132e-07
2.88139e-06
2.97796e-06
3.02916e-07
2.97193e-06
4.495e-08
2.98169e-06
5.59675e-07
2.9798e-06
3.67348e-07
2.99328e-06
8.0228e-07
3.00904e-06
6.86008e-07
3.00082e-06
3.6534e-07
2.99198e-06
2.06456e-07
2.98526e-06
1.94085e-08
2.97514e-06
2.69866e-07
2.97685e-06
3.20745e-07
2.98962e-06
4.95485e-07
2.99522e-06
5.50559e-07
2.99506e-06
3.96075e-07
3.00457e-06
4.71365e-07
2.99827e-06
3.61329e-07
3.00975e-06
3.8274e-07
3.01228e-06
3.95733e-07
3.00993e-06
2.92626e-07
2.78563e-07
3.0175e-06
3.12026e-06
2.97663e-07
3.11399e-06
5.12144e-08
3.12568e-06
5.47986e-07
3.12116e-06
3.71874e-07
3.13546e-06
7.87984e-07
3.15104e-06
6.7042e-07
3.14509e-06
3.71297e-07
3.13509e-06
2.16453e-07
3.12857e-06
2.59288e-08
3.11794e-06
2.80491e-07
3.11819e-06
3.205e-07
3.13161e-06
4.82066e-07
3.13713e-06
5.45039e-07
3.13743e-06
3.95772e-07
3.14723e-06
4.61572e-07
3.14113e-06
3.67427e-07
3.15179e-06
3.72074e-07
3.15568e-06
3.91844e-07
3.15242e-06
2.95889e-07
2.71287e-07
3.1597e-06
3.2695e-06
2.92076e-07
3.26264e-06
5.80703e-08
3.27642e-06
5.34203e-07
3.26949e-06
3.78807e-07
3.28485e-06
7.72629e-07
3.30004e-06
6.55223e-07
3.29597e-06
3.7537e-07
3.28484e-06
2.27582e-07
3.27848e-06
3.22891e-08
3.26782e-06
2.91147e-07
3.26637e-06
3.21956e-07
3.28047e-06
4.67966e-07
3.28597e-06
5.39541e-07
3.28657e-06
3.95171e-07
3.29685e-06
4.51285e-07
3.29094e-06
3.73342e-07
3.30059e-06
3.62423e-07
3.30609e-06
3.86348e-07
3.3021e-06
2.99876e-07
2.6487e-07
3.30852e-06
3.42602e-06
2.85985e-07
3.41822e-06
6.58711e-08
3.43419e-06
5.18236e-07
3.42516e-06
3.87837e-07
3.44173e-06
7.56056e-07
3.45631e-06
6.40645e-07
3.45378e-06
3.77899e-07
3.44168e-06
2.39683e-07
3.43535e-06
3.86183e-08
3.42521e-06
3.01286e-07
3.42195e-06
3.2522e-07
3.43669e-06
4.53226e-07
3.44226e-06
5.33965e-07
3.44287e-06
3.94565e-07
3.45381e-06
4.40345e-07
3.44823e-06
3.78918e-07
3.4565e-06
3.54157e-07
3.46382e-06
3.79022e-07
3.45951e-06
3.04191e-07
2.59922e-07
3.46445e-06
3.59018e-06
2.79213e-07
3.58112e-06
7.49306e-08
3.5993e-06
5.00057e-07
3.5885e-06
3.98644e-07
3.60634e-06
7.38215e-07
3.62016e-06
6.26824e-07
3.61885e-06
3.79212e-07
3.60605e-06
2.5248e-07
3.59953e-06
4.51344e-08
3.59042e-06
3.10395e-07
3.58537e-06
3.30271e-07
3.60061e-06
4.37992e-07
3.60645e-06
5.28127e-07
3.60669e-06
3.94325e-07
3.61833e-06
4.28697e-07
3.61342e-06
3.83833e-07
3.61988e-06
3.47698e-07
3.62903e-06
3.69874e-07
3.62507e-06
3.0815e-07
2.56959e-07
3.62803e-06
3.76233e-06
2.71591e-07
3.75174e-06
8.55135e-08
3.7721e-06
4.79698e-07
3.75984e-06
4.10909e-07
3.77887e-06
7.1919e-07
3.79193e-06
6.13755e-07
3.7915e-06
3.79643e-07
3.77837e-06
2.65615e-07
3.7714e-06
5.21038e-08
3.76375e-06
3.18047e-07
3.75702e-06
3.36997e-07
3.7725e-06
4.22513e-07
3.77887e-06
5.21761e-07
3.77837e-06
3.94819e-07
3.79062e-06
4.16448e-07
3.78682e-06
3.87633e-07
3.79119e-06
3.43332e-07
3.80177e-06
3.59299e-07
3.79904e-06
3.10876e-07
2.56191e-07
3.79981e-06
3.94282e-06
2.62959e-07
3.93051e-06
9.78249e-08
3.95294e-06
4.57269e-07
3.93955e-06
4.24296e-07
3.95956e-06
6.99177e-07
3.97202e-06
6.01301e-07
3.97212e-06
3.79534e-07
3.95905e-06
2.78691e-07
3.95137e-06
5.9784e-08
3.94546e-06
3.2396e-07
3.93726e-06
3.45189e-07
3.95262e-06
4.07158e-07
3.95986e-06
5.14523e-07
3.9583e-06
3.96372e-07
3.97091e-06
4.03842e-07
3.9687e-06
3.89837e-07
3.97095e-06
3.41083e-07
3.9822e-06
3.48052e-07
3.98152e-06
3.11558e-07
2.5731e-07
3.9804e-06
4.13203e-06
2.53182e-07
4.11786e-06
1.11997e-07
4.14216e-06
4.32968e-07
4.12802e-06
4.38433e-07
4.14872e-06
6.78474e-07
4.16081e-06
5.89217e-07
4.16111e-06
3.7923e-07
4.14848e-06
2.91319e-07
4.13989e-06
6.83768e-08
4.13585e-06
3.28003e-07
4.12648e-06
3.54556e-07
4.14128e-06
3.92359e-07
4.14969e-06
5.06114e-07
4.14691e-06
3.99147e-07
4.15949e-06
3.91267e-07
4.15929e-06
3.90032e-07
4.15966e-06
3.40714e-07
4.17067e-06
3.37045e-07
4.17252e-06
3.09712e-07
2.59458e-07
4.17037e-06
4.33032e-06
2.42163e-07
4.31425e-06
1.28067e-07
4.34014e-06
4.07074e-07
4.32567e-06
4.52904e-07
4.34671e-06
6.57432e-07
4.35873e-06
5.77203e-07
4.35891e-06
3.79051e-07
4.34706e-06
3.03165e-07
4.33745e-06
7.79892e-08
4.33524e-06
3.30209e-07
4.32507e-06
3.64729e-07
4.33885e-06
3.78578e-07
4.34867e-06
4.96301e-07
4.34468e-06
4.03135e-07
4.35674e-06
3.79205e-07
4.35881e-06
3.87965e-07
4.35776e-06
3.41757e-07
4.36767e-06
3.27134e-07
4.37209e-06
3.05295e-07
2.61514e-07
4.37003e-06
4.53807e-06
2.29863e-07
4.52017e-06
1.45968e-07
4.54731e-06
3.79942e-07
4.53295e-06
4.67256e-07
4.55394e-06
6.36441e-07
4.56622e-06
5.64926e-07
4.56599e-06
3.79285e-07
4.55518e-06
3.13971e-07
4.54455e-06
8.862e-08
4.54401e-06
3.30749e-07
4.53344e-06
3.75303e-07
4.54578e-06
3.66238e-07
4.55711e-06
4.84967e-07
4.55211e-06
4.08135e-07
4.56306e-06
3.68252e-07
4.56749e-06
3.83542e-07
4.5657e-06
3.43545e-07
4.57388e-06
3.18949e-07
4.58037e-06
2.98808e-07
2.6234e-07
4.57954e-06
4.75567e-06
2.16304e-07
4.73613e-06
1.65516e-07
4.76409e-06
3.51981e-07
4.75032e-06
4.8102e-07
4.77086e-06
6.159e-07
4.78373e-06
5.52059e-07
4.78285e-06
3.80162e-07
4.77322e-06
3.23602e-07
4.76171e-06
1.00137e-07
4.76256e-06
3.29897e-07
4.75198e-06
3.85876e-07
4.76252e-06
3.55701e-07
4.77542e-06
4.72065e-07
4.76974e-06
4.13817e-07
4.77897e-06
3.59025e-07
4.78578e-06
3.76729e-07
4.78388e-06
3.45444e-07
4.79006e-06
3.12771e-07
4.79774e-06
2.91131e-07
2.61172e-07
4.7989e-06
4.98353e-06
2.01573e-07
4.96261e-06
1.8643e-07
4.99095e-06
3.23649e-07
4.97827e-06
4.93694e-07
4.99794e-06
5.96231e-07
5.01172e-06
5.38283e-07
5.01003e-06
3.81849e-07
5.00155e-06
3.32081e-07
4.98941e-06
1.12278e-07
4.99134e-06
3.27963e-07
4.98113e-06
3.96091e-07
4.98959e-06
3.47238e-07
5.00403e-06
4.57628e-07
4.99812e-06
4.19727e-07
5.00509e-06
3.52058e-07
5.01412e-06
3.67692e-07
5.0128e-06
3.46771e-07
5.01693e-06
3.08636e-07
5.02483e-06
2.83233e-07
2.57863e-07
5.02814e-06
5.22208e-06
1.85812e-07
5.20016e-06
2.08351e-07
5.22835e-06
2.95458e-07
5.21733e-06
5.04715e-07
5.23565e-06
5.77903e-07
5.25064e-06
5.233e-07
5.24806e-06
3.84422e-07
5.24057e-06
3.39573e-07
5.22815e-06
1.24703e-07
5.23089e-06
3.25223e-07
5.22132e-06
4.05659e-07
5.22755e-06
3.4101e-07
5.24336e-06
4.4182e-07
5.23785e-06
4.25238e-07
5.24217e-06
3.47729e-07
5.25293e-06
3.5694e-07
5.25291e-06
3.46788e-07
5.25517e-06
3.06375e-07
5.26244e-06
2.75961e-07
2.52844e-07
5.26746e-06
5.4718e-06
1.692e-07
5.44929e-06
2.3086e-07
5.47675e-06
2.67998e-07
5.46804e-06
5.13425e-07
5.48452e-06
5.61423e-07
5.50094e-06
5.06882e-07
5.49761e-06
3.87749e-07
5.49075e-06
3.46434e-07
5.47838e-06
1.37077e-07
5.48172e-06
3.21878e-07
5.47306e-06
4.14317e-07
5.47693e-06
3.37147e-07
5.49388e-06
4.24864e-07
5.48945e-06
4.29671e-07
5.49096e-06
3.46224e-07
5.50274e-06
3.4516e-07
5.50464e-06
3.44883e-07
5.50537e-06
3.05647e-07
5.51146e-06
2.69869e-07
2.46874e-07
5.51743e-06
5.73321e-06
1.51948e-07
5.71058e-06
2.5349e-07
5.73661e-06
2.41973e-07
5.73101e-06
5.19025e-07
5.7451e-06
5.47327e-07
5.76307e-06
4.88918e-07
5.75937e-06
3.91442e-07
5.75264e-06
3.53172e-07
5.74056e-06
1.49153e-07
5.74442e-06
3.18018e-07
5.73689e-06
4.2185e-07
5.73835e-06
3.35681e-07
5.75607e-06
4.07143e-07
5.75347e-06
4.32272e-07
5.75216e-06
3.47535e-07
5.76409e-06
3.33228e-07
5.76839e-06
3.40582e-07
5.76811e-06
3.05927e-07
5.77268e-06
2.65302e-07
2.40656e-07
5.7789e-06
6.00686e-06
1.34285e-07
5.98462e-06
2.75726e-07
6.00835e-06
2.18239e-07
6.00684e-06
5.20541e-07
6.01801e-06
5.36159e-07
6.03748e-06
4.69445e-07
6.03401e-06
3.94907e-07
6.02687e-06
3.60316e-07
6.01516e-06
1.60864e-07
6.01959e-06
3.13591e-07
6.01335e-06
4.28084e-07
6.01244e-06
3.36588e-07
6.03047e-06
3.89114e-07
6.03037e-06
4.32372e-07
6.02656e-06
3.51347e-07
6.03755e-06
3.22235e-07
6.04456e-06
3.3358e-07
6.04398e-06
3.06503e-07
6.04682e-06
2.6246e-07
2.34739e-07
6.05274e-06
6.29331e-06
1.16461e-07
6.27203e-06
2.97002e-07
6.29242e-06
1.97851e-07
6.29619e-06
5.16771e-07
6.30391e-06
5.28446e-07
6.32461e-06
4.48746e-07
6.32213e-06
3.97387e-07
6.31416e-06
3.68281e-07
6.30269e-06
1.7233e-07
6.3078e-06
3.08486e-07
6.30307e-06
4.32814e-07
6.29989e-06
3.3977e-07
6.31763e-06
3.71371e-07
6.32057e-06
4.29436e-07
6.3149e-06
3.57011e-07
6.32387e-06
3.13264e-07
6.33342e-06
3.24027e-07
6.33355e-06
3.06375e-07
6.33457e-06
2.61442e-07
2.29534e-07
6.33978e-06
6.59318e-06
9.87504e-08
6.57348e-06
3.16701e-07
6.58938e-06
1.8195e-07
6.59976e-06
5.06393e-07
6.60358e-06
5.24625e-07
6.62479e-06
4.27542e-07
6.62422e-06
3.97951e-07
6.61526e-06
3.77246e-07
6.60379e-06
1.83796e-07
6.60962e-06
3.02662e-07
6.60666e-06
4.3577e-07
6.60141e-06
3.45017e-07
6.6181e-06
3.54683e-07
6.62442e-06
4.2312e-07
6.61784e-06
3.63588e-07
6.62396e-06
3.07144e-07
6.63537e-06
3.12615e-07
6.63726e-06
3.04491e-07
6.63677e-06
2.61929e-07
2.25625e-07
6.64068e-06
6.9071e-06
8.14423e-08
6.88963e-06
3.34165e-07
6.90051e-06
1.71076e-07
6.91806e-06
4.88838e-07
6.91811e-06
5.24576e-07
6.93857e-06
4.0709e-07
6.94075e-06
3.95767e-07
6.93096e-06
3.87031e-07
6.91908e-06
1.95681e-07
6.92562e-06
2.96119e-07
6.92472e-06
4.36673e-07
6.91776e-06
3.51979e-07
6.93258e-06
3.3986e-07
6.94232e-06
4.13381e-07
6.93586e-06
3.70048e-07
6.93877e-06
3.04231e-07
6.95098e-06
3.00402e-07
6.95534e-06
3.0014e-07
6.9542e-06
2.63067e-07
2.2346e-07
6.95636e-06
7.23574e-06
6.48391e-08
7.22118e-06
3.48728e-07
7.22683e-06
1.65421e-07
7.25083e-06
4.64838e-07
7.24857e-06
5.26833e-07
7.26671e-06
3.88956e-07
7.27214e-06
3.90339e-07
7.26206e-06
3.97105e-07
7.24929e-06
2.08456e-07
7.25643e-06
2.88973e-07
7.25783e-06
4.35279e-07
7.2496e-06
3.6021e-07
7.2619e-06
3.27555e-07
7.27465e-06
4.00629e-07
7.26943e-06
3.75269e-07
7.26928e-06
3.0438e-07
7.28105e-06
2.88633e-07
7.2881e-06
2.93096e-07
7.28733e-06
2.63838e-07
2.22965e-07
7.28782e-06
7.57982e-06
4.92449e-08
7.56879e-06
3.59756e-07
7.5693e-06
1.64915e-07
7.59807e-06
4.3607e-07
7.59577e-06
5.29129e-07
7.61011e-06
3.74617e-07
7.61883e-06
3.81614e-07
7.60931e-06
4.06633e-07
7.5952e-06
2.2256e-07
7.60267e-06
2.815e-07
7.6065e-06
4.31457e-07
7.59762e-06
3.69092e-07
7.60694e-06
3.18233e-07
7.62193e-06
3.85638e-07
7.619e-06
3.78198e-07
7.61636e-06
3.07022e-07
7.62653e-06
2.78456e-07
7.63592e-06
2.83709e-07
7.63649e-06
2.6327e-07
2.23548e-07
7.63591e-06
7.9401e-06
3.49549e-08
7.93318e-06
3.66678e-07
7.92884e-06
1.69258e-07
7.9605e-06
4.04407e-07
7.96025e-06
5.29373e-07
7.96976e-06
3.65108e-07
7.98137e-06
3.70012e-07
7.97334e-06
4.14662e-07
7.95775e-06
2.38147e-07
7.96494e-06
2.74313e-07
7.97128e-06
4.25112e-07
7.96245e-06
3.77925e-07
7.96848e-06
3.12203e-07
7.98479e-06
3.69331e-07
7.98492e-06
3.78058e-07
7.98074e-06
3.11203e-07
7.98847e-06
2.70729e-07
7.99948e-06
2.72704e-07
8.00202e-06
2.60727e-07
2.24402e-07
8.00116e-06
8.31739e-06
2.22492e-08
8.31506e-06
3.69005e-07
8.30635e-06
1.77972e-07
8.33895e-06
3.71804e-07
8.34261e-06
5.25714e-07
8.34669e-06
3.61031e-07
8.36029e-06
3.56404e-07
8.35475e-06
4.20208e-07
8.33776e-06
2.55137e-07
8.34391e-06
2.68162e-07
8.35261e-06
4.16409e-07
8.34462e-06
3.85911e-07
8.34738e-06
3.09446e-07
8.36403e-06
3.52687e-07
8.36761e-06
3.74479e-07
8.36308e-06
3.15729e-07
8.36797e-06
2.65839e-07
8.37963e-06
2.6104e-07
8.38437e-06
2.55987e-07
2.24799e-07
8.38398e-06
8.71253e-06
1.13821e-08
8.71519e-06
3.66346e-07
8.7027e-06
1.90457e-07
8.73431e-06
3.40202e-07
8.74329e-06
5.16728e-07
8.74194e-06
3.62377e-07
8.75621e-06
3.42136e-07
8.75408e-06
4.2234e-07
8.73603e-06
2.73188e-07
8.74024e-06
2.63947e-07
8.75095e-06
4.05699e-07
8.74466e-06
3.92211e-07
8.74459e-06
3.09514e-07
8.76063e-06
3.3664e-07
8.76758e-06
3.6753e-07
8.76394e-06
3.19369e-07
8.76617e-06
2.63612e-07
8.77735e-06
2.49858e-07
8.78426e-06
2.49081e-07
2.24238e-07
8.78482e-06
9.12643e-06
2.5707e-09
9.13421e-06
3.58566e-07
9.11875e-06
2.05917e-07
9.14755e-06
3.11407e-07
9.16264e-06
5.01635e-07
9.15673e-06
3.6829e-07
9.16993e-06
3.28931e-07
9.17178e-06
4.20495e-07
9.15343e-06
2.91534e-07
9.1547e-06
2.62674e-07
9.16706e-06
3.93345e-07
9.16321e-06
3.96053e-07
9.16113e-06
3.11594e-07
9.17572e-06
3.22053e-07
9.18564e-06
3.57608e-07
9.18392e-06
3.21093e-07
9.18413e-06
2.63404e-07
9.19375e-06
2.40238e-07
9.20248e-06
2.40348e-07
2.22348e-07
9.20437e-06
9.56005e-06
-4.02179e-09
9.57278e-06
3.45835e-07
9.55537e-06
2.23327e-07
9.57982e-06
2.86966e-07
9.60093e-06
4.8052e-07
9.59214e-06
3.77081e-07
9.60243e-06
3.18641e-07
9.60823e-06
4.14691e-07
9.59093e-06
3.08832e-07
9.58881e-06
2.64801e-07
9.60214e-06
3.80015e-07
9.60131e-06
3.96878e-07
9.59811e-06
3.14799e-07
9.61059e-06
3.09568e-07
9.62282e-06
3.45379e-07
9.62357e-06
3.20347e-07
9.62273e-06
2.64238e-07
9.63006e-06
2.32908e-07
9.63985e-06
2.30558e-07
2.18712e-07
9.64349e-06
1.00144e-05
-8.31237e-09
1.00317e-05
3.28595e-07
1.00135e-05
2.41457e-07
1.00325e-05
2.68005e-07
1.00589e-05
4.54116e-07
1.00493e-05
3.86692e-07
1.00549e-05
3.1304e-07
1.00641e-05
4.05457e-07
1.00497e-05
3.23304e-07
1.00444e-05
2.70073e-07
1.00576e-05
3.66763e-07
1.006e-05
3.94463e-07
1.00565e-05
3.18309e-07
1.00667e-05
2.99453e-07
1.00803e-05
3.31754e-07
1.00836e-05
3.16985e-07
1.00827e-05
2.65147e-07
1.00877e-05
2.2793e-07
1.00974e-05
2.20827e-07
2.13143e-07
1.0103e-05
1.04907e-05
-1.03269e-08
1.05117e-05
3.07598e-07
1.04942e-05
2.58897e-07
1.0507e-05
2.55243e-07
1.05375e-05
4.2361e-07
1.05295e-05
3.94704e-07
1.05297e-05
3.12823e-07
1.05408e-05
3.94377e-07
1.05302e-05
3.33824e-07
1.0523e-05
2.77355e-07
1.05351e-05
3.54598e-07
1.05404e-05
3.89229e-07
1.05373e-05
3.21336e-07
1.05452e-05
2.91628e-07
1.05592e-05
3.17663e-07
1.0565e-05
3.11199e-07
1.05648e-05
2.65371e-07
1.0568e-05
2.24778e-07
1.05765e-05
2.12261e-07
2.05908e-07
1.05838e-05
1.09899e-05
-1.02233e-08
1.10136e-05
2.83882e-07
1.09984e-05
2.7414e-07
1.10047e-05
2.48932e-07
1.10377e-05
3.90619e-07
1.10336e-05
3.98771e-07
1.10291e-05
3.17388e-07
1.10398e-05
3.83619e-07
1.10334e-05
3.40273e-07
1.10256e-05
2.85122e-07
1.1036e-05
3.44171e-07
1.10434e-05
3.81879e-07
1.10413e-05
3.23365e-07
1.10472e-05
2.85754e-07
1.1061e-05
3.03892e-07
1.10689e-05
3.03323e-07
1.10698e-05
2.64487e-07
1.10718e-05
2.22705e-07
1.10788e-05
2.05329e-07
1.97905e-07
1.10868e-05
1.15134e-05
-8.29208e-09
1.15386e-05
2.58697e-07
1.1527e-05
2.85725e-07
1.15273e-05
2.48698e-07
1.15606e-05
3.57322e-07
1.1562e-05
3.97289e-07
1.15542e-05
3.25241e-07
1.15629e-05
3.74935e-07
1.156e-05
3.43138e-07
1.15529e-05
2.92226e-07
1.15615e-05
3.35568e-07
1.15703e-05
3.73139e-07
1.15695e-05
3.24109e-07
1.15739e-05
2.81377e-07
1.15868e-05
2.90981e-07
1.15963e-05
2.9383e-07
1.15985e-05
2.62257e-07
1.16002e-05
2.21051e-07
1.16056e-05
1.99921e-07
1.90142e-07
1.16133e-05
1.20625e-05
-4.96662e-09
1.20878e-05
2.33411e-07
1.20811e-05
2.92422e-07
1.20763e-05
2.5351e-07
1.21073e-05
3.2634e-07
1.21151e-05
3.89483e-07
1.21059e-05
3.34363e-07
1.21116e-05
3.69305e-07
1.21113e-05
3.43454e-07
1.21056e-05
2.97912e-07
1.21127e-05
3.284e-07
1.21222e-05
3.63649e-07
1.21229e-05
3.23415e-07
1.21262e-05
2.78109e-07
1.2138e-05
2.79216e-07
1.21485e-05
2.83233e-07
1.21522e-05
2.58577e-07
1.21539e-05
2.19358e-07
1.21583e-05
1.95592e-07
1.83286e-07
1.21651e-05
1.26384e-05
-7.74956e-10
1.26625e-05
2.09341e-07
1.26615e-05
2.93436e-07
1.2653e-05
2.61942e-07
1.26795e-05
2.99875e-07
1.26932e-05
3.75772e-07
1.26851e-05
3.42498e-07
1.26874e-05
3.66941e-07
1.26884e-05
3.42524e-07
1.26845e-05
3.01788e-07
1.26908e-05
3.22108e-07
1.27006e-05
3.53826e-07
1.27027e-05
3.21297e-07
1.27054e-05
2.75474e-07
1.27157e-05
2.68827e-07
1.2727e-05
2.71992e-07
1.27321e-05
2.53464e-07
1.27341e-05
2.17359e-07
1.27378e-05
1.9187e-07
1.77446e-07
1.27437e-05
1.32424e-05
3.74599e-09
1.32642e-05
1.87566e-07
1.3269e-05
2.88621e-07
1.32586e-05
2.72299e-07
1.32792e-05
2.7936e-07
1.32974e-05
3.57488e-07
1.32922e-05
3.47749e-07
1.32917e-05
3.67439e-07
1.32929e-05
3.41364e-07
1.32908e-05
3.03864e-07
1.32967e-05
3.16161e-07
1.33067e-05
3.43833e-07
1.33101e-05
3.17872e-07
1.33126e-05
2.73049e-07
1.33215e-05
2.59904e-07
1.33329e-05
2.60601e-07
1.33394e-05
2.46948e-07
1.33419e-05
2.14868e-07
1.33453e-05
1.88436e-07
1.72368e-07
1.33504e-05
1.38758e-05
8.11598e-09
1.38946e-05
1.688e-07
1.39046e-05
2.7862e-07
1.38942e-05
2.82673e-07
1.39083e-05
2.6527e-07
1.39289e-05
3.36883e-07
1.39276e-05
3.49069e-07
1.39255e-05
3.69484e-07
1.39264e-05
3.40499e-07
1.39258e-05
3.04486e-07
1.39317e-05
3.10181e-07
1.39419e-05
3.33707e-07
1.39465e-05
3.13263e-07
1.3949e-05
2.70527e-07
1.39567e-05
2.52249e-07
1.39677e-05
2.49585e-07
1.39755e-05
2.3915e-07
1.39787e-05
2.11642e-07
1.39819e-05
1.85239e-07
1.67678e-07
1.39866e-05
1.45398e-05
1.19389e-08
1.45548e-05
1.5384e-07
1.45691e-05
2.64344e-07
1.45608e-05
2.90982e-07
1.45684e-05
2.57614e-07
1.45881e-05
3.17165e-07
1.45914e-05
3.45858e-07
1.459e-05
3.70828e-07
1.45906e-05
3.39944e-07
1.45909e-05
3.04126e-07
1.45971e-05
3.03969e-07
1.46075e-05
3.23369e-07
1.46131e-05
3.0759e-07
1.4616e-05
2.67709e-07
1.46226e-05
2.45577e-07
1.46329e-05
2.39305e-07
1.46416e-05
2.30488e-07
1.46459e-05
2.07332e-07
1.46489e-05
1.82236e-07
1.63208e-07
1.46534e-05
1.52359e-05
1.49551e-08
1.52468e-05
1.42866e-07
1.5265e-05
2.4619e-07
1.52594e-05
2.96576e-07
1.52604e-05
2.56638e-07
1.52763e-05
3.01289e-07
1.5285e-05
3.37094e-07
1.52863e-05
3.69518e-07
1.52869e-05
3.39376e-07
1.52878e-05
3.03238e-07
1.52942e-05
2.97551e-07
1.53048e-05
3.12794e-07
1.53115e-05
3.00823e-07
1.53148e-05
2.64447e-07
1.53207e-05
2.39673e-07
1.53302e-05
2.29801e-07
1.53392e-05
2.21519e-07
1.53448e-05
2.01757e-07
1.53479e-05
1.79112e-07
1.59019e-07
1.53521e-05
1.59653e-05
1.69393e-08
1.59789e-05
1.29292e-07
1.59965e-05
2.28579e-07
1.59893e-05
3.03792e-07
1.59862e-05
2.59729e-07
1.59983e-05
2.89212e-07
1.60111e-05
3.24328e-07
1.60158e-05
3.64768e-07
1.6017e-05
3.3822e-07
1.60181e-05
3.02137e-07
1.60245e-05
2.91101e-07
1.60353e-05
3.02036e-07
1.60431e-05
2.93012e-07
1.60471e-05
2.60488e-07
1.60523e-05
2.34376e-07
1.60611e-05
2.21038e-07
1.607e-05
2.12627e-07
1.60766e-05
1.95195e-07
1.60803e-05
1.75333e-07
1.55215e-07
1.60841e-05
1.6729e-05
1.85353e-08
1.67276e-05
1.30649e-07
1.67452e-05
2.10995e-07
1.67504e-05
2.9858e-07
1.67489e-05
2.61243e-07
1.67577e-05
2.80404e-07
1.67717e-05
3.1033e-07
1.67798e-05
3.56722e-07
1.67822e-05
3.35798e-07
1.67835e-05
3.00805e-07
1.67898e-05
2.84849e-07
1.68006e-05
2.91229e-07
1.68094e-05
2.84221e-07
1.68143e-05
2.55589e-07
1.68193e-05
2.294e-07
1.68273e-05
2.13043e-07
1.6836e-05
2.03927e-07
1.6843e-05
1.88151e-07
1.68477e-05
1.70626e-07
1.51532e-07
1.68514e-05
1.75295e-05
1.93534e-08
1.75329e-05
1.27335e-07
1.75456e-05
1.98262e-07
1.75503e-05
2.9389e-07
1.7549e-05
2.62507e-07
1.75551e-05
2.74341e-07
1.75688e-05
2.96654e-07
1.75798e-05
3.45694e-07
1.75839e-05
3.31661e-07
1.75857e-05
2.98984e-07
1.75917e-05
2.78915e-07
1.76023e-05
2.80559e-07
1.76119e-05
2.74678e-07
1.76178e-05
2.49662e-07
1.76228e-05
2.24365e-07
1.76301e-05
2.05803e-07
1.76385e-05
1.95472e-07
1.76458e-05
1.80904e-07
1.76512e-05
1.65249e-07
1.47445e-07
1.76553e-05
1.8368e-05
1.96889e-08
1.8367e-05
1.28323e-07
1.83799e-05
1.85424e-07
1.83883e-05
2.85445e-07
1.83883e-05
2.62488e-07
1.83922e-05
2.70455e-07
1.84044e-05
2.84471e-07
1.84174e-05
3.32671e-07
1.84237e-05
3.25424e-07
1.84263e-05
2.96378e-07
1.84319e-05
2.73284e-07
1.84422e-05
2.70206e-07
1.84524e-05
2.64539e-07
1.84593e-05
2.42753e-07
1.84647e-05
2.18941e-07
1.84714e-05
1.99092e-07
1.84794e-05
1.8746e-07
1.84869e-05
1.73452e-07
1.84925e-05
1.59594e-07
1.42716e-07
1.84973e-05
1.92465e-05
1.95762e-08
1.92458e-05
1.28999e-07
1.92559e-05
1.75308e-07
1.92662e-05
2.75195e-07
1.92678e-05
2.60865e-07
1.92705e-05
2.67804e-07
1.92808e-05
2.7412e-07
1.92947e-05
3.18757e-07
1.93031e-05
3.17026e-07
1.93069e-05
2.92598e-07
1.93125e-05
2.67719e-07
1.93223e-05
2.60342e-07
1.93328e-05
2.54062e-07
1.93406e-05
2.3495e-07
1.93466e-05
2.12971e-07
1.93531e-05
1.92556e-07
1.93606e-05
1.79992e-07
1.93682e-05
1.65884e-07
1.93742e-05
1.53582e-07
1.37668e-07
1.93792e-05
2.01668e-05
1.91827e-08