/*--------------------------------*- C++ -*----------------------------------*\
| =========                 |                                                 |
| \\      /  F ield         | OpenFOAM: The Open Source CFD Toolbox           |
|  \\    /   O peration     | Version:  v1906                                 |
|   \\  /    A nd           | Web:      www.OpenFOAM.com                      |
|    \\/     M anipulation  |                                                 |
\*---------------------------------------------------------------------------*/
FoamFile
{
    version     2.0;
    format      ascii;
    class       volVectorField;
    location    "7.7";
    object      U;
}
// * * * * * * * * * * * * * * * * * * * * * * * * * * * * * * * * * * * * * //

dimensions      [0 1 -1 0 0 0 0];


internalField   nonuniform List<vector> 
9600
(
(0.765905 0.0058506 0)
(1.30427 0.00337334 0)
(0.802752 -0.00387204 0)
(1.0757 0.000414907 0)
(0.840461 0.0288977 0)
(1.30074 0.00899435 0)
(0.611735 -0.00276984 0)
(1.27489 0.00586245 0)
(0.688295 -0.00966007 0)
(1.179 0.0110422 0)
(0.849439 0.00853067 0)
(1.13397 0.0182231 0)
(0.856168 0.0132269 0)
(1.09805 0.00847463 0)
(0.84807 0.0162495 0)
(1.10818 0.00430955 0)
(0.822061 0.0202843 0)
(1.11516 0.0132332 0)
(0.801535 0.0137596 0)
(1.09785 0.0139645 0)
(0.770718 0.0052792 0)
(1.29607 0.00345931 0)
(0.809058 -0.00221293 0)
(1.07306 0.000526035 0)
(0.842551 0.0268966 0)
(1.29387 0.0120703 0)
(0.629004 -0.00287858 0)
(1.26356 0.00544207 0)
(0.710362 -0.00895418 0)
(1.17147 0.0095777 0)
(0.867729 0.00863114 0)
(1.12341 0.0185271 0)
(0.883248 0.0135616 0)
(1.07638 0.00897227 0)
(0.884993 0.0158189 0)
(1.06856 0.00516142 0)
(0.878426 0.0200536 0)
(1.04374 0.0132579 0)
(0.902432 0.0155438 0)
(0.977879 0.0114017 0)
(0.782108 0.0046432 0)
(1.27844 0.00350111 0)
(0.825454 -0.00075316 0)
(1.06387 0.000325137 0)
(0.849234 0.0244015 0)
(1.27833 0.0143361 0)
(0.669275 -0.00312413 0)
(1.23668 0.00501302 0)
(0.760122 -0.00820709 0)
(1.14485 0.00755073 0)
(0.907786 0.00912175 0)
(1.09721 0.0186369 0)
(0.931135 0.0142767 0)
(1.04065 0.00914128 0)
(0.93676 0.0157021 0)
(1.02491 0.00564477 0)
(0.937245 0.0201411 0)
(0.997452 0.0133591 0)
(0.956409 0.0164707 0)
(0.957556 0.0113625 0)
(0.800931 0.00411221 0)
(1.25017 0.00345235 0)
(0.854455 0.000642627 0)
(1.04614 0.000252825 0)
(0.861801 0.0222116 0)
(1.25096 0.0161214 0)
(0.733092 -0.00297656 0)
(1.19085 0.00439446 0)
(0.830775 -0.00735383 0)
(1.09913 0.00573015 0)
(0.952862 0.00969048 0)
(1.06534 0.0183894 0)
(0.972987 0.0151498 0)
(1.01149 0.00909195 0)
(0.970454 0.0159082 0)
(1.0001 0.005752 0)
(0.968032 0.0205814 0)
(0.985645 0.0133128 0)
(0.973537 0.0169179 0)
(0.965963 0.0122938 0)
(0.826844 0.00367467 0)
(1.21153 0.00326799 0)
(0.893445 0.00206037 0)
(1.02196 0.00040281 0)
(0.879476 0.0201856 0)
(1.21098 0.0174146 0)
(0.810672 -0.00242633 0)
(1.13292 0.00350781 0)
(0.900943 -0.00635135 0)
(1.04878 0.00427066 0)
(0.983509 0.00993273 0)
(1.03973 0.0181292 0)
(0.996276 0.0160026 0)
(0.996706 0.00926339 0)
(0.982632 0.016064 0)
(0.988719 0.00594469 0)
(0.977208 0.0207659 0)
(0.983129 0.013349 0)
(0.977207 0.0173107 0)
(0.970336 0.0131414 0)
(0.857846 0.00333859 0)
(1.16566 0.00291128 0)
(0.935177 0.00346259 0)
(0.997684 0.000741665 0)
(0.899611 0.0182873 0)
(1.16268 0.0180265 0)
(0.88532 -0.00157203 0)
(1.07766 0.00259996 0)
(0.952034 -0.00536815 0)
(1.00961 0.00329168 0)
(0.994659 0.00981257 0)
(1.02297 0.0179932 0)
(1.00523 0.0167445 0)
(0.992474 0.00967838 0)
(0.984097 0.0162082 0)
(0.982907 0.00627728 0)
(0.976258 0.0206377 0)
(0.980078 0.0136351 0)
(0.976107 0.0174703 0)
(0.970736 0.0138677 0)
(0.890463 0.00312702 0)
(1.11846 0.00240837 0)
(0.971356 0.0047477 0)
(0.980746 0.00124066 0)
(0.918778 0.0166444 0)
(1.11457 0.0179743 0)
(0.943874 -0.000586148 0)
(1.03724 0.0019586 0)
(0.979648 -0.00453619 0)
(0.986952 0.00282879 0)
(0.993049 0.00947377 0)
(1.01181 0.0178293 0)
(1.00717 0.0172967 0)
(0.993462 0.0102064 0)
(0.983589 0.0164627 0)
(0.980253 0.00666865 0)
(0.972829 0.020465 0)
(0.976733 0.0139989 0)
(0.974178 0.0173564 0)
(0.9706 0.0145515 0)
(0.920848 0.00304084 0)
(1.07652 0.00182867 0)
(0.996491 0.005813 0)
(0.97508 0.00187906 0)
(0.934602 0.0153409 0)
(1.07501 0.0174372 0)
(0.982173 0.000357956 0)
(1.0145 0.0016925 0)
(0.990326 -0.00385438 0)
(0.976894 0.00272679 0)
(0.987132 0.00903483 0)
(1.00329 0.0175164 0)
(1.00608 0.0176138 0)
(0.995886 0.0107393 0)
(0.984386 0.0168078 0)
(0.980273 0.00715944 0)
(0.970863 0.0203332 0)
(0.97485 0.0143364 0)
(0.973578 0.0170727 0)
(0.971626 0.0151716 0)
(0.946155 0.00305115 0)
(1.04437 0.00126128 0)
(1.00952 0.00659641 0)
(0.97908 0.00259584 0)
(0.947005 0.0143899 0)
(1.04813 0.0166149 0)
(1.00301 0.00115658 0)
(1.00497 0.00174086 0)
(0.993304 -0.00326455 0)
(0.973725 0.0028018 0)
(0.981731 0.00859789 0)
(0.99631 0.0170727 0)
(1.0034 0.0177053 0)
(0.997563 0.0111957 0)
(0.986342 0.0171837 0)
(0.982289 0.00776919 0)
(0.971553 0.0202242 0)
(0.975352 0.0146807 0)
(0.975134 0.016682 0)
(0.974315 0.0156661 0)
(0.965278 0.00311546 0)
(1.02306 0.000781392 0)
(1.01295 0.00708796 0)
(0.987644 0.0033043 0)
(0.957564 0.0137465 0)
(1.03304 0.0156796 0)
(1.0119 0.00180766 0)
(1.00244 0.001969 0)
(0.994892 -0.00270816 0)
(0.974095 0.00297633 0)
(0.978489 0.00824503 0)
(0.990845 0.0165667 0)
(1.00004 0.0176215 0)
(0.997913 0.0115368 0)
(0.98853 0.0175209 0)
(0.985415 0.00844597 0)
(0.974619 0.02011 0)
(0.978259 0.015063 0)
(0.978919 0.0162069 0)
(0.978691 0.0160084 0)
(0.97865 0.00319502 0)
(1.01079 0.000426469 0)
(1.01081 0.00733006 0)
(0.995861 0.00392337 0)
(0.96779 0.0133306 0)
(1.02603 0.0147625 0)
(1.01412 0.0023641 0)
(1.0025 0.00224823 0)
(0.997258 -0.00217402 0)
(0.976649 0.00323555 0)
(0.977803 0.00801073 0)
(0.98739 0.0160613 0)
(0.997078 0.0174261 0)
(0.997537 0.0117532 0)
(0.990626 0.0177539 0)
(0.989011 0.00912375 0)
(0.979371 0.0199427 0)
(0.983069 0.0154594 0)
(0.984553 0.0156778 0)
(0.984497 0.0162164 0)
(0.987499 0.00326359 0)
(1.00459 0.000198769 0)
(1.00673 0.00739756 0)
(1.00121 0.00440103 0)
(0.978029 0.0130537 0)
(1.02316 0.0139482 0)
(1.01343 0.00287449 0)
(1.0031 0.00249663 0)
(1.00008 -0.00168772 0)
(0.980552 0.00355833 0)
(0.979594 0.00789069 0)
(0.986462 0.0156027 0)
(0.995581 0.0171738 0)
(0.997426 0.0118573 0)
(0.992902 0.0178534 0)
(0.992822 0.00974903 0)
(0.985132 0.0196766 0)
(0.989051 0.0158346 0)
(0.991283 0.0151357 0)
(0.991138 0.0163112 0)
(0.993146 0.00330818 0)
(1.00185 8.008e-05 0)
(1.00297 0.00736782 0)
(1.00349 0.00471932 0)
(0.987612 0.012846 0)
(1.02176 0.0132701 0)
(1.01198 0.00336907 0)
(1.00372 0.00268665 0)
(1.00255 -0.00126762 0)
(0.984916 0.00390574 0)
(0.983257 0.00785915 0)
(0.988031 0.015209 0)
(0.996055 0.0169042 0)
(0.998249 0.0118883 0)
(0.995662 0.01782 0)
(0.996761 0.0102907 0)
(0.991262 0.0192993 0)
(0.995391 0.0161618 0)
(0.998177 0.0146227 0)
(0.997778 0.0163091 0)
(0.996642 0.00332628 0)
(1.0008 4.36318e-05 0)
(1.00045 0.00729741 0)
(1.0037 0.00489036 0)
(0.995621 0.0126636 0)
(1.02053 0.0127269 0)
(1.01064 0.00385294 0)
(1.00434 0.00283054 0)
(1.00432 -0.000926364 0)
(0.98897 0.00423517 0)
(0.987778 0.0078705 0)
(0.991347 0.0148717 0)
(0.9982 0.0166453 0)
(1.00004 0.0118885 0)
(0.998853 0.0176727 0)
(1.00066 0.010753 0)
(0.997133 0.018823 0)
(1.00132 0.0164248 0)
(1.0044 0.014173 0)
(1.00365 0.0162204 0)
(0.998716 0.0033212 0)
(1.00048 6.18501e-05 0)
(0.999254 0.0072176 0)
(1.00292 0.004946 0)
(1.00152 0.0124868 0)
(1.01907 0.0122958 0)
(1.00966 0.00431239 0)
(1.00505 0.00294533 0)
(1.0055 -0.000653157 0)
(0.992266 0.00451952 0)
(0.992138 0.0078806 0)
(0.995281 0.0145696 0)
(1.00117 0.0164149 0)
(1.00235 0.0118805 0)
(1.00207 0.0174441 0)
(1.0042 0.0111557 0)
(1.0022 0.0182818 0)
(1.00623 0.0166236 0)
(1.00939 0.0138112 0)
(1.00827 0.0160583 0)
(0.999849 0.0032982 0)
(1.00043 0.000112143 0)
(0.999084 0.0071409 0)
(1.00189 0.00492664 0)
(1.00534 0.0123097 0)
(1.01738 0.011945 0)
(1.00897 0.00473376 0)
(1.00587 0.00304837 0)
(1.00634 -0.000432834 0)
(0.994682 0.00475278 0)
(0.995669 0.0078626 0)
(0.998845 0.0142879 0)
(1.00404 0.016208 0)
(1.00455 0.0118802 0)
(1.00483 0.0171685 0)
(1.00704 0.0115084 0)
(1.0061 0.0177158 0)
(1.00982 0.0167704 0)
(1.01293 0.0135545 0)
(1.01151 0.0158492 0)
(1.00037 0.00326227 0)
(1.00041 0.000179072 0)
(0.999584 0.0070687 0)
(1.00099 0.00487057 0)
(1.00748 0.0121319 0)
(1.0156 0.0116475 0)
(1.0085 0.00510702 0)
(1.00675 0.00315345 0)
(1.00705 -0.000254948 0)
(0.996298 0.00494898 0)
(0.998133 0.00780982 0)
(1.00149 0.0140131 0)
(1.0062 0.0160158 0)
(1.0062 0.0118993 0)
(1.0068 0.0168712 0)
(1.00898 0.0118126 0)
(1.00873 0.0171525 0)
(1.01206 0.0168778 0)
(1.01509 0.0133973 0)
(1.0135 0.0156015 0)
(1.00052 0.00321854 0)
(1.00034 0.000251341 0)
(1.00044 0.00699743 0)
(1.00033 0.00480622 0)
(1.00842 0.0119551 0)
(1.01391 0.0113806 0)
(1.00816 0.00542515 0)
(1.0076 0.00326501 0)
(1.00768 -9.86205e-05 0)
(0.997287 0.00512883 0)
(0.999608 0.00773456 0)
(1.00311 0.0137301 0)
(1.00745 0.0158382 0)
(1.00716 0.0119295 0)
(1.0079 0.0165702 0)
(1.01007 0.0120826 0)
(1.01024 0.0166094 0)
(1.01316 0.0169441 0)
(1.01611 0.0133124 0)
(1.01452 0.0153074 0)
(1.00045 0.00317085 0)
(1.0002 0.000322276 0)
(1.0014 0.00692191 0)
(0.999937 0.00475436 0)
(1.00859 0.0117776 0)
(1.01244 0.0111315 0)
(1.00792 0.00568386 0)
(1.00833 0.00338792 0)
(1.00825 4.34939e-05 0)
(0.997842 0.00531097 0)
(1.00031 0.0076516 0)
(1.00389 0.0134396 0)
(1.00788 0.0156666 0)
(1.00753 0.0119612 0)
(1.0083 0.0162724 0)
(1.01048 0.0123304 0)
(1.0109 0.0160928 0)
(1.01346 0.0169663 0)
(1.01631 0.013285 0)
(1.01488 0.0149693 0)
(1.0003 0.00312144 0)
(1.00002 0.000390278 0)
(1.00231 0.00683388 0)
(0.999764 0.0047294 0)
(1.00834 0.0115969 0)
(1.01129 0.0108901 0)
(1.00773 0.00588657 0)
(1.00886 0.00352522 0)
(1.0087 0.00017687 0)
(0.99815 0.00550651 0)
(1.0005 0.00757343 0)
(1.00412 0.0131415 0)
(1.00773 0.0155036 0)
(1.00752 0.011978 0)
(1.00824 0.0159814 0)
(1.0105 0.0125627 0)
(1.01105 0.0155966 0)
(1.0133 0.0169476 0)
(1.01602 0.0133144 0)
(1.01486 0.014592 0)
(1.00014 0.00307117 0)
(0.999827 0.000456004 0)
(1.00307 0.00672782 0)
(0.999755 0.00473773 0)
(1.00789 0.0114111 0)
(1.01046 0.0106483 0)
(1.00757 0.00604294 0)
(1.0092 0.00367829 0)
(1.00902 0.000309173 0)
(0.998365 0.00572035 0)
(1.0004 0.00751546 0)
(1.00407 0.0128247 0)
(1.00726 0.0153528 0)
(1.00735 0.0119745 0)
(1.00795 0.0156891 0)
(1.01035 0.0127898 0)
(1.01095 0.0151166 0)
(1.01295 0.0168875 0)
(1.01547 0.0134064 0)
(1.01468 0.0141888 0)
(1.00001 0.00301976 0)
(0.999667 0.000522124 0)
(1.00365 0.00660092 0)
(0.999855 0.00478056 0)
(1.00741 0.0112161 0)
(1.00992 0.0104073 0)
(1.0074 0.00615825 0)
(1.00939 0.00385263 0)
(1.00919 0.000437293 0)
(0.998586 0.00594972 0)
(1.00019 0.00748664 0)
(1.00398 0.0124915 0)
(1.00668 0.0152026 0)
(1.00716 0.0119579 0)
(1.0076 0.015384 0)
(1.01016 0.0130194 0)
(1.0108 0.0146578 0)
(1.01261 0.0167715 0)
(1.01486 0.013561 0)
(1.01449 0.0137806 0)
(0.999913 0.00296562 0)
(0.999564 0.000592946 0)
(1.00404 0.00645003 0)
(1.00003 0.00485647 0)
(1.007 0.0110068 0)
(1.00961 0.0101729 0)
(1.00717 0.00623595 0)
(1.0095 0.00404883 0)
(1.00924 0.000562406 0)
(0.998858 0.00618282 0)
(0.999995 0.00750069 0)
(1.00398 0.0121357 0)
(1.00612 0.0150526 0)
(1.00702 0.0119301 0)
(1.00729 0.0150622 0)
(1.01001 0.0132499 0)
(1.01067 0.0142351 0)
(1.01235 0.0165792 0)
(1.01427 0.0137678 0)
(1.01435 0.0133903 0)
(0.999834 0.00290712 0)
(0.999535 0.000673087 0)
(1.00424 0.00627121 0)
(1.00026 0.00496356 0)
(1.00665 0.0107795 0)
(1.00948 0.00994662 0)
(1.00687 0.00628515 0)
(1.00955 0.00426264 0)
(1.0092 0.000684519 0)
(0.999178 0.00640977 0)
(0.999865 0.00756285 0)
(1.0041 0.0117541 0)
(1.00565 0.0149093 0)
(1.00695 0.0119003 0)
(1.00707 0.0147105 0)
(1.0099 0.0134743 0)
(1.01061 0.0138681 0)
(1.01221 0.0162957 0)
(1.01375 0.01401 0)
(1.01426 0.0130653 0)
(0.999761 0.00284305 0)
(0.999587 0.000764746 0)
(1.00428 0.00606697 0)
(1.00055 0.00509319 0)
(1.00635 0.0105377 0)
(1.00946 0.00972721 0)
(1.00653 0.00631279 0)
(1.00958 0.00449318 0)
(1.00912 0.000806999 0)
(0.999522 0.00661753 0)
(0.999814 0.00767181 0)
(1.00434 0.011361 0)
(1.00532 0.0147627 0)
(1.00691 0.0118815 0)
(1.00693 0.0143264 0)
(1.00981 0.0136869 0)
(1.01059 0.0135731 0)
(1.01215 0.0159133 0)
(1.01332 0.0142525 0)
(1.01417 0.0128587 0)
(0.999684 0.00277069 0)
(0.999719 0.000872081 0)
(1.00419 0.00583692 0)
(1.00087 0.00524407 0)
(1.00607 0.0102756 0)
(1.0095 0.00952246 0)
(1.00617 0.00632288 0)
(1.00956 0.00473321 0)
(1.00903 0.000940261 0)
(0.999866 0.00679272 0)
(0.999833 0.00782589 0)
(1.00465 0.0109624 0)
(1.0051 0.0145976 0)
(1.00687 0.011886 0)
(1.00688 0.0139152 0)
(1.00972 0.0138675 0)
(1.0106 0.0133673 0)
(1.01215 0.0154513 0)
(1.01296 0.0144473 0)
(1.01404 0.0127981 0)
(0.999606 0.00268931 0)
(0.999917 0.000997733 0)
(1.00401 0.00557909 0)
(1.00121 0.00541431 0)
(1.00582 0.0099962 0)
(1.00954 0.00932951 0)
(1.00582 0.00632054 0)
(1.0095 0.0049742 0)
(1.00896 0.0010858 0)
(1.00019 0.00692752 0)
(0.999906 0.00801093 0)
(1.005 0.0105686 0)
(1.00501 0.0144121 0)
(1.0068 0.011915 0)
(1.0069 0.013487 0)
(1.00963 0.0139939 0)
(1.01061 0.0132565 0)
(1.01218 0.0149402 0)
(1.01268 0.0145384 0)
(1.01385 0.0128824 0)
(0.999534 0.00259686 0)
(1.00016 0.00114276 0)
(1.00377 0.00529887 0)
(1.00154 0.0055956 0)
(1.0056 0.0097077 0)
(1.00953 0.00914357 0)
(1.0055 0.00631242 0)
(1.00937 0.00521016 0)
(1.00893 0.00124994 0)
(1.0005 0.00702429 0)
(1.00002 0.00822182 0)
(1.00535 0.0101839 0)
(1.00501 0.014201 0)
(1.00669 0.0119821 0)
(1.00697 0.0130566 0)
(1.00953 0.0140484 0)
(1.0106 0.0132357 0)
(1.01221 0.0144246 0)
(1.01248 0.0144853 0)
(1.01361 0.013066 0)
(0.999478 0.00249185 0)
(1.00041 0.00130911 0)
(1.00351 0.00499732 0)
(1.00182 0.0057845 0)
(1.00543 0.00940861 0)
(1.00945 0.00896657 0)
(1.00525 0.00630727 0)
(1.0092 0.00543301 0)
(1.00894 0.00144209 0)
(1.00081 0.00708358 0)
(1.00015 0.00845546 0)
(1.00569 0.00981976 0)
(1.00509 0.013953 0)
(1.00655 0.0120934 0)
(1.00706 0.012637 0)
(1.00946 0.0140161 0)
(1.01056 0.0132872 0)
(1.01222 0.0139556 0)
(1.01235 0.0142873 0)
(1.01336 0.0132613 0)
(0.999444 0.00237501 0)
(1.00065 0.00149622 0)
(1.00327 0.0046768 0)
(1.00203 0.00597332 0)
(1.00531 0.00911106 0)
(1.00932 0.00878573 0)
(1.00504 0.00630914 0)
(1.00898 0.00563179 0)
(1.00898 0.00165496 0)
(1.00111 0.00710717 0)
(1.00028 0.00870447 0)
(1.00601 0.00949601 0)
(1.00523 0.013659 0)
(1.0064 0.0122357 0)
(1.00715 0.0122417 0)
(1.00942 0.0138926 0)
(1.0105 0.0133859 0)
(1.01222 0.0135664 0)
(1.01228 0.0139644 0)
(1.01312 0.0133741 0)
(0.999432 0.00224349 0)
(1.00086 0.00170527 0)
(1.00308 0.00434299 0)
(1.00219 0.00615957 0)
(1.00524 0.00881407 0)
(1.00914 0.00859665 0)
(1.00486 0.00632143 0)
(1.00874 0.00580158 0)
(1.00903 0.00188615 0)
(1.00143 0.00710384 0)
(1.00039 0.0089521 0)
(1.0063 0.00920823 0)
(1.00541 0.0133275 0)
(1.00623 0.0124049 0)
(1.00723 0.0118937 0)
(1.00943 0.0136783 0)
(1.01042 0.0135009 0)
(1.01218 0.0132782 0)
(1.01226 0.0135614 0)
(1.01294 0.0133426 0)
(0.999441 0.00210052 0)
(1.00101 0.00192829 0)
(1.00295 0.00400495 0)
(1.00229 0.00633317 0)
(1.0052 0.00852715 0)
(1.00894 0.00839312 0)
(1.00471 0.00635216 0)
(1.00848 0.00594889 0)
(1.00908 0.00212738 0)
(1.00177 0.00707746 0)
(1.00049 0.00918336 0)
(1.00656 0.00896392 0)
(1.00564 0.012959 0)
(1.00607 0.0125955 0)
(1.00727 0.0116154 0)
(1.0095 0.0133766 0)
(1.01033 0.0135942 0)
(1.0121 0.0130958 0)
(1.01226 0.0131459 0)
(1.01283 0.0131587 0)
(0.999465 0.00194746 0)
(1.00111 0.00216456 0)
(1.00287 0.00366317 0)
(1.00235 0.00649002 0)
(1.00517 0.00825738 0)
(1.00874 0.00817195 0)
(1.00456 0.00640349 0)
(1.00822 0.00608121 0)
(1.00912 0.00237282 0)
(1.00211 0.00703644 0)
(1.00056 0.00939987 0)
(1.00678 0.00877286 0)
(1.00589 0.0125372 0)
(1.00591 0.0127901 0)
(1.00728 0.01142 0)
(1.00962 0.0129984 0)
(1.01027 0.0136358 0)
(1.01198 0.0130054 0)
(1.01225 0.0127763 0)
(1.0128 0.0128567 0)
(0.999502 0.00178244 0)
(1.00115 0.00241349 0)
(1.00284 0.00332776 0)
(1.00239 0.00662056 0)
(1.00514 0.00800911 0)
(1.00854 0.00793023 0)
(1.00442 0.00646903 0)
(1.00795 0.00620386 0)
(1.00914 0.00261903 0)
(1.00246 0.00698461 0)
(1.00062 0.00960498 0)
(1.00696 0.00863448 0)
(1.00619 0.0120736 0)
(1.00579 0.0129719 0)
(1.00724 0.0113198 0)
(1.00977 0.0125641 0)
(1.01024 0.013606 0)
(1.01182 0.0129851 0)
(1.0122 0.012481 0)
(1.01281 0.0125021 0)
(0.999547 0.00161074 0)
(1.00115 0.00266495 0)
(1.00284 0.00300494 0)
(1.00242 0.00671724 0)
(1.00509 0.00779618 0)
(1.00836 0.007655 0)
(1.00428 0.00654333 0)
(1.00767 0.00632401 0)
(1.00914 0.00284784 0)
(1.00282 0.00692481 0)
(1.00066 0.00979126 0)
(1.00709 0.0085535 0)
(1.00651 0.0115847 0)
(1.00569 0.0131097 0)
(1.00715 0.0113232 0)
(1.00995 0.0120999 0)
(1.01027 0.0134862 0)
(1.01164 0.0130158 0)
(1.01211 0.0122591 0)
(1.01283 0.012159 0)
(0.999597 0.00143469 0)
(1.00111 0.00291343 0)
(1.00284 0.00270591 0)
(1.00245 0.00676797 0)
(1.00502 0.00762103 0)
(1.00818 0.00734718 0)
(1.00414 0.00661455 0)
(1.00738 0.00645406 0)
(1.00913 0.00306259 0)
(1.00319 0.00684694 0)
(1.0007 0.00995569 0)
(1.00716 0.00853225 0)
(1.00687 0.0110753 0)
(1.00565 0.0131726 0)
(1.007 0.0114304 0)
(1.01012 0.011642 0)
(1.01036 0.0132507 0)
(1.01146 0.0130797 0)
(1.01196 0.0121083 0)
(1.01284 0.0118459 0)
(0.999649 0.00125506 0)
(1.00105 0.00315573 0)
(1.00285 0.00243972 0)
(1.00249 0.00675751 0)
(1.00492 0.00749865 0)
(1.00801 0.00701703 0)
(1.00401 0.00666855 0)
(1.00708 0.00659657 0)
(1.00909 0.00327333 0)
(1.00356 0.00674274 0)
(1.00073 0.0100986 0)
(1.00718 0.00857428 0)
(1.00724 0.0105555 0)
(1.00566 0.0131374 0)
(1.0068 0.0116238 0)
(1.01027 0.0112461 0)
(1.01052 0.0128868 0)
(1.01129 0.0131381 0)
(1.01175 0.0120505 0)
(1.01282 0.0115607 0)
(0.999701 0.00107424 0)
(1.00096 0.00338633 0)
(1.00284 0.00221905 0)
(1.00254 0.00666765 0)
(1.0048 0.00742986 0)
(1.00784 0.0066823 0)
(1.0039 0.00669676 0)
(1.00677 0.00676177 0)
(1.00903 0.00348714 0)
(1.00395 0.00661746 0)
(1.00079 0.0102103 0)
(1.00713 0.00867701 0)
(1.00762 0.0100448 0)
(1.00575 0.0129913 0)
(1.00656 0.0118751 0)
(1.01035 0.0109645 0)
(1.01076 0.0124128 0)
(1.01117 0.0131222 0)
(1.01149 0.0120983 0)
(1.01275 0.0113225 0)
(0.999752 0.000896794 0)
(1.00086 0.00359294 0)
(1.00282 0.00206159 0)
(1.00259 0.00648032 0)
(1.00465 0.00741509 0)
(1.00766 0.00635423 0)
(1.0038 0.00668301 0)
(1.00645 0.0069593 0)
(1.00895 0.00370829 0)
(1.00434 0.00647133 0)
(1.00086 0.0102787 0)
(1.00702 0.00884289 0)
(1.00798 0.00957793 0)
(1.00593 0.0127296 0)
(1.00631 0.0121386 0)
(1.01035 0.0108202 0)
(1.01102 0.0118822 0)
(1.01113 0.0129751 0)
(1.01119 0.0122145 0)
(1.01259 0.0111823 0)
(0.9998 0.000725712 0)
(1.00075 0.00377034 0)
(1.00277 0.0019648 0)
(1.00265 0.00619946 0)
(1.00448 0.00744657 0)
(1.00746 0.00605415 0)
(1.00373 0.00660608 0)
(1.00613 0.00716533 0)
(1.00883 0.00394912 0)
(1.00475 0.006302 0)
(1.00097 0.0102922 0)
(1.00686 0.00905853 0)
(1.0083 0.00917841 0)
(1.00619 0.0123564 0)
(1.00608 0.0123613 0)
(1.01025 0.0108076 0)
(1.0113 0.0113655 0)
(1.0112 0.0126839 0)
(1.0109 0.0123158 0)
(1.01234 0.0111694 0)
(0.999846 0.00056265 0)
(1.00063 0.00391104 0)
(1.0027 0.00193692 0)
(1.00272 0.00583607 0)
(1.00431 0.00748691 0)
(1.00725 0.00580916 0)
(1.00367 0.00646619 0)
(1.00582 0.00736545 0)
(1.00867 0.00422322 0)
(1.00515 0.00611047 0)
(1.00113 0.0102349 0)
(1.00665 0.00930748 0)
(1.00857 0.00886876 0)
(1.00653 0.0118993 0)
(1.00589 0.0125087 0)
(1.01005 0.0109059 0)
(1.01153 0.0109202 0)
(1.01136 0.0122763 0)
(1.01066 0.0123313 0)
(1.012 0.0112564 0)
(0.999887 0.000411563 0)
(1.0005 0.00400866 0)
(1.00259 0.00197193 0)
(1.00279 0.00542012 0)
(1.00413 0.00751292 0)
(1.007 0.00563305 0)
(1.00364 0.00626901 0)
(1.00552 0.00754192 0)
(1.00846 0.00452929 0)
(1.00554 0.00591896 0)
(1.00134 0.0101026 0)
(1.00642 0.00956978 0)
(1.00878 0.00866265 0)
(1.00692 0.0113846 0)
(1.00578 0.0125504 0)
(1.00977 0.011076 0)
(1.01169 0.0105743 0)
(1.0116 0.0117919 0)
(1.01052 0.0122356 0)
(1.01163 0.0113654 0)
(0.999925 0.000276275 0)
(1.00038 0.00405836 0)
(1.00245 0.00206113 0)
(1.00286 0.00498619 0)
(1.00395 0.00749683 0)
(1.00672 0.00554037 0)
(1.00362 0.00602661 0)
(1.00523 0.00766656 0)
(1.00821 0.00487732 0)
(1.0059 0.00576021 0)
(1.0016 0.00989391 0)
(1.00617 0.00980414 0)
(1.0089 0.00855876 0)
(1.00735 0.010852 0)
(1.00575 0.0124745 0)
(1.00944 0.0112777 0)
(1.01174 0.0103434 0)
(1.01187 0.0112671 0)
(1.01048 0.0120328 0)
(1.01127 0.0114253 0)
(0.999959 0.000157022 0)
(1.00026 0.0040551 0)
(1.00227 0.00220212 0)
(1.00293 0.00455982 0)
(1.00378 0.00740686 0)
(1.00642 0.00554218 0)
(1.00361 0.00577145 0)
(1.00498 0.00772572 0)
(1.00793 0.00526195 0)
(1.00623 0.00565034 0)
(1.00191 0.00962343 0)
(1.00593 0.00999003 0)
(1.00893 0.00854572 0)
(1.00779 0.0103393 0)
(1.00581 0.0122748 0)
(1.00908 0.01146 0)
(1.01168 0.0102371 0)
(1.01216 0.0107494 0)
(1.01055 0.0117344 0)
(1.01096 0.0114211 0)
(0.999988 5.86672e-05 0)
(1.00015 0.00399614 0)
(1.00207 0.00237827 0)
(1.00298 0.00416366 0)
(1.00364 0.00722746 0)
(1.00609 0.00562869 0)
(1.0036 0.00553043 0)
(1.00477 0.0077085 0)
(1.00762 0.00565728 0)
(1.00649 0.00560642 0)
(1.00226 0.00931569 0)
(1.00572 0.0101086 0)
(1.00889 0.00859563 0)
(1.00822 0.00987251 0)
(1.00598 0.0119682 0)
(1.00874 0.0115769 0)
(1.0115 0.0102408 0)
(1.0124 0.0102877 0)
(1.01072 0.011333 0)
(1.01073 0.0113433 0)
(1.00001 -1.63625e-05 0)
(1.00005 0.00388052 0)
(1.00184 0.00258083 0)
(1.00301 0.00381865 0)
(1.00352 0.00695846 0)
(1.00574 0.0057664 0)
(1.00357 0.00533449 0)
(1.0046 0.00759866 0)
(1.00729 0.00602433 0)
(1.0067 0.0056438 0)
(1.00264 0.00899355 0)
(1.00553 0.0101425 0)
(1.00877 0.00868609 0)
(1.0086 0.00947575 0)
(1.00623 0.0115859 0)
(1.00844 0.0115965 0)
(1.01121 0.0103046 0)
(1.01255 0.00992896 0)
(1.01097 0.0108526 0)
(1.01059 0.0111854 0)
(1.00003 -6.89262e-05 0)
(0.999969 0.00370983 0)
(1.00159 0.00280177 0)
(1.00301 0.00353551 0)
(1.00342 0.00660633 0)
(1.00538 0.00592494 0)
(1.00352 0.00521385 0)
(1.00446 0.00741459 0)
(1.00696 0.00633063 0)
(1.00685 0.00576625 0)
(1.00304 0.0086863 0)
(1.00539 0.0100985 0)
(1.00859 0.00879298 0)
(1.00893 0.00915029 0)
(1.00654 0.0111452 0)
(1.0082 0.0115069 0)
(1.01085 0.0103699 0)
(1.01259 0.00969167 0)
(1.01125 0.0103576 0)
(1.01058 0.0109311 0)
(1.00004 -0.000100405 0)
(0.999905 0.00349043 0)
(1.00133 0.00302055 0)
(1.00298 0.0033347 0)
(1.00336 0.00617433 0)
(1.00503 0.00607053 0)
(1.00344 0.00519395 0)
(1.00435 0.00720024 0)
(1.00665 0.00655367 0)
(1.00693 0.00593653 0)
(1.00343 0.0084108 0)
(1.0053 0.00999048 0)
(1.00836 0.00889081 0)
(1.00918 0.00888733 0)
(1.00689 0.0106713 0)
(1.00804 0.0113242 0)
(1.01046 0.0104077 0)
(1.01251 0.00955347 0)
(1.01152 0.00991073 0)
(1.01068 0.0105681 0)
(1.00005 -0.000109303 0)
(0.999863 0.00323126 0)
(1.00107 0.0032183 0)
(1.00291 0.00322557 0)
(1.00333 0.00569486 0)
(1.00471 0.0061596 0)
(1.00332 0.00527166 0)
(1.00426 0.00699597 0)
(1.00637 0.00668876 0)
(1.00697 0.00611032 0)
(1.00379 0.00817144 0)
(1.00525 0.00982667 0)
(1.0081 0.00896088 0)
(1.00934 0.00868205 0)
(1.00726 0.010192 0)
(1.00797 0.0110602 0)
(1.01007 0.0104052 0)
(1.01233 0.0094786 0)
(1.01172 0.00955312 0)
(1.01087 0.0101367 0)
(1.00006 -9.75611e-05 0)
(0.999844 0.00295011 0)
(1.00083 0.00337936 0)
(1.0028 0.00319917 0)
(1.00331 0.00521172 0)
(1.00443 0.00616904 0)
(1.00318 0.00541022 0)
(1.00417 0.00683108 0)
(1.00612 0.00674759 0)
(1.00696 0.00626359 0)
(1.00413 0.00797058 0)
(1.00523 0.00962874 0)
(1.00783 0.00900082 0)
(1.00942 0.00853433 0)
(1.00762 0.00973696 0)
(1.00798 0.0107222 0)
(1.00971 0.0103421 0)
(1.01206 0.00942964 0)
(1.01182 0.0092866 0)
(1.0111 0.00970095 0)
(1.00006 -6.86397e-05 0)
(0.999848 0.00266235 0)
(1.00061 0.00348836 0)
(1.00265 0.0032535 0)
(1.00331 0.0047487 0)
(1.0042 0.00607879 0)
(1.00303 0.0055766 0)
(1.00407 0.00672221 0)
(1.00589 0.00675194 0)
(1.00693 0.00638155 0)
(1.00445 0.00779967 0)
(1.00526 0.00941131 0)
(1.00757 0.00900567 0)
(1.00943 0.00842548 0)
(1.00796 0.00932608 0)
(1.00807 0.0103379 0)
(1.0094 0.0102136 0)
(1.01174 0.00938016 0)
(1.01183 0.00909208 0)
(1.01131 0.00931695 0)
(1.00005 -2.79966e-05 0)
(0.999873 0.00238523 0)
(1.00042 0.0035257 0)
(1.00246 0.00336671 0)
(1.0033 0.00434813 0)
(1.00403 0.00588021 0)
(1.00289 0.00572963 0)
(1.00395 0.00668275 0)
(1.00568 0.00673444 0)
(1.00689 0.00645709 0)
(1.00473 0.00764022 0)
(1.00531 0.00917202 0)
(1.00731 0.00897537 0)
(1.00936 0.00834329 0)
(1.00825 0.00896296 0)
(1.00821 0.00993427 0)
(1.00916 0.0100269 0)
(1.01141 0.00930646 0)
(1.01174 0.00893136 0)
(1.01146 0.00900235 0)
(1.00005 1.73067e-05 0)
(0.999913 0.00213641 0)
(1.00027 0.00348876 0)
(1.00226 0.00349991 0)
(1.00328 0.0040272 0)
(1.00392 0.00559711 0)
(1.00278 0.00583472 0)
(1.00382 0.00670852 0)
(1.00547 0.00672843 0)
(1.00683 0.00650221 0)
(1.00499 0.00748857 0)
(1.00539 0.00892093 0)
(1.00708 0.00891134 0)
(1.00924 0.00828564 0)
(1.00849 0.00864661 0)
(1.0084 0.00951697 0)
(1.00899 0.00978815 0)
(1.01107 0.00920413 0)
(1.0116 0.00877685 0)
(1.01153 0.00874539 0)
(1.00004 6.41755e-05 0)
(0.999964 0.00191589 0)
(1.00017 0.00338974 0)
(1.00204 0.00364438 0)
(1.00323 0.0037982 0)
(1.00386 0.00526898 0)
(1.00271 0.00585755 0)
(1.00368 0.00674954 0)
(1.00526 0.00673236 0)
(1.00675 0.00652346 0)
(1.00522 0.00733413 0)
(1.00549 0.00866113 0)
(1.00687 0.00880531 0)
(1.00907 0.00823823 0)
(1.00866 0.00839319 0)
(1.0086 0.00911038 0)
(1.00889 0.00951025 0)
(1.01075 0.00909265 0)
(1.01141 0.00863603 0)
(1.01153 0.00852791 0)
(1.00003 0.000107313 0)
(1.00002 0.00173331 0)
(1.00011 0.00323497 0)
(1.00182 0.00376787 0)
(1.00315 0.00366995 0)
(1.00383 0.0049509 0)
(1.0027 0.00580386 0)
(1.00356 0.00678616 0)
(1.00505 0.00675057 0)
(1.00665 0.00653595 0)
(1.00542 0.00717403 0)
(1.00562 0.00838276 0)
(1.00671 0.00864802 0)
(1.00888 0.00816012 0)
(1.00876 0.00817652 0)
(1.0088 0.00872141 0)
(1.00886 0.00916867 0)
(1.01046 0.00893267 0)
(1.01118 0.00849056 0)
(1.01149 0.00829866 0)
(1.00002 0.000138791 0)
(1.00008 0.00159405 0)
(1.00009 0.00304028 0)
(1.00162 0.00386189 0)
(1.00304 0.00363311 0)
(1.00382 0.0046759 0)
(1.00273 0.00566729 0)
(1.00346 0.00678436 0)
(1.00484 0.00676392 0)
(1.00653 0.00654919 0)
(1.00559 0.00703363 0)
(1.00575 0.00810794 0)
(1.00658 0.00846863 0)
(1.00867 0.00806519 0)
(1.00879 0.00798384 0)
(1.00897 0.00838147 0)
(1.00889 0.00880889 0)
(1.01022 0.00872043 0)
(1.01092 0.00836246 0)
(1.01141 0.00808001 0)
(1.00002 0.000169252 0)
(1.00013 0.00147518 0)
(1.00011 0.00279124 0)
(1.00145 0.00390153 0)
(1.0029 0.00365418 0)
(1.0038 0.00447916 0)
(1.00282 0.00547734 0)
(1.0034 0.00671811 0)
(1.00463 0.00675739 0)
(1.00639 0.00654888 0)
(1.00572 0.00689881 0)
(1.00589 0.00783126 0)
(1.00648 0.00825754 0)
(1.00846 0.00795355 0)
(1.00878 0.0077973 0)
(1.00911 0.00806816 0)
(1.00895 0.00846439 0)
(1.01006 0.00845521 0)
(1.01066 0.00822401 0)
(1.01127 0.0078886 0)
(1.00001 0.000184369 0)
(1.00016 0.00141595 0)
(1.00015 0.00257403 0)
(1.00132 0.00389384 0)
(1.00276 0.00369896 0)
(1.00377 0.00435167 0)
(1.00293 0.00526104 0)
(1.00338 0.00657573 0)
(1.00444 0.00671948 0)
(1.00623 0.00653329 0)
(1.00582 0.00676002 0)
(1.00603 0.00755872 0)
(1.00643 0.00801633 0)
(1.00826 0.00781688 0)
(1.00873 0.00762434 0)
(1.00921 0.00776086 0)
(1.00902 0.00812724 0)
(1.00995 0.00815926 0)
(1.01043 0.00803558 0)
(1.0111 0.00771909 0)
(1.00001 0.000192628 0)
(1.0002 0.001404 0)
(1.00022 0.00241065 0)
(1.00123 0.00384894 0)
(1.00261 0.00373113 0)
(1.00372 0.00426289 0)
(1.00304 0.00503369 0)
(1.00339 0.00637471 0)
(1.00427 0.00663489 0)
(1.00606 0.00649716 0)
(1.00587 0.00662312 0)
(1.00616 0.00729344 0)
(1.0064 0.00775951 0)
(1.00807 0.00764468 0)
(1.00862 0.0074631 0)
(1.00927 0.00747797 0)
(1.0091 0.00778453 0)
(1.00988 0.00785485 0)
(1.01024 0.00779804 0)
(1.0109 0.00754074 0)
(1.00001 0.000201956 0)
(1.00022 0.00139383 0)
(1.00029 0.00225402 0)
(1.00116 0.00375639 0)
(1.00246 0.00373835 0)
(1.00365 0.00420453 0)
(1.00315 0.00482546 0)
(1.00343 0.00614069 0)
(1.00413 0.00650061 0)
(1.00588 0.00642197 0)
(1.00589 0.00647607 0)
(1.00627 0.00702119 0)
(1.00639 0.00748479 0)
(1.0079 0.00743576 0)
(1.00849 0.00728148 0)
(1.00927 0.00722268 0)
(1.00916 0.00744031 0)
(1.00984 0.00753254 0)
(1.01008 0.00753502 0)
(1.0107 0.00732798 0)
(1.00001 0.000198793 0)
(1.00023 0.00140793 0)
(1.00036 0.00212982 0)
(1.00113 0.00363114 0)
(1.00232 0.00371402 0)
(1.00355 0.00414808 0)
(1.00324 0.00464003 0)
(1.0035 0.00588599 0)
(1.00403 0.00634121 0)
(1.0057 0.00634304 0)
(1.00587 0.0063495 0)
(1.00637 0.00677956 0)
(1.0064 0.00722513 0)
(1.00775 0.00724043 0)
(1.00834 0.0071066 0)
(1.00922 0.00700094 0)
(1.00919 0.00714001 0)
(1.00983 0.00720587 0)
(1.00996 0.00726897 0)
(1.01053 0.00709092 0)
(1.00001 0.000193864 0)
(1.00024 0.00142659 0)
(1.00042 0.00201949 0)
(1.0011 0.00348065 0)
(1.00219 0.0036721 0)
(1.00344 0.00411438 0)
(1.00331 0.00451032 0)
(1.00358 0.00565253 0)
(1.00395 0.00617147 0)
(1.00553 0.00625506 0)
(1.00582 0.00621596 0)
(1.00643 0.00653114 0)
(1.00642 0.00692903 0)
(1.00761 0.00699912 0)
(1.00817 0.00690081 0)
(1.00913 0.00675108 0)
(1.00918 0.00684004 0)
(1.00981 0.00685273 0)
(1.00986 0.00695161 0)
(1.01037 0.00681095 0)
(1.00001 0.000191187 0)
(1.00024 0.00142538 0)
(1.00048 0.00192899 0)
(1.0011 0.00333492 0)
(1.00209 0.00361469 0)
(1.00332 0.00407847 0)
(1.00335 0.00437985 0)
(1.00365 0.00540771 0)
(1.0039 0.00594887 0)
(1.00536 0.00611591 0)
(1.00573 0.00606059 0)
(1.00645 0.00627829 0)
(1.00644 0.00662041 0)
(1.00751 0.0067288 0)
(1.008 0.006696 0)
(1.009 0.00652472 0)
(1.00912 0.00657322 0)
(1.00977 0.00654066 0)
(1.00979 0.00663179 0)
(1.01023 0.00653503 0)
(1.00002 0.000183113 0)
(1.00023 0.00142587 0)
(1.00052 0.00186118 0)
(1.00111 0.00318761 0)
(1.002 0.00352279 0)
(1.00319 0.00402463 0)
(1.00336 0.00426545 0)
(1.00372 0.00517939 0)
(1.00388 0.00572689 0)
(1.00521 0.00596314 0)
(1.00563 0.00591432 0)
(1.00645 0.00604806 0)
(1.00646 0.00632477 0)
(1.00743 0.00643182 0)
(1.00784 0.00645546 0)
(1.00885 0.00629724 0)
(1.00903 0.00630967 0)
(1.0097 0.00625192 0)
(1.00971 0.00631949 0)
(1.01009 0.00625678 0)
(1.00003 0.000176971 0)
(1.00023 0.00141885 0)