/*--------------------------------*- C++ -*----------------------------------*\
| =========                 |                                                 |
| \\      /  F ield         | OpenFOAM: The Open Source CFD Toolbox           |
|  \\    /   O peration     | Version:  v1906                                 |
|   \\  /    A nd           | Web:      www.OpenFOAM.com                      |
|    \\/     M anipulation  |                                                 |
\*---------------------------------------------------------------------------*/
FoamFile
{
    version     2.0;
    format      ascii;
    class       surfaceScalarField;
    location    "3.7";
    object      phi;
}
// * * * * * * * * * * * * * * * * * * * * * * * * * * * * * * * * * * * * * //

dimensions      [0 3 -1 0 0 0 0];
oriented        oriented;


internalField   nonuniform List<scalar> 
19000
(
1.16913e-06
-3.8538e-09
1.22791e-06
-4.40925e-07
1.241e-06
7.88745e-07
1.05603e-06
6.72145e-07
1.08491e-06
-6.48939e-07
1.2061e-06
-2.6798e-07
1.18283e-06
-2.18551e-07
1.168e-06
5.51498e-07
1.17306e-06
2.29472e-07
1.1303e-06
4.43638e-07
1.13797e-06
2.6425e-07
1.11787e-06
-1.02015e-07
1.14222e-06
-4.77015e-08
1.14632e-06
1.19801e-07
1.14216e-06
1.58347e-09
1.1536e-06
1.22396e-07
1.1544e-06
-6.66036e-09
1.1552e-06
7.95572e-08
1.15183e-06
-9.44221e-10
3.94308e-08
1.1242e-06
1.22339e-06
-2.98609e-09
1.28325e-06
-5.0078e-07
1.29746e-06
7.7453e-07
1.11878e-06
8.50832e-07
1.14508e-06
-6.75247e-07
1.26264e-06
-3.85534e-07
1.24079e-06
-1.96707e-07
1.23109e-06
5.61202e-07
1.23249e-06
2.28075e-07
1.19544e-06
4.80681e-07
1.19552e-06
2.64174e-07
1.17996e-06
-8.64527e-08
1.19643e-06
-6.41697e-08
1.21304e-06
1.0319e-07
1.19616e-06
1.846e-08
1.22214e-06
9.6412e-08
1.2049e-06
1.05795e-08
1.22628e-06
5.81766e-08
1.19769e-06
2.76485e-08
3.01835e-08
1.20694e-06
1.27883e-06
9.63768e-10
1.33697e-06
-5.58915e-07
1.35374e-06
7.57756e-07
1.19775e-06
1.00683e-06
1.21033e-06
-6.87829e-07
1.32146e-06
-4.96667e-07
1.30305e-06
-1.78294e-07
1.29969e-06
5.64562e-07
1.29238e-06
2.35383e-07
1.27017e-06
5.02895e-07
1.25716e-06
2.77178e-07
1.25044e-06
-7.97328e-08
1.25331e-06
-6.70401e-08
1.27951e-06
7.69959e-08
1.2573e-06
4.06686e-08
1.2803e-06
7.34124e-08
1.2666e-06
2.4273e-08
1.2773e-06
4.74776e-08
1.2629e-06
4.20533e-08
3.85429e-08
1.25454e-06
1.33548e-06
9.58988e-09
1.38958e-06
-6.13022e-07
1.41066e-06
7.36685e-07
1.28966e-06
1.12783e-06
1.28108e-06
-6.7925e-07
1.37949e-06
-5.95082e-07
1.36671e-06
-1.65514e-07
1.36787e-06
5.63411e-07
1.35259e-06
2.50663e-07
1.34254e-06
5.12938e-07
1.32165e-06
2.98068e-07
1.31867e-06
-7.67535e-08
1.31458e-06
-6.29447e-08
1.33808e-06
5.34924e-08
1.32446e-06
5.42846e-08
1.33584e-06
6.20401e-08
1.33138e-06
2.87296e-08
1.33395e-06
4.4912e-08
1.32623e-06
4.97672e-08
4.88858e-08
1.31589e-06
1.3943e-06
2.36444e-08
1.44179e-06
-6.60509e-07
1.46834e-06
7.10132e-07
1.38753e-06
1.20863e-06
1.35577e-06
-6.47484e-07
1.43499e-06
-6.74303e-07
1.43099e-06
-1.61515e-07
1.43322e-06
5.61178e-07
1.41424e-06
2.69647e-07
1.41006e-06
5.17121e-07
1.38937e-06
3.18757e-07
1.38515e-06
-7.25349e-08
1.37923e-06
-5.7022e-08
1.3956e-06
3.71143e-08
1.39202e-06
5.78693e-08
1.39733e-06
5.67314e-08
1.39589e-06
3.01689e-08
1.39722e-06
4.35809e-08
1.39049e-06
5.65004e-08
5.87389e-08
1.38063e-06
1.45693e-06
4.23875e-08
1.4952e-06
-6.9878e-07
1.52761e-06
6.77721e-07
1.48425e-06
1.252e-06
1.43368e-06
-5.96917e-07
1.48914e-06
-7.29761e-07
1.49576e-06
-1.68127e-07
1.49807e-06
5.58859e-07
1.47982e-06
2.87905e-07
1.47706e-06
5.19872e-07
1.46129e-06
3.34534e-07
1.45477e-06
-6.60174e-08
1.44722e-06
-4.94756e-08
1.45765e-06
2.66916e-08
1.45955e-06
5.59685e-08
1.46416e-06
5.21198e-08
1.4632e-06
3.11244e-08
1.46404e-06
4.27477e-08
1.45823e-06
6.23041e-08
6.94356e-08
1.44754e-06
1.52509e-06
6.35161e-08
1.55205e-06
-7.25744e-07
1.58965e-06
6.40127e-07
1.5764e-06
1.26524e-06
1.51512e-06
-5.3564e-07
1.54566e-06
-7.603e-07
1.56126e-06
-1.83721e-07
1.5657e-06
5.54421e-07
1.55081e-06
3.02791e-07
1.54822e-06
5.22459e-07
1.53771e-06
3.45048e-07
1.53001e-06
-5.83167e-08
1.51982e-06
-3.92833e-08
1.52611e-06
2.04009e-08
1.52985e-06
5.22273e-08
1.53514e-06
4.68295e-08
1.53508e-06
3.11801e-08
1.53486e-06
4.29681e-08
1.52994e-06
6.72225e-08
8.10886e-08
1.51829e-06
1.5997e-06
8.39422e-08
1.61444e-06
-7.40478e-07
1.65518e-06
5.99382e-07
1.66401e-06
1.25641e-06
1.60018e-06
-4.71816e-07
1.60842e-06
-7.68541e-07
1.62836e-06
-2.03659e-07
1.63734e-06
5.45448e-07
1.62692e-06
3.13205e-07
1.62516e-06
5.24218e-07
1.61827e-06
3.51938e-07
1.61047e-06
-5.05163e-08
1.59779e-06
-2.66005e-08
1.60103e-06
1.7155e-08
1.60482e-06
4.84457e-08
1.61016e-06
4.14881e-08
1.61133e-06
3.00033e-08
1.61011e-06
4.41932e-08
1.6058e-06
7.15325e-08
9.3202e-08
1.59369e-06
1.68048e-06
1.01039e-07
1.68371e-06
-7.43708e-07
1.72447e-06
5.58619e-07
1.74842e-06
1.23246e-06
1.6881e-06
-4.11495e-07
1.67956e-06
-7.59993e-07
1.69871e-06
-2.22812e-07
1.71255e-06
5.31609e-07
1.7067e-06
3.19054e-07
1.707e-06
5.23917e-07
1.70221e-06
3.56724e-07
1.69481e-06
-4.31147e-08
1.68074e-06
-1.25239e-08
1.68162e-06
1.62734e-08
1.68472e-06
4.53384e-08
1.68914e-06
3.70686e-08
1.69126e-06
2.78864e-08
1.68922e-06
4.62371e-08
1.68544e-06
7.53137e-08
1.05095e-07
1.67354e-06
1.76624e-06
1.13516e-07
1.76024e-06
-7.37701e-07
1.79777e-06
5.2109e-07
1.83123e-06
1.199e-06
1.77791e-06
-3.58181e-07
1.75909e-06
-7.41173e-07
1.77401e-06
-2.37732e-07
1.79087e-06
5.14749e-07
1.78883e-06
3.21099e-07
1.79212e-06
5.20625e-07
1.78874e-06
3.60104e-07
1.78198e-06
-3.63525e-08
1.76777e-06
1.68348e-09
1.76686e-06
1.71872e-08
1.76917e-06
4.30214e-08
1.77194e-06
3.42994e-08
1.77447e-06
2.5361e-08
1.77165e-06
4.90547e-08
1.76829e-06
7.86718e-08
1.16033e-07
1.75735e-06
1.85582e-06
1.21447e-07
1.84364e-06
-7.2552e-07
1.87562e-06
4.89103e-07
1.91412e-06
1.1605e-06
1.86924e-06
-3.13301e-07
1.84576e-06
-7.17686e-07
1.85521e-06
-2.47182e-07
1.87262e-06
4.97332e-07
1.87305e-06
3.20668e-07
1.87955e-06
5.14124e-07
1.87744e-06
3.62217e-07
1.87152e-06
-3.04295e-08
1.85825e-06
1.49556e-08
1.85606e-06
1.93762e-08
1.85782e-06
4.12603e-08
1.85859e-06
3.35302e-08
1.86102e-06
2.29275e-08
1.85743e-06
5.26465e-08
1.85416e-06
8.19371e-08
1.25415e-07
1.84478e-06
1.94859e-06
1.257e-07
1.93312e-06
-7.10051e-07
1.9587e-06
4.63519e-07
1.99895e-06
1.12025e-06
1.96246e-06
-2.76808e-07
1.93799e-06
-6.93216e-07
1.94229e-06
-2.5149e-07
1.95855e-06
4.81076e-07
1.96013e-06
3.19093e-07
1.96941e-06
5.04837e-07
1.96853e-06
3.631e-07
1.96353e-06
-2.54311e-08
1.95196e-06
2.65278e-08
1.94892e-06
2.24169e-08
1.95051e-06
3.96658e-08
1.9493e-06
3.47453e-08
1.95123e-06
2.09907e-08
1.94697e-06
5.69156e-08
1.94331e-06
8.55903e-08
1.32909e-07
1.93582e-06
2.04456e-06
1.27329e-07
2.02787e-06
-6.93361e-07
2.04748e-06
4.43906e-07
2.08744e-06
1.08029e-06
2.05831e-06
-2.47681e-07
2.03465e-06
-6.69549e-07
2.03482e-06
-2.51667e-07
2.04931e-06
4.66588e-07
2.05115e-06
3.17256e-07
2.06252e-06
4.93467e-07
2.06272e-06
3.62895e-07
2.05851e-06
-2.12189e-08
2.04905e-06
3.59904e-08
2.04541e-06
2.60555e-08
2.0472e-06
3.78791e-08
2.0443e-06
3.76423e-08
2.04542e-06
1.98705e-08
2.04074e-06
6.16001e-08
2.03626e-06
9.00655e-08
1.38479e-07
2.03069e-06
2.1441e-06
1.27235e-07
2.12729e-06
-6.76557e-07
2.14217e-06
4.29028e-07
2.18091e-06
1.04155e-06
2.15761e-06
-2.24376e-07
2.1352e-06
-6.47141e-07
2.13235e-06
-2.48822e-07
2.14524e-06
4.53706e-07
2.14702e-06
3.15469e-07
2.15982e-06
4.80665e-07
2.1609e-06
3.61816e-07
2.15714e-06
-1.74514e-08
2.14984e-06
4.32844e-08
2.14567e-06
3.02283e-08
2.14784e-06
3.57103e-08
2.14372e-06
4.176e-08
2.14377e-06
1.98183e-08
2.13907e-06
6.62996e-08
2.13357e-06
9.55719e-08
1.42351e-07
2.12969e-06
2.24765e-06
1.26071e-07
2.23111e-06
-6.60014e-07
2.24278e-06
4.17356e-07
2.28015e-06
1.00419e-06
2.261e-06
-2.05232e-07
2.2396e-06
-6.2574e-07
2.23469e-06
-2.43909e-07
2.24643e-06
4.41968e-07
2.24826e-06
3.13639e-07
2.26203e-06
4.66896e-07
2.26379e-06
3.60054e-07
2.26005e-06
-1.37096e-08
2.25472e-06
4.86142e-08
2.24995e-06
3.49935e-08
2.25248e-06
3.31856e-08
2.24764e-06
4.65968e-08
2.24642e-06
2.10338e-08
2.24215e-06
7.05743e-08
2.23568e-06
1.0204e-07
1.44953e-07
2.23308e-06
2.35568e-06
1.24268e-07
2.33935e-06
-6.43681e-07
2.34926e-06
4.07443e-07
2.38548e-06
9.67961e-07
2.36903e-06
-1.88778e-07
2.34812e-06
-6.04833e-07
2.3419e-06
-2.37682e-07
2.35294e-06
4.30927e-07
2.35507e-06
3.11511e-07
2.36951e-06
4.52452e-07
2.37183e-06
3.57729e-07
2.36775e-06
-9.62635e-09
2.36405e-06
5.23204e-08
2.35861e-06
4.04251e-08
2.36129e-06
3.0506e-08
2.3562e-06
5.16902e-08
2.35358e-06
2.36553e-08
2.35008e-06
7.40756e-08
2.34292e-06
1.09195e-07
1.46808e-07
2.34107e-06
2.46859e-06
1.22071e-07
2.45223e-06
-6.27316e-07
2.46154e-06
3.98129e-07
2.49697e-06
9.32534e-07
2.48211e-06
-1.73917e-07
2.46117e-06
-5.83897e-07
2.45421e-06
-2.30717e-07
2.46486e-06
4.20274e-07
2.46752e-06
3.08851e-07
2.48245e-06
4.37522e-07
2.48528e-06
3.54894e-07
2.48062e-06
-4.96418e-09
2.47817e-06
5.47732e-08
2.47207e-06
4.65252e-08
2.4746e-06
2.7972e-08
2.46964e-06
5.66474e-08
2.46557e-06
2.77335e-08
2.46298e-06
7.66659e-08
2.45555e-06
1.16618e-07
1.48443e-07
2.45392e-06
2.58677e-06
1.19594e-07
2.57009e-06
-6.10632e-07
2.57962e-06
3.88595e-07
2.61452e-06
8.97633e-07
2.60058e-06
-1.59973e-07
2.5792e-06
-5.62519e-07
2.57193e-06
-2.23446e-07
2.58235e-06
4.09854e-07
2.58567e-06
3.0553e-07
2.60095e-06
4.22246e-07
2.60427e-06
3.51574e-07
2.59894e-06
3.64254e-10
2.5974e-06
5.63133e-08
2.59073e-06
5.31923e-08
2.59279e-06
2.59093e-08
2.58828e-06
6.11625e-08
2.58281e-06
3.31992e-08
2.58102e-06
7.84551e-08
2.57383e-06
1.23811e-07
1.50313e-07
2.57196e-06
2.71056e-06
1.1686e-07
2.6933e-06
-5.93366e-07
2.70357e-06
3.78324e-07
2.73808e-06
8.63125e-07
2.72475e-06
-1.46643e-07
2.70266e-06
-5.4043e-07
2.69538e-06
-2.16173e-07
2.70561e-06
3.99625e-07
2.70962e-06
3.01527e-07
2.72513e-06
4.06728e-07
2.72891e-06
3.47802e-07
2.72295e-06
6.31577e-09
2.72204e-06
5.72293e-08
2.71499e-06
6.02413e-08
2.71629e-06
2.46053e-08
2.71242e-06
6.50329e-08
2.70576e-06
3.98643e-08
2.70449e-06
7.97275e-08
2.69802e-06
1.30273e-07
1.5273e-07
2.69561e-06
2.84029e-06
1.13837e-07
2.82223e-06
-5.75304e-07
2.83354e-06
3.67016e-07
2.86764e-06
8.29022e-07
2.85489e-06
-1.33891e-07
2.83194e-06
-5.17485e-07
2.82488e-06
-2.09105e-07
2.8349e-06
3.89602e-07
2.83952e-06
2.96911e-07
2.8552e-06
3.9104e-07
2.85936e-06
3.43646e-07
2.85291e-06
1.27625e-08
2.85239e-06
5.77501e-08
2.84517e-06
6.74584e-08
2.84553e-06
2.42534e-08
2.84238e-06
6.81794e-08
2.8348e-06
4.7446e-08
2.83369e-06
8.08348e-08
2.82838e-06
1.35583e-07
1.55826e-07
2.82529e-06
2.97626e-06
1.10472e-07
2.95725e-06
-5.56296e-07
2.96976e-06
3.54505e-07
3.00334e-06
7.95445e-07
2.99128e-06
-1.21825e-07
2.96743e-06
-4.93637e-07
2.96069e-06
-2.02371e-07
2.97049e-06
3.79807e-07
2.97558e-06
2.91815e-07
2.99141e-06
3.75211e-07
2.99585e-06
3.39214e-07
2.98906e-06
1.95457e-08
2.98878e-06
5.80349e-08
2.98158e-06
7.46578e-08
2.9809e-06
2.4932e-08
2.97844e-06
7.06388e-08
2.97027e-06
5.56197e-08
2.96902e-06
8.20841e-08
2.96512e-06
1.39482e-07
1.59535e-07
2.96141e-06
3.11877e-06
1.06704e-07
3.09872e-06
-5.36238e-07
3.11252e-06
3.40698e-07
3.1454e-06
7.62567e-07
3.13417e-06
-1.10598e-07
3.10944e-06
-4.68904e-07
3.10311e-06
-1.96035e-07
3.11268e-06
3.7023e-07
3.11808e-06
2.86418e-07
3.13406e-06
3.59227e-07
3.13865e-06
3.34625e-07
3.13165e-06
2.65449e-08
3.13154e-06
5.81503e-08
3.12447e-06
8.1724e-08
3.12277e-06
2.6634e-08
3.12092e-06
7.24924e-08
3.11242e-06
6.41173e-08
3.11084e-06
8.36637e-08
3.10843e-06
1.41896e-07
1.6362e-07
3.10434e-06
3.26813e-06
1.0248e-07
3.24696e-06
-5.15065e-07
3.26213e-06
3.25532e-07
3.29412e-06
7.30571e-07
3.28387e-06
-1.00347e-07
3.25832e-06
-4.43352e-07
3.25239e-06
-1.90104e-07
3.26181e-06
3.60805e-07
3.2673e-06
2.80935e-07
3.28348e-06
3.43042e-07
3.28812e-06
3.29984e-07
3.28096e-06
3.37074e-08
3.28103e-06
5.80846e-08
3.27414e-06
8.86054e-08
3.27146e-06
2.93216e-08
3.27013e-06
7.38236e-08
3.26153e-06
7.27094e-08
3.25947e-06
8.57283e-08
3.25851e-06
1.42854e-07
1.67718e-07
3.25441e-06
3.42465e-06
9.77585e-08
3.40232e-06
-4.92731e-07
3.41889e-06
3.08963e-07
3.44985e-06
6.99605e-07
3.44067e-06
-9.11606e-08
3.4144e-06
-4.17081e-07
3.40881e-06
-1.84519e-07
3.41821e-06
3.51402e-07
3.42355e-06
2.75595e-07
3.43999e-06
3.266e-07
3.44463e-06
3.25344e-07
3.43727e-06
4.10668e-08
3.43759e-06
5.77686e-08
3.4309e-06
9.52922e-08
3.42727e-06
3.296e-08
3.42638e-06
7.47052e-08
3.41789e-06
8.12011e-08
3.4152e-06
8.84196e-08
3.41561e-06
1.42448e-07
1.71392e-07
3.41193e-06
3.58866e-06
9.25093e-08
3.56514e-06
-4.69213e-07
3.58313e-06
2.90976e-07
3.61297e-06
6.69765e-07
3.60488e-06
-8.307e-08
3.57804e-06
-3.90241e-07
3.57267e-06
-1.79147e-07
3.58224e-06
3.41833e-07
3.5872e-06
2.70628e-07
3.60393e-06
3.0987e-07
3.6086e-06
3.20677e-07
3.60092e-06
4.87501e-08
3.60158e-06
5.71054e-08
3.5951e-06
1.01769e-07
3.59049e-06
3.75731e-08
3.59002e-06
7.51712e-08
3.58182e-06
8.94013e-08
3.57835e-06
9.18895e-08
3.57994e-06
1.40864e-07
1.7415e-07
3.57718e-06
3.7605e-06
8.67124e-08
3.7358e-06
-4.44508e-07
3.75519e-06
2.71586e-07
3.78387e-06
6.41086e-07
3.77684e-06
-7.60431e-08
3.74963e-06
-3.63033e-07
3.74428e-06
-1.7379e-07
3.75424e-06
3.31864e-07
3.75863e-06
2.66244e-07
3.77563e-06
2.92871e-07
3.78045e-06
3.15853e-07
3.77224e-06
5.69643e-08
3.77334e-06
5.60016e-08
3.76715e-06
1.07959e-07
3.76146e-06
4.32599e-08
3.76137e-06
7.5262e-08
3.75374e-06
9.70313e-08
3.74932e-06
9.63093e-08
3.75175e-06
1.38436e-07
1.75497e-07
3.7504e-06
3.94054e-06
8.03586e-08
3.91467e-06
-4.18641e-07
3.93541e-06
2.50852e-07
3.96295e-06
6.13543e-07
3.9569e-06
-6.99874e-08
3.92959e-06
-3.35731e-07
3.92398e-06
-1.6818e-07
3.9346e-06
3.21246e-07
3.93824e-06
2.62608e-07
3.95542e-06
2.75693e-07
3.96061e-06
3.10663e-07
3.95164e-06
6.59257e-08
3.9532e-06
5.44465e-08
3.94747e-06
1.1369e-07
3.94057e-06
5.01538e-08
3.94076e-06
7.50799e-08
3.93403e-06
1.0376e-07
3.92863e-06
1.01711e-07
3.93131e-06
1.35756e-07
1.75003e-07
3.9318e-06
4.12916e-06
7.34494e-08
4.10219e-06
-3.91669e-07
4.12415e-06
2.28884e-07
4.15064e-06
5.87058e-07
4.1454e-06
-6.47477e-08
4.11835e-06
-3.08683e-07
4.11217e-06
-1.62001e-07
4.12368e-06
3.09741e-07
4.12649e-06
2.59802e-07
4.14365e-06
2.58525e-07
4.14946e-06
3.04857e-07
4.13961e-06
7.57797e-08
4.14147e-06
5.25805e-08
4.1365e-06
1.18663e-07
4.12827e-06
5.83799e-08
4.12853e-06
7.4819e-08
4.12301e-06
1.09282e-07
4.11682e-06
1.079e-07
4.11904e-06
1.33543e-07
1.72554e-07
4.12149e-06
4.32675e-06
6.59995e-08
4.29877e-06
-3.63688e-07
4.3218e-06
2.0586e-07
4.34737e-06
5.61482e-07
4.34272e-06
-6.00937e-08
4.31635e-06
-2.82319e-07
4.30926e-06
-1.54909e-07
4.32184e-06
2.9716e-07
4.32385e-06
2.57795e-07
4.34071e-06
2.4166e-07
4.34739e-06
2.98181e-07
4.33662e-06
8.65474e-08
4.3385e-06
5.07008e-08
4.33464e-06
1.22524e-07
4.32513e-06
6.78903e-08
4.3251e-06
7.48533e-08
4.32101e-06
1.1337e-07
4.31443e-06
1.14483e-07
4.31559e-06
1.32384e-07
1.68511e-07
4.31963e-06
4.53373e-06
5.80403e-08
4.50488e-06
-3.34837e-07
4.52872e-06
1.8202e-07
4.5536e-06
5.36604e-07
4.54924e-06
-5.5733e-08
4.52404e-06
-2.57116e-07
4.5157e-06
-1.46573e-07
4.52943e-06
2.83426e-07
4.53083e-06
2.56403e-07
4.54702e-06
2.25465e-07
4.55477e-06
2.90431e-07
4.54321e-06
9.81055e-08
4.54469e-06
4.92243e-08
4.54227e-06
1.2494e-07
4.5317e-06
7.84589e-08
4.53094e-06
7.56136e-08
4.52833e-06
1.1598e-07
4.52189e-06
1.2093e-07
4.52172e-06
1.32551e-07
1.63679e-07
4.52655e-06
4.75053e-06
4.96227e-08
4.721e-06
-3.05306e-07
4.74533e-06
1.57687e-07
4.76981e-06
5.1213e-07
4.76538e-06
-5.13047e-08
4.74183e-06
-2.33567e-07
4.73199e-06
-1.36733e-07
4.74679e-06
2.6863e-07
4.7479e-06
2.55286e-07
4.76304e-06
2.10333e-07
4.77198e-06
2.81487e-07
4.75986e-06
1.10222e-07
4.76051e-06
4.85722e-08
4.75972e-06
1.25735e-07
4.74851e-06
8.96668e-08
4.74659e-06
7.7538e-08
4.74536e-06
1.17205e-07
4.73951e-06
1.2678e-07
4.73816e-06
1.33908e-07
1.58946e-07
4.74289e-06
4.9776e-06
4.08203e-08
4.94763e-06
-2.75334e-07
4.97204e-06
1.33276e-07
4.99649e-06
4.87675e-07
4.9916e-06
-4.64067e-08
4.97016e-06
-2.1213e-07
4.95868e-06
-1.2525e-07
4.97425e-06
2.53059e-07
4.97556e-06
2.53979e-07
4.98928e-06
1.9661e-07
4.99942e-06
2.71345e-07
4.98707e-06
1.22574e-07
4.98649e-06
4.91505e-08
4.98739e-06
1.24841e-07
4.97599e-06
1.0106e-07
4.97263e-06
8.09e-08
4.97256e-06
1.17278e-07
4.96762e-06
1.31719e-07
4.96548e-06
1.36044e-07
1.54964e-07
4.96946e-06
5.21541e-06
3.17306e-08
5.18529e-06
-2.45219e-07
5.20926e-06
1.0931e-07
5.23417e-06
4.62761e-07
5.2284e-06
-4.0634e-08
5.20945e-06
-1.93177e-07
5.19641e-06
-1.12211e-07
5.21223e-06
2.37233e-07
5.21422e-06
2.51994e-07
5.22632e-06
1.8451e-07
5.23753e-06
2.60132e-07
5.2253e-06
1.34799e-07
5.2232e-06
5.12542e-08
5.22567e-06
1.22376e-07
5.2146e-06
1.12127e-07
5.20964e-06
8.58614e-08
5.21041e-06
1.16502e-07
5.20661e-06
1.35522e-07
5.20406e-06
1.38594e-07
1.51915e-07
5.20711e-06
5.46444e-06
2.24756e-08
5.43455e-06
-2.15322e-07
5.45739e-06
8.64638e-08
5.48336e-06
4.36794e-07
5.47636e-06
-3.36307e-08
5.46008e-06
-1.76902e-07
5.4459e-06
-9.80313e-08
5.46128e-06
2.21852e-07
5.4643e-06
2.48972e-07
5.47474e-06
1.74079e-07
5.48678e-06
2.48085e-07
5.47505e-06
1.4653e-07
5.47123e-06
5.50786e-08
5.47499e-06
1.1861e-07
5.46481e-06
1.22304e-07
5.45819e-06
9.24884e-08
5.45943e-06
1.15255e-07
5.45699e-06
1.37967e-07
5.45425e-06
1.41334e-07
1.49687e-07
5.45648e-06
5.72523e-06
1.32023e-08
5.69596e-06
-1.86054e-07
5.71685e-06
6.55794e-08
5.74456e-06
4.09085e-07
5.73608e-06
-2.51523e-08
5.72244e-06
-1.63265e-07
5.70786e-06
-8.34507e-08
5.72207e-06
2.07642e-07
5.72625e-06
2.44791e-07
5.73514e-06
1.65192e-07
5.7477e-06
2.35527e-07
5.7368e-06
1.57431e-07
5.73115e-06
6.07307e-08
5.73583e-06
1.13929e-07
5.72709e-06
1.31036e-07
5.71894e-06
1.00645e-07
5.72009e-06
1.14098e-07
5.71927e-06
1.38794e-07
5.71655e-06
1.44056e-07
1.48163e-07
5.71807e-06
5.99831e-06
4.08155e-09
5.97015e-06
-1.57891e-07
5.98804e-06
4.76948e-08
6.01825e-06
3.78874e-07
6.00824e-06
-1.51467e-08
5.99677e-06
-1.51791e-07
5.98283e-06
-6.95167e-08
5.99541e-06
1.95063e-07
6.00058e-06
2.39618e-07
6.00811e-06
1.57668e-07
6.02083e-06
2.22809e-07
6.01102e-06
1.6724e-07
6.00354e-06
6.82032e-08
6.00867e-06
1.08808e-07
6.0019e-06
1.37799e-07
5.99255e-06
1.1e-07
5.99301e-06
1.13641e-07
5.99389e-06
1.3791e-07
5.99156e-06
1.46385e-07
1.4736e-07
5.99236e-06
6.28427e-06
-4.70187e-09
6.25772e-06
-1.31341e-07
6.27172e-06
3.36966e-08
6.30484e-06
3.45751e-07
6.29355e-06
-3.85755e-09
6.28343e-06
-1.41673e-07
6.27116e-06
-5.7245e-08
6.28205e-06
1.84171e-07
6.2878e-06
2.33878e-07
6.29412e-06
1.51343e-07
6.30667e-06
2.10259e-07
6.29815e-06
1.75761e-07
6.28902e-06
7.73381e-08
6.29404e-06
1.0378e-07
6.28965e-06
1.42195e-07
6.27968e-06
1.19964e-07
6.2789e-06
1.14428e-07
6.28128e-06
1.35525e-07
6.27989e-06
1.47777e-07
1.47284e-07
6.27996e-06
6.58372e-06
-1.29534e-08
6.55932e-06
-1.06937e-07
6.56923e-06
2.37836e-08
6.60473e-06
3.10249e-07
6.59282e-06
8.05334e-09
6.58302e-06
-1.31873e-07
6.57289e-06
-4.71118e-08
6.58208e-06
1.74982e-07
6.58794e-06
2.28012e-07
6.59331e-06
1.45973e-07
6.60559e-06
1.97978e-07
6.59862e-06
1.82737e-07
6.58817e-06
8.7784e-08
6.59262e-06
9.93354e-08
6.59074e-06
1.44067e-07
6.58092e-06
1.29785e-07
6.57858e-06
1.16767e-07
6.58191e-06
1.32196e-07
6.582e-06
1.47685e-07
1.47713e-07
6.58158e-06
6.89732e-06
-2.04806e-08
6.8756e-06
-8.52155e-08
6.88155e-06
1.78267e-08
6.91836e-06
2.73445e-07
6.90676e-06
1.96476e-08
6.89624e-06
-1.21355e-07
6.88809e-06
-3.89618e-08
6.8955e-06
1.6758e-07
6.90143e-06
2.22079e-07
6.90603e-06
1.41372e-07
6.91808e-06
1.85934e-07
6.91297e-06
1.87842e-07
6.90173e-06
9.90261e-08
6.90511e-06
9.59517e-08
6.90571e-06
1.43465e-07
6.89678e-06
1.38719e-07
6.89293e-06
1.20616e-07
6.89639e-06
1.28733e-07
6.89828e-06
1.45795e-07
1.48141e-07
6.89786e-06
7.22577e-06
-2.71108e-08
7.20724e-06
-6.66884e-08
7.20947e-06
1.55924e-08
7.24636e-06
2.36562e-07
7.23592e-06
3.00881e-08
7.22394e-06
-1.0938e-07
7.21813e-06
-3.31476e-08
7.22425e-06
1.61458e-07
7.22976e-06
2.16566e-07
7.23347e-06
1.37666e-07
7.24504e-06
1.74357e-07
7.24199e-06
1.90897e-07
7.23045e-06
1.10565e-07
7.23238e-06
9.40181e-08
7.23513e-06
1.40721e-07
7.2278e-06
1.46043e-07
7.22272e-06
1.257e-07
7.22557e-06
1.25881e-07
7.22913e-06
1.42241e-07
1.47877e-07
7.22939e-06
7.5698e-06
-3.2681e-08
7.55498e-06
-5.18749e-08
7.55375e-06
1.68287e-08
7.58957e-06
2.00735e-07
7.58106e-06
3.86047e-08
7.56737e-06
-9.56924e-08
7.56358e-06
-2.93567e-08
7.56932e-06
1.55719e-07
7.57404e-06
2.11849e-07
7.5765e-06
1.35198e-07
7.58746e-06
1.63396e-07
7.5865e-06
1.91865e-07
7.57512e-06
1.21944e-07
7.5753e-06
9.38312e-08
7.57968e-06
1.36342e-07
7.57446e-06
1.5127e-07
7.56867e-06
1.31482e-07
7.57041e-06
1.2415e-07
7.57505e-06
1.37593e-07
1.46324e-07
7.57661e-06
7.9302e-06
-3.70745e-08
7.91955e-06
-4.12156e-08
7.91523e-06
2.11397e-08
7.94882e-06
1.67147e-07
7.9433e-06
4.4129e-08
7.92886e-06
-8.12498e-08
7.9265e-06
-2.70039e-08
7.93254e-06
1.49686e-07
7.93505e-06
2.09337e-07
7.93579e-06
1.3446e-07
7.94617e-06
1.53012e-07
7.94726e-06
1.90773e-07
7.93654e-06
1.32668e-07
7.93482e-06
9.55538e-08
7.94015e-06
1.31011e-07
7.93739e-06
1.54027e-07
7.93147e-06
1.37403e-07
7.93187e-06
1.23744e-07
7.93688e-06
1.32587e-07
1.4324e-07
7.93996e-06
8.30781e-06
-4.0206e-08
8.30145e-06
-3.48521e-08
8.29497e-06
2.76186e-08
8.32531e-06
1.36808e-07
8.32396e-06
4.54799e-08
8.31011e-06
-6.74038e-08
8.30756e-06
-2.44557e-08
8.31143e-06
1.45824e-07
8.31283e-06
2.0793e-07
8.31235e-06
1.3494e-07
8.32199e-06
1.43376e-07
8.32508e-06
1.87681e-07
8.31544e-06
1.42307e-07
8.31191e-06
9.90855e-08
8.31739e-06
1.25538e-07
8.31718e-06
1.54228e-07
8.3118e-06
1.42785e-07
8.31089e-06
1.24654e-07
8.3156e-06
1.27875e-07
1.38787e-07
8.32006e-06
8.70349e-06
-4.20337e-08
8.70116e-06
-3.25194e-08
8.69358e-06
3.52e-08
8.72122e-06
1.09164e-07
8.72125e-06
4.54542e-08
8.70023e-06
-4.63916e-08
8.69551e-06
-1.97354e-08
8.70473e-06
1.36609e-07
8.70869e-06
2.03971e-07
8.70741e-06
1.36215e-07
8.71586e-06
1.3493e-07
8.72073e-06
1.82805e-07
8.71262e-06
1.50417e-07
8.70766e-06
1.04049e-07
8.71251e-06
1.20687e-07
8.7146e-06
1.52138e-07
8.71038e-06
1.47008e-07
8.7084e-06
1.26629e-07
8.71229e-06
1.23985e-07
1.33452e-07
8.71763e-06
9.11818e-06
-4.25934e-08
9.11933e-06
-3.36721e-08
9.11103e-06
4.35033e-08
9.13169e-06
8.85049e-08
9.13414e-06
4.29988e-08
9.11559e-06
-2.78388e-08
9.10928e-06
-1.34298e-08
9.11922e-06
1.26673e-07
9.12409e-06
1.99098e-07
9.12189e-06
1.38419e-07
9.1287e-06
1.28124e-07
9.13498e-06
1.76517e-07
9.12874e-06
1.56664e-07
9.12284e-06
1.09946e-07
9.12654e-06
1.16985e-07
9.13039e-06
1.48287e-07
9.12783e-06
1.49566e-07
9.12527e-06
1.29197e-07
9.12806e-06
1.21197e-07
1.27811e-07
9.1337e-06
9.55285e-06
-4.19797e-08
9.55649e-06
-3.73167e-08
9.54877e-06
5.12246e-08
9.56441e-06
7.28672e-08
9.5695e-06
3.79027e-08
9.55261e-06
-1.09478e-08
9.54372e-06
-4.53361e-09
9.55319e-06
1.17202e-07
9.55941e-06
1.9287e-07
9.55672e-06
1.41115e-07
9.56164e-06
1.23198e-07
9.56886e-06
1.69303e-07
9.56464e-06
1.60879e-07
9.55835e-06
1.16241e-07
9.56069e-06
1.1464e-07
9.56561e-06
1.43368e-07
9.56494e-06
1.5024e-07
9.56235e-06
1.31781e-07
9.56397e-06
1.1958e-07
1.2244e-07
9.56934e-06
1.00085e-05
-4.03516e-08
1.00139e-05
-4.26807e-08
1.0008e-05
5.71062e-08
1.00189e-05
6.19912e-08
1.00254e-05
3.13275e-08
1.00109e-05
3.61502e-09
9.99971e-06
6.63317e-09
1.00077e-05
1.09194e-07
1.00153e-05
1.85315e-07
1.00128e-05
1.43589e-07
1.00158e-05
1.20172e-07
1.00234e-05
1.6173e-07
1.00212e-05
1.6309e-07
1.0015e-05
1.22404e-07
1.0016e-05
1.1367e-07
1.00213e-05
1.3802e-07
1.00225e-05
1.49101e-07
1.00204e-05
1.33826e-07
1.00211e-05
1.18919e-07
1.17786e-07
1.00258e-05
1.04863e-05
-3.79656e-08
1.04926e-05
-4.90553e-08
1.04894e-05
6.0322e-08
1.04957e-05
5.57491e-08
1.05029e-05
2.40913e-08
1.04911e-05
1.53757e-08
1.04783e-05
1.94382e-08
1.04841e-05
1.0343e-07
1.04926e-05
1.76768e-07
1.04909e-05
1.45348e-07
1.04923e-05
1.18771e-07
1.04997e-05
1.54323e-07
1.04994e-05
1.63409e-07
1.04938e-05
1.2802e-07
1.04936e-05
1.13857e-07
1.04988e-05
1.32785e-07
1.05015e-05
1.46397e-07
1.05004e-05
1.34968e-07
1.05005e-05
1.18808e-07
1.14093e-07
1.05042e-05
1.09872e-05
-3.51069e-08
1.09937e-05
-5.55731e-08
1.09939e-05
6.01107e-08
1.0996e-05
5.36592e-08
1.10025e-05
1.75638e-08
1.09939e-05
2.39981e-08
1.09805e-05
3.28076e-08
1.09837e-05
1.00247e-07
1.09926e-05
1.67888e-07
1.09918e-05
1.4609e-07
1.09921e-05
1.18539e-07
1.09989e-05
1.47445e-07
1.10003e-05
1.62106e-07
1.09955e-05
1.32782e-07
1.09944e-05
1.14936e-07
1.09991e-05
1.28066e-07
1.1003e-05
1.42475e-07
1.1003e-05
1.35027e-07
1.1003e-05
1.18826e-07
1.11294e-07
1.10058e-05
1.15123e-05
-3.20886e-08
1.15181e-05
-6.13523e-08
1.1522e-05
5.6199e-08
1.15207e-05
5.50028e-08
1.15247e-05
1.35103e-08
1.15196e-05
2.91529e-08
1.15072e-05
4.52457e-08
1.15079e-05
9.94666e-08
1.15163e-05
1.59503e-07
1.15167e-05
1.4571e-07
1.15162e-05
1.19027e-07
1.15223e-05
1.41353e-07
1.15249e-05
1.59464e-07
1.15213e-05
1.36476e-07
1.15196e-05
1.16586e-07
1.15236e-05
1.24075e-07
1.15283e-05
1.37734e-07
1.15294e-05
1.33932e-07
1.15296e-05
1.18677e-07
1.09104e-07
1.15318e-05
1.20629e-05
-2.91827e-08
1.20672e-05
-6.56547e-08
1.20742e-05
4.92256e-08
1.20705e-05
5.86906e-08
1.20708e-05
1.31792e-08
1.20691e-05
3.08795e-08
1.20591e-05
5.52248e-08
1.2058e-05
1.006e-07
1.20653e-05
1.52243e-07
1.20665e-05
1.44435e-07
1.20657e-05
1.19842e-07
1.2071e-05
1.36113e-07
1.20746e-05
1.55778e-07
1.20722e-05
1.38948e-07
1.20703e-05
1.18488e-07
1.20735e-05
1.2088e-07
1.20786e-05
1.32609e-07
1.20808e-05
1.31709e-07
1.20813e-05
1.18182e-07
1.07213e-07
1.20832e-05
1.264e-05
-2.65737e-08
1.26419e-05
-6.75861e-08
1.26502e-05
4.08928e-08
1.26464e-05
6.25832e-08
1.26433e-05
1.6274e-08
1.26437e-05
3.04129e-08
1.26372e-05
6.17412e-08
1.2635e-05
1.02796e-07
1.26408e-05
1.46479e-07
1.26426e-05
1.42662e-07
1.26417e-05
1.2065e-07
1.26462e-05
1.31683e-07
1.26506e-05
1.51344e-07
1.26494e-05
1.40138e-07
1.26476e-05
1.20349e-07
1.265e-05
1.18472e-07
1.26551e-05
1.2747e-07
1.26583e-05
1.28498e-07
1.26593e-05
1.1718e-07
1.05438e-07
1.26611e-05
1.32447e-05
-2.4349e-08
1.32434e-05
-6.62398e-08
1.32524e-05
3.1898e-08
1.32499e-05
6.49931e-08
1.32445e-05
2.17518e-08
1.32452e-05
2.97211e-08
1.32422e-05
6.4695e-08
1.32401e-05
1.04901e-07
1.32443e-05
1.42277e-07
1.32462e-05
1.40796e-07
1.32455e-05
1.21319e-07
1.32492e-05
1.27973e-07
1.32541e-05
1.46461e-07
1.32542e-05
1.40068e-07
1.32527e-05
1.21839e-07
1.32544e-05
1.16737e-07
1.32593e-05
1.22614e-07
1.32633e-05
1.24509e-07
1.32649e-05
1.15559e-07
1.03696e-07
1.32666e-05
1.38784e-05
-2.2587e-08
1.38753e-05
-6.31032e-08
1.3884e-05
2.32026e-08
1.38831e-05
6.58151e-08
1.3876e-05
2.893e-08
1.38753e-05
3.04035e-08
1.38752e-05
6.48146e-08
1.38742e-05
1.05839e-07
1.38772e-05
1.39317e-07
1.38789e-05
1.39123e-07
1.38783e-05
1.21884e-07
1.38814e-05
1.24892e-07
1.38865e-05
1.41336e-07
1.38877e-05
1.38855e-07
1.38868e-05
1.22726e-07
1.38881e-05
1.15429e-07
1.38925e-05
1.18272e-07
1.3897e-05
1.20005e-07
1.38993e-05
1.13281e-07
1.01912e-07
1.3901e-05
1.45423e-05
-2.12588e-08
1.45371e-05
-5.78361e-08
1.45454e-05
1.48347e-08
1.45468e-05
6.44872e-08
1.45389e-05
3.68047e-08
1.45361e-05
3.31668e-08
1.45375e-05
6.34651e-08
1.45383e-05
1.05024e-07
1.45407e-05
1.36904e-07
1.45421e-05
1.37757e-07
1.45415e-05
1.22414e-07
1.4544e-05
1.22386e-07
1.45492e-05
1.36159e-07
1.45515e-05
1.36615e-07
1.45512e-05
1.22949e-07
1.45524e-05
1.14246e-07
1.45562e-05
1.14517e-07
1.45609e-05
1.15327e-07
1.45638e-05
1.1032e-07
9.99987e-08
1.45657e-05
1.52379e-05
-2.02877e-08
1.52317e-05
-5.16552e-08
1.52386e-05
7.95134e-09
1.52418e-05
6.126e-08
1.52343e-05
4.4309e-08
1.52296e-05
3.79247e-08
1.52309e-05
6.21392e-08
1.52335e-05
1.02445e-07
1.52362e-05
1.34205e-07
1.52373e-05
1.36676e-07
1.52367e-05
1.22944e-07
1.52387e-05
1.20415e-07
1.52437e-05
1.31198e-07
1.52469e-05
1.3342e-07
1.52473e-05
1.22476e-07
1.52486e-05
1.13e-07
1.52519e-05
1.11204e-07
1.52564e-05
1.1081e-07
1.526e-05
1.06744e-07
9.78365e-08
1.52621e-05
1.59666e-05
-1.95258e-08
1.59602e-05
-4.52393e-08
1.5965e-05
3.08508e-09
1.59696e-05
5.66508e-08
1.59634e-05
5.05324e-08
1.59573e-05
4.408e-08
1.59575e-05
6.19313e-08
1.59612e-05
9.86692e-08
1.59648e-05
1.3064e-07
1.59659e-05
1.35564e-07
1.59654e-05
1.23447e-07
1.59669e-05
1.18929e-07
1.59715e-05
1.26638e-07
1.59754e-05
1.29522e-07
1.59766e-05
1.2118e-07
1.5978e-05
1.11632e-07
1.59811e-05
1.08134e-07
1.59853e-05
1.06618e-07
1.59892e-05
1.02802e-07
9.52689e-08
1.59918e-05
1.67299e-05
-1.88027e-08
1.67234e-05
-3.87122e-08
1.67262e-05
2.3468e-10
1.67317e-05
5.11874e-08
1.67273e-05
5.49411e-08
1.67206e-05
5.07622e-08
1.67193e-05
6.32123e-08
1.67233e-05
9.46636e-08
1.67278e-05
1.26108e-07
1.67295e-05
1.33906e-07
1.67291e-05
1.23852e-07
1.67302e-05
1.17848e-07
1.67343e-05
1.22514e-07
1.67385e-05
1.25316e-07
1.67407e-05
1.19001e-07
1.67423e-05
1.10004e-07
1.67452e-05
1.05219e-07
1.67492e-05
1.02673e-07
1.67532e-05
9.88068e-08
9.22349e-08
1.67562e-05
1.75295e-05
-1.79865e-08
1.75238e-05
-3.29866e-08
1.75245e-05
-4.28424e-10
1.75297e-05
4.59211e-08
1.75272e-05
5.745e-08
1.75209e-05
5.71113e-08
1.75183e-05
6.57677e-08
1.75216e-05
9.13531e-08
1.75269e-05
1.20875e-07
1.75294e-05
1.31342e-07
1.75293e-05
1.23952e-07
1.75302e-05
1.17006e-07
1.75338e-05
1.18888e-07
1.75381e-05
1.21024e-07
1.75409e-05
1.16157e-07
1.7543e-05
1.07922e-07
1.75458e-05
1.02397e-07
1.75497e-05
9.88627e-08
1.75536e-05
9.49071e-08
8.88517e-08
1.75569e-05
1.83673e-05
-1.69824e-08
1.83624e-05
-2.80593e-08
1.83615e-05
4.70051e-10
1.83658e-05
4.15909e-08
1.8365e-05
5.83347e-08
1.83596e-05
6.24523e-08
1.83563e-05
6.9129e-08
1.83584e-05
8.92513e-08
1.83638e-05
1.15447e-07
1.83673e-05
1.27869e-07
1.83678e-05
1.234e-07
1.83686e-05
1.16224e-07
1.83717e-05
1.15775e-07
1.8376e-05
1.16708e-07
1.83793e-05
1.12923e-07
1.83818e-05
1.05356e-07
1.83847e-05
9.95216e-08
1.83884e-05
9.51846e-08
1.83922e-05
9.10631e-08
8.53128e-08
1.83958e-05
1.92452e-05
-1.57785e-08
1.9241e-05
-2.38663e-08
1.92391e-05
2.34447e-09
1.92421e-05
3.86468e-08
1.92423e-05
5.81243e-08
1.92383e-05
6.64285e-08
1.92347e-05
7.27616e-08
1.92356e-05
8.83287e-08
1.92406e-05
1.10454e-07
1.92447e-05
1.23715e-07
1.92462e-05
1.21954e-07
1.92471e-05
1.15325e-07
1.92498e-05
1.13048e-07
1.9254e-05
1.12543e-07
1.92576e-05
1.09335e-07