/*--------------------------------*- C++ -*----------------------------------*\
| =========                 |                                                 |
| \\      /  F ield         | OpenFOAM: The Open Source CFD Toolbox           |
|  \\    /   O peration     | Version:  v1812                                 |
|   \\  /    A nd           | Web:      www.OpenFOAM.com                      |
|    \\/     M anipulation  |                                                 |
\*---------------------------------------------------------------------------*/
FoamFile
{
    version     2.0;
    format      ascii;
    class       volVectorField;
    location    "3.7";
    object      U;
}
// * * * * * * * * * * * * * * * * * * * * * * * * * * * * * * * * * * * * * //

dimensions      [0 1 -1 0 0 0 0];


internalField   nonuniform List<vector> 
9600
(
(0.761389 -4.10897e-05 0)
(1.21908 -0.00433122 0)
(0.897625 0.00970006 0)
(1.21712 0.00682973 0)
(0.609483 -0.00892725 0)
(1.22646 -0.00253207 0)
(0.855516 -0.00388952 0)
(1.15316 0.00977999 0)
(0.856306 0.00462029 0)
(1.14545 0.00894559 0)
(0.799872 0.0063071 0)
(1.13576 -0.00295382 0)
(0.788701 -0.000749992 0)
(1.15492 0.00375728 0)
(0.818382 -9.86016e-05 0)
(1.12702 0.00474144 0)
(0.85253 -0.00032375 0)
(1.11728 0.00363556 0)
(0.860652 -0.000341544 0)
(1.11042 0.00118948 0)
(0.771406 -2.84925e-05 0)
(1.20761 -0.00512571 0)
(0.902038 0.00916756 0)
(1.20763 0.00987434 0)
(0.638726 -0.00927251 0)
(1.20991 -0.00516761 0)
(0.869835 -0.00350488 0)
(1.14424 0.0101585 0)
(0.875644 0.00450486 0)
(1.13044 0.00989627 0)
(0.833507 0.0061417 0)
(1.1085 -0.00236447 0)
(0.829143 -0.00167832 0)
(1.115 0.00343258 0)
(0.876007 0.00026429 0)
(1.07111 0.00402328 0)
(0.928073 -2.65447e-05 0)
(1.03812 0.00283243 0)
(0.964125 0.000461404 0)
(0.996233 0.00118218 0)
(0.79208 -1.89965e-05 0)
(1.18403 -0.00582884 0)
(0.912381 0.00905437 0)
(1.18954 0.0121687 0)
(0.693196 -0.00973586 0)
(1.17595 -0.00685325 0)
(0.89869 -0.00312652 0)
(1.122 0.0103101 0)
(0.910637 0.00453788 0)
(1.09996 0.0106968 0)
(0.887619 0.00629081 0)
(1.06558 -0.00208059 0)
(0.889621 -0.00192169 0)
(1.059 0.00276318 0)
(0.940182 0.00103983 0)
(1.01798 0.00290323 0)
(0.976557 0.000784309 0)
(0.999472 0.00203935 0)
(0.989103 0.00171303 0)
(0.98435 0.00169298 0)
(0.822428 4.023e-05 0)
(1.1497 -0.00643313 0)
(0.927865 0.0088974 0)
(1.16417 0.013923 0)
(0.765724 -0.00974948 0)
(1.12809 -0.00843792 0)
(0.935248 -0.00283966 0)
(1.09024 0.0102715 0)
(0.948422 0.00477721 0)
(1.06321 0.0110228 0)
(0.93782 0.00671854 0)
(1.02581 -0.00201168 0)
(0.938231 -0.00181996 0)
(1.01628 0.00193468 0)
(0.975785 0.00164088 0)
(0.99521 0.00232408 0)
(0.989505 0.00106153 0)
(0.993325 0.00191382 0)
(0.98934 0.00210538 0)
(0.987529 0.00227008 0)
(0.85915 0.0001569 0)
(1.1091 -0.0069928 0)
(0.945862 0.00860061 0)
(1.13432 0.0152593 0)
(0.842265 -0.00941254 0)
(1.07645 -0.00985772 0)
(0.968362 -0.00270225 0)
(1.05825 0.0102008 0)
(0.977757 0.00513617 0)
(1.03239 0.0111176 0)
(0.970467 0.00723706 0)
(1.00207 -0.00193292 0)
(0.964748 -0.00165478 0)
(0.994355 0.00129845 0)
(0.987232 0.00191208 0)
(0.99028 0.00209612 0)
(0.990999 0.00114707 0)
(0.992799 0.0018787 0)
(0.990064 0.00242879 0)
(0.987294 0.00275339 0)
(0.897242 0.000326029 0)
(1.06884 -0.00747506 0)
(0.962748 0.00825443 0)
(1.10458 0.0160892 0)
(0.908905 -0.0087826 0)
(1.03261 -0.010919 0)
(0.989766 -0.00271739 0)
(1.03372 0.010166 0)
(0.995517 0.00551906 0)
(1.01366 0.0111706 0)
(0.986937 0.0076772 0)
(0.994162 -0.00178121 0)
(0.976487 -0.00148693 0)
(0.986199 0.000915774 0)
(0.98877 0.00191711 0)
(0.989884 0.00193191 0)
(0.991679 0.00122515 0)
(0.992548 0.00181834 0)
(0.991223 0.00271211 0)
(0.987292 0.00328542 0)
(0.931586 0.0005326 0)
(1.0354 -0.00783751 0)
(0.975372 0.00785791 0)
(1.07929 0.0164519 0)
(0.958274 -0.00795234 0)
(1.00357 -0.0115653 0)
(0.998147 -0.00290332 0)
(1.01845 0.0101281 0)
(1.00458 0.00585834 0)
(1.00587 0.0112275 0)
(0.994566 0.00798536 0)
(0.995362 -0.0015863 0)
(0.982525 -0.00124736 0)
(0.984799 0.000687373 0)
(0.988706 0.00179016 0)
(0.990281 0.00176252 0)
(0.992905 0.00125975 0)
(0.993386 0.00178635 0)
(0.992344 0.00295334 0)
(0.988334 0.00388035 0)
(0.958677 0.000747932 0)
(1.0125 -0.00806121 0)
(0.982478 0.00740126 0)
(1.06034 0.0164541 0)
(0.990064 -0.00704768 0)
(0.989605 -0.0118273 0)
(0.997711 -0.0032164 0)
(1.00981 0.010023 0)
(1.00871 0.00611751 0)
(1.00463 0.0112809 0)
(0.998976 0.00818783 0)
(0.999699 -0.00138304 0)
(0.987312 -0.000919393 0)
(0.986579 0.000545106 0)
(0.989608 0.0016541 0)
(0.991258 0.0015754 0)
(0.994367 0.00122048 0)
(0.994993 0.00182601 0)
(0.993837 0.00317245 0)
(0.989963 0.00449273 0)
(0.977478 0.000940645 0)
(1.00005 -0.00814808 0)
(0.985028 0.00691031 0)
(1.04683 0.0162066 0)
(1.0079 -0.00616733 0)
(0.986385 -0.0117866 0)
(0.994076 -0.00356827 0)
(1.00456 0.0098162 0)
(1.01007 0.00628067 0)
(1.00583 0.0113043 0)
(1.00238 0.00832509 0)
(1.00401 -0.00118748 0)
(0.991795 -0.00054182 0)
(0.989719 0.000481534 0)
(0.991542 0.00154787 0)
(0.992683 0.0013875 0)
(0.995795 0.00113594 0)
(0.996557 0.00192168 0)
(0.99543 0.00335311 0)
(0.991732 0.00508477 0)
(0.989058 0.00109033 0)
(0.995227 -0.00811925 0)
(0.985237 0.00643068 0)
(1.03671 0.0158001 0)
(1.0163 -0.00537354 0)
(0.988707 -0.0115475 0)
(0.991054 -0.00386637 0)
(1.00086 0.00952546 0)
(1.00964 0.00635315 0)
(1.00698 0.011269 0)
(1.00499 0.00842137 0)
(1.00715 -0.0010082 0)
(0.995726 -0.000141776 0)
(0.993115 0.000487225 0)
(0.99395 0.0014629 0)
(0.99426 0.00124656 0)
(0.997027 0.00103593 0)
(0.997668 0.0020422 0)
(0.996657 0.00349544 0)
(0.993267 0.00564601 0)
(0.995501 0.00119164 0)
(0.994549 -0.00800856 0)
(0.985141 0.00600374 0)
(1.02841 0.0153052 0)
(1.01914 -0.00469381 0)
(0.992801 -0.0112055 0)
(0.989872 -0.00407015 0)
(0.998122 0.00920061 0)
(1.00819 0.00636067 0)
(1.00713 0.011161 0)
(1.00657 0.00848423 0)
(1.00891 -0.000848808 0)
(0.998816 0.00024933 0)
(0.996163 0.000539178 0)
(0.996361 0.00139477 0)
(0.995799 0.00118929 0)
(0.998044 0.000927571 0)
(0.99835 0.00218425 0)
(0.997382 0.00362968 0)
(0.994385 0.00615192 0)
(0.998845 0.00125033 0)
(0.995403 -0.00785069 0)
(0.985741 0.00565366 0)
(1.02132 0.0147748 0)
(1.01915 -0.00413229 0)
(0.996727 -0.0108282 0)
(0.990142 -0.00418381 0)
(0.9962 0.00888579 0)
(1.00644 0.00633464 0)
(1.0064 0.0109851 0)
(1.00718 0.00851562 0)
(1.00954 -0.000711639 0)
(1.00101 0.000599446 0)
(0.998634 0.000621646 0)
(0.998514 0.00133887 0)
(0.997229 0.00121378 0)
(0.998916 0.000826598 0)
(0.998791 0.00235863 0)
(0.997747 0.0037853 0)
(0.995121 0.00656018 0)
(1.00054 0.00127732 0)
(0.996425 -0.00767251 0)
(0.987069 0.0053835 0)
(1.01545 0.0142443 0)
(1.01799 -0.00367937 0)
(0.999797 -0.0104545 0)
(0.991059 -0.00421615 0)
(0.99495 0.0086032 0)
(1.00494 0.00629896 0)
(1.00534 0.0107565 0)
(1.00717 0.00851988 0)
(1.00947 -0.000597359 0)
(1.00245 0.000894077 0)
(1.0005 0.000725771 0)
(1.00028 0.00127912 0)
(0.998491 0.00130092 0)
(0.999694 0.000756094 0)
(0.999142 0.00255777 0)
(0.997951 0.00398131 0)
(0.995619 0.00685347 0)
(1.00143 0.001283 0)
(0.997144 -0.00748962 0)
(0.988722 0.00518129 0)
(1.01097 0.0137308 0)
(1.01659 -0.00331586 0)
(1.00193 -0.010101 0)
(0.992036 -0.0041887 0)
(0.994167 0.00835463 0)
(1.00389 0.00626381 0)
(1.00437 0.0104916 0)
(1.00693 0.00850186 0)
(1.00909 -0.000498442 0)
(1.00335 0.00112556 0)
(1.00184 0.000847509 0)
(1.00162 0.00120553 0)
(0.999507 0.00143647 0)
(1.00036 0.000728735 0)
(0.999454 0.002758 0)
(0.998113 0.00423031 0)
(0.996007 0.00705337 0)
(1.00192 0.00127523 0)
(0.99752 -0.00730838 0)
(0.99031 0.00502835 0)
(1.00786 0.0132379 0)
(1.01535 -0.00302001 0)
(1.00329 -0.00976696 0)
(0.992817 -0.00412029 0)
(0.993668 0.00813262 0)
(1.00326 0.00622953 0)
(1.00373 0.0102026 0)
(1.00669 0.00846686 0)
(1.0087 -0.000404115 0)
(1.00393 0.00129405 0)
(1.00273 0.000986902 0)
(1.00254 0.00111947 0)
(1.00022 0.00160554 0)
(1.00087 0.000751384 0)
(0.999714 0.00293457 0)
(0.998267 0.00453429 0)
(0.996346 0.00719476 0)
(1.0022 0.0012595 0)
(0.99765 -0.00713012 0)
(0.991627 0.00490471 0)
(1.0059 0.0127629 0)
(1.01439 -0.00277142 0)
(1.00405 -0.00944342 0)
(0.993367 -0.00402323 0)
(0.993339 0.00792713 0)
(1.00295 0.00619146 0)
(1.00341 0.00989924 0)
(1.00655 0.00841724 0)
(1.00841 -0.000303392 0)
(1.00432 0.00141058 0)
(1.00329 0.00114455 0)
(1.00312 0.00102624 0)
(1.00064 0.00178948 0)
(1.0012 0.000831313 0)
(0.999905 0.00307338 0)
(0.998403 0.00487815 0)
(0.996655 0.00730262 0)
(1.00235 0.00123899 0)
(0.997646 -0.00695254 0)
(0.992632 0.00479398 0)
(1.00478 0.0123004 0)
(1.01372 -0.00255162 0)
(1.00442 -0.00912306 0)
(0.993744 -0.00390978 0)
(0.993127 0.00773071 0)
(1.00284 0.00614384 0)
(1.00334 0.00958573 0)
(1.00649 0.00835445 0)
(1.00824 -0.000188318 0)
(1.00461 0.00148865 0)
(1.00361 0.00132086 0)
(1.00346 0.000934301 0)
(1.00082 0.0019679 0)
(1.00137 0.000971409 0)
(1.00004 0.00318025 0)
(0.998516 0.0052372 0)
(0.996933 0.00739542 0)
(1.00242 0.00121534 0)
(0.997597 -0.00677276 0)
(0.993367 0.00468468 0)
(1.0042 0.0118463 0)
(1.01324 -0.00234864 0)
(1.00455 -0.00879838 0)
(0.994027 -0.00378961 0)
(0.993015 0.00754113 0)
(1.00282 0.00608378 0)
(1.0034 0.00926127 0)
(1.00644 0.00828148 0)
(1.00813 -5.81995e-05 0)
(1.00484 0.00153819 0)
(1.00378 0.00151696 0)
(1.00363 0.000858205 0)
(1.00087 0.00212329 0)
(1.00143 0.00116659 0)
(1.00014 0.00326506 0)
(0.998618 0.00558601 0)
(0.99719 0.00749228 0)
(1.00243 0.00118932 0)
(0.997559 -0.00658826 0)
(0.993903 0.00456894 0)
(1.00392 0.0113975 0)
(1.01286 -0.00215605 0)
(1.00457 -0.00846447 0)
(0.994276 -0.00366806 0)
(0.992998 0.00735548 0)
(1.00284 0.00601001 0)
(1.00352 0.00893057 0)
(1.00635 0.00819671 0)
(1.00805 8.84518e-05 0)
(1.00504 0.00156522 0)
(1.00386 0.00172733 0)
(1.0037 0.000812059 0)
(1.00085 0.00225682 0)
(1.00142 0.00140971 0)
(1.00026 0.00333534 0)
(0.998729 0.00590383 0)
(0.997442 0.00761096 0)
(1.0024 0.00116064 0)
(0.997564 -0.00639605 0)
(0.994307 0.00444181 0)
(1.00377 0.0109528 0)
(1.01251 -0.00197211 0)
(1.00456 -0.00811827 0)
(0.994523 -0.00354865 0)
(0.993066 0.00717249 0)
(1.00286 0.00592224 0)
(1.00366 0.00859815 0)
(1.00621 0.00810115 0)
(1.00797 0.000248356 0)
(1.00519 0.00157995 0)
(1.0039 0.00194199 0)
(1.00372 0.000798673 0)
(1.00083 0.00237424 0)
(1.00138 0.00168821 0)
(1.00041 0.00339924 0)
(0.998868 0.00617783 0)
(0.997702 0.00776079 0)
(1.00233 0.00112847 0)
(0.997624 -0.00619383 0)
(0.994626 0.00430044 0)
(1.00368 0.0105145 0)
(1.01214 -0.00179763 0)
(1.00454 -0.0077583 0)
(0.99478 -0.00343531 0)
(0.993212 0.00699444 0)
(1.00287 0.00582254 0)
(1.00379 0.0082619 0)
(1.00599 0.00800016 0)
(1.00785 0.000416067 0)
(1.00531 0.00159421 0)
(1.00391 0.00215415 0)
(1.00371 0.000812098 0)
(1.00083 0.00247205 0)
(1.00134 0.00198756 0)
(1.0006 0.00345904 0)
(0.999046 0.00639657 0)
(0.997974 0.00793903 0)
(1.00223 0.0010928 0)
(0.997739 -0.00598047 0)
(0.994892 0.00414401 0)
(1.00362 0.0100845 0)
(1.01173 -0.00163472 0)
(1.00455 -0.00738338 0)
(0.995048 -0.00332945 0)
(0.993422 0.00682053 0)
(1.00285 0.00571685 0)
(1.00393 0.0079211 0)
(1.00572 0.00789354 0)
(1.0077 0.000591148 0)
(1.00538 0.00161052 0)
(1.00391 0.00236305 0)
(1.00367 0.00085366 0)
(1.00087 0.0025556 0)
(1.0013 0.00230317 0)
(1.00083 0.003519 0)
(0.999264 0.00655411 0)
(0.998254 0.00813733 0)
(1.00209 0.00105298 0)
(0.997896 -0.00575516 0)
(0.995124 0.00397176 0)
(1.00357 0.00966435 0)
(1.01127 -0.00148456 0)
(1.00456 -0.0069948 0)
(0.99532 -0.00322907 0)
(0.993682 0.00664997 0)
(1.00281 0.00560662 0)
(1.00406 0.00757803 0)
(1.0054 0.00778517 0)
(1.00752 0.000769242 0)
(1.00542 0.0016225 0)
(1.0039 0.00256944 0)
(1.00362 0.000924943 0)
(1.00094 0.00262866 0)
(1.00127 0.00263225 0)
(1.00109 0.00358238 0)
(0.999518 0.00664806 0)
(0.998535 0.00834911 0)
(1.00192 0.001008 0)
(0.998081 -0.00551689 0)
(0.995335 0.00378228 0)
(1.00352 0.00925728 0)
(1.01079 -0.00134912 0)
(1.00458 -0.00659609 0)
(0.995593 -0.00313125 0)
(0.993974 0.00648166 0)
(1.00275 0.0054969 0)
(1.0042 0.00722744 0)
(1.00505 0.00768148 0)
(1.00731 0.000950541 0)
(1.00545 0.00162255 0)
(1.0039 0.00277103 0)
(1.00356 0.00102035 0)
(1.00105 0.00268335 0)
(1.00124 0.00296936 0)
(1.00135 0.00365568 0)
(0.999805 0.0066694 0)
(0.998809 0.00856665 0)
(1.00175 0.000957576 0)
(0.998275 -0.00526587 0)
(0.995538 0.00357542 0)
(1.00348 0.00886453 0)
(1.01029 -0.00122965 0)
(1.0046 -0.00618694 0)
(0.995868 -0.00304266 0)
(0.99428 0.00631046 0)
(1.00268 0.00539425 0)
(1.00432 0.00686578 0)
(1.00471 0.00758052 0)
(1.00708 0.00114026 0)
(1.00546 0.00161225 0)
(1.00389 0.00297433 0)
(1.00348 0.0011437 0)
(1.00118 0.00271396 0)
(1.00123 0.00330787 0)
(1.0016 0.0037594 0)
(1.00012 0.00661452 0)
(0.999078 0.00877089 0)
(1.00159 0.000901874 0)
(0.998461 -0.00500174 0)
(0.995742 0.00335171 0)
(1.00343 0.00848656 0)
(1.0098 -0.00112573 0)
(1.0046 -0.00576862 0)
(0.996147 -0.0029593 0)
(0.994588 0.00613529 0)
(1.0026 0.00530111 0)
(1.00444 0.00649339 0)
(1.00437 0.00747562 0)
(1.00681 0.00134334 0)
(1.00548 0.00158976 0)
(1.00388 0.00317776 0)
(1.0034 0.00130343 0)
(1.00133 0.00272162 0)
(1.00124 0.00363839 0)
(1.00182 0.00391367 0)
(1.00047 0.00649194 0)
(0.999351 0.00892079 0)
(1.00145 0.000841069 0)
(0.998628 -0.00472447 0)
(0.995957 0.00311031 0)
(1.00337 0.00812469 0)
(1.00933 -0.00103502 0)
(1.00458 -0.00534859 0)
(0.996435 -0.00286903 0)
(0.994889 0.00594954 0)
(1.00253 0.00522653 0)
(1.00454 0.00611332 0)
(1.00406 0.00736386 0)
(1.00653 0.00156224 0)
(1.0055 0.00154704 0)
(1.00386 0.00336785 0)
(1.00332 0.00150497 0)
(1.00149 0.00270974 0)
(1.00127 0.00394695 0)
(1.00202 0.00412903 0)
(1.00085 0.00632552 0)
(0.999646 0.00896675 0)
(1.00133 0.000774324 0)
(0.998772 -0.00443414 0)
(0.996187 0.00285364 0)
(1.00329 0.00777593 0)
(1.00888 -0.000954574 0)
(1.00454 -0.00493153 0)
(0.996734 -0.00277105 0)
(0.995181 0.00574525 0)
(1.00246 0.00517096 0)
(1.00464 0.00573277 0)
(1.00378 0.00723908 0)
(1.00622 0.00180371 0)
(1.00553 0.00148558 0)
(1.00385 0.00353619 0)
(1.00323 0.00175516 0)
(1.00166 0.00268584 0)
(1.00134 0.00420832 0)
(1.00219 0.00440015 0)
(1.00122 0.00615734 0)
(0.999981 0.00887332 0)
(1.00123 0.000701819 0)
(0.998892 -0.00413163 0)
(0.996431 0.00258481 0)
(1.00319 0.00744015 0)
(1.00845 -0.000886945 0)
(1.00448 -0.00451845 0)
(0.997043 -0.00265589 0)
(0.995464 0.00552276 0)
(1.00239 0.00512686 0)
(1.00471 0.00535641 0)
(1.00353 0.0070954 0)
(1.00588 0.00207353 0)
(1.00557 0.0014193 0)
(1.00385 0.00367256 0)
(1.00313 0.00205302 0)
(1.00184 0.00266339 0)
(1.00145 0.00440219 0)
(1.00232 0.00470935 0)
(1.00159 0.00604461 0)
(1.00036 0.00864965 0)
(1.00115 0.000624226 0)
(0.998991 -0.00381854 0)
(0.996687 0.00230289 0)
(1.00308 0.00711597 0)
(1.00804 -0.000827567 0)
(1.00441 -0.00411743 0)
(0.997356 -0.00252435 0)
(0.995741 0.00527523 0)
(1.00232 0.00509769 0)
(1.00478 0.00499707 0)
(1.00331 0.00692452 0)
(1.00554 0.00236565 0)
(1.00561 0.0013655 0)
(1.00386 0.00376812 0)
(1.00303 0.00239432 0)
(1.00201 0.00266416 0)
(1.00161 0.00452605 0)
(1.00245 0.005028 0)
(1.00192 0.00602605 0)
(1.00078 0.00834655 0)
(1.00108 0.00054124 0)
(0.999072 -0.00349704 0)
(0.996949 0.00201444 0)
(1.00295 0.0067959 0)
(1.00764 -0.000770009 0)
(1.00432 -0.0037419 0)
(0.997667 -0.00237315 0)
(0.996015 0.00500206 0)
(1.00225 0.00508031 0)
(1.00483 0.00466096 0)
(1.00312 0.00671934 0)
(1.00518 0.00267374 0)
(1.00564 0.00133657 0)
(1.0039 0.00381255 0)
(1.00291 0.0027632 0)
(1.00216 0.0027054 0)
(1.0018 0.00458593 0)
(1.00257 0.00531673 0)
(1.00221 0.00609719 0)
(1.0012 0.00804199 0)
(1.00102 0.00045395 0)
(0.999139 -0.0031698 0)
(0.997211 0.00172077 0)
(1.00283 0.00648019 0)
(1.00725 -0.000704445 0)
(1.00423 -0.00340053 0)
(0.997969 -0.00218923 0)
(0.996288 0.00471663 0)
(1.00218 0.00506039 0)
(1.00487 0.00435619 0)
(1.00296 0.00648495 0)
(1.00481 0.00299156 0)
(1.00566 0.00134057 0)
(1.00395 0.0038026 0)
(1.00278 0.0031373 0)
(1.00228 0.00279574 0)
(1.00203 0.00459725 0)
(1.0027 0.00555208 0)
(1.00246 0.00622112 0)
(1.0016 0.00780601 0)
(1.00096 0.000363691 0)
(0.999195 -0.00284083 0)
(0.99747 0.00142871 0)
(1.0027 0.00616464 0)
(1.00686 -0.000629416 0)
(1.00413 -0.00309192 0)
(0.998258 -0.00197643 0)
(0.996559 0.00442745 0)
(1.00211 0.00502551 0)
(1.0049 0.00409469 0)
(1.00283 0.00622383 0)
(1.00445 0.00330694 0)
(1.00566 0.00138233 0)
(1.00404 0.00374768 0)
(1.00265 0.00350906 0)
(1.00237 0.00294292 0)
(1.00227 0.00457736 0)
(1.00285 0.00573575 0)
(1.00267 0.0063568 0)
(1.00196 0.00765265 0)
(1.00091 0.000271009 0)
(0.99924 -0.0025097 0)
(0.99772 0.00114694 0)
(1.00257 0.0058373 0)
(1.00647 -0.000539461 0)
(1.00402 -0.00282728 0)
(0.99853 -0.00174417 0)
(0.996826 0.00414226 0)
(1.00203 0.00496718 0)
(1.00491 0.00386723 0)
(1.00273 0.00594338 0)
(1.00408 0.00361047 0)
(1.00563 0.00146542 0)
(1.00415 0.00365308 0)
(1.00254 0.00386684 0)
(1.00241 0.00314802 0)
(1.00252 0.00453125 0)
(1.00302 0.00587197 0)
(1.00285 0.00648687 0)
(1.00227 0.0075503 0)
(1.00086 0.000176854 0)
(0.999275 -0.00218172 0)
(0.997958 0.000881483 0)
(1.00245 0.0054887 0)
(1.00609 -0.000424138 0)
(1.00391 -0.00260597 0)
(0.998786 -0.00150059 0)
(0.997087 0.00387667 0)
(1.00195 0.00488556 0)
(1.00491 0.00366482 0)
(1.00266 0.00565346 0)
(1.00371 0.0038923 0)
(1.00556 0.0015914 0)
(1.00429 0.00352316 0)
(1.00244 0.00419195 0)
(1.00242 0.00341333 0)
(1.00277 0.00446592 0)
(1.00322 0.00595122 0)
(1.00302 0.00662177 0)
(1.00254 0.00746715 0)
(1.00081 8.36434e-05 0)
(0.9993 -0.001866 0)
(0.998182 0.000648628 0)
(1.00233 0.00511077 0)
(1.00571 -0.00028425 0)
(1.0038 -0.00241852 0)
(0.999026 -0.00126279 0)
(0.997339 0.00364234 0)
(1.00186 0.00478284 0)
(1.00489 0.00349015 0)
(1.00262 0.00536295 0)
(1.00336 0.00414943 0)
(1.00546 0.00176551 0)
(1.00446 0.00336661 0)
(1.00238 0.00446174 0)
(1.00237 0.0037375 0)
(1.00299 0.00440569 0)
(1.00345 0.00595073 0)
(1.00317 0.00676678 0)
(1.00277 0.00740851 0)
(1.00076 -6.88175e-06 0)
(0.999317 -0.00156656 0)
(0.998388 0.000458982 0)
(1.00222 0.00469572 0)
(1.00533 -0.000125385 0)
(1.00368 -0.00225989 0)
(0.999254 -0.00104576 0)
(0.99758 0.00344213 0)
(1.00177 0.00466466 0)
(1.00485 0.00333844 0)
(1.0026 0.0050761 0)
(1.00303 0.00438314 0)
(1.00532 0.00199525 0)
(1.00463 0.00320273 0)
(1.00237 0.00465686 0)
(1.00229 0.00410546 0)
(1.00318 0.00438684 0)
(1.00371 0.0058569 0)
(1.00332 0.00688371 0)
(1.00294 0.00739428 0)
(1.00071 -9.40103e-05 0)
(0.999326 -0.00128784 0)
(0.998574 0.000319731 0)
(1.00212 0.00424522 0)
(1.00495 3.89572e-05 0)
(1.00356 -0.00210793 0)
(0.99947 -0.000857341 0)
(0.997812 0.00327391 0)
(1.00168 0.00454377 0)
(1.0048 0.00320098 0)
(1.0026 0.00479137 0)
(1.00272 0.00458363 0)
(1.00513 0.00227016 0)
(1.0048 0.00304756 0)
(1.0024 0.00476539 0)
(1.00218 0.00449284 0)
(1.00331 0.00444641 0)
(1.004 0.00570215 0)
(1.00351 0.00693101 0)
(1.00307 0.00743585 0)
(1.00066 -0.000174531 0)
(0.999328 -0.00103498 0)
(0.998736 0.000235404 0)
(1.00202 0.00377309 0)
(1.00457 0.00020441 0)
(1.00343 -0.00195517 0)
(0.999678 -0.000703279 0)
(0.998034 0.00313629 0)
(1.00158 0.00442953 0)
(1.00473 0.00307708 0)
(1.00263 0.00450915 0)
(1.00244 0.00474278 0)
(1.0049 0.00257457 0)
(1.00496 0.00291334 0)
(1.0025 0.00477742 0)
(1.00207 0.00485498 0)
(1.00337 0.0045816 0)
(1.00428 0.00552648 0)
(1.00373 0.00688013 0)
(1.00318 0.0075072 0)
(1.00062 -0.000244895 0)
(0.999326 -0.000815894 0)
(0.998872 0.000190981 0)
(1.00192 0.00328753 0)
(1.00421 0.000363252 0)
(1.00328 -0.00178372 0)
(0.999876 -0.000593386 0)
(0.998249 0.003021 0)
(1.00147 0.00432343 0)
(1.00464 0.00297103 0)
(1.00268 0.00422896 0)
(1.00219 0.00486131 0)
(1.00464 0.00290201 0)
(1.00509 0.00282276 0)
(1.00265 0.00470484 0)
(1.00197 0.00515604 0)
(1.00336 0.00476945 0)
(1.00454 0.00536003 0)
(1.004 0.00671899 0)
(1.00329 0.00753997 0)
(1.00057 -0.000309448 0)
(0.999322 -0.000631491 0)
(0.998979 0.000193819 0)
(1.00184 0.00280947 0)
(1.00386 0.000495839 0)
(1.00312 -0.00157977 0)
(1.00006 -0.000520465 0)
(0.99846 0.00292286 0)
(1.00135 0.00424298 0)
(1.00453 0.00289669 0)
(1.00275 0.00394385 0)
(1.00199 0.00492079 0)
(1.00434 0.00323488 0)
(1.00519 0.00278906 0)
(1.00286 0.00457217 0)
(1.0019 0.00539101 0)
(1.00328 0.00500528 0)
(1.00474 0.00525241 0)
(1.00432 0.00649482 0)
(1.00343 0.00750323 0)
(1.00053 -0.000356815 0)
(0.999319 -0.000496546 0)
(0.999058 0.000234293 0)
(1.00175 0.00235903 0)
(1.00353 0.000591525 0)
(1.00295 -0.00135269 0)
(1.00024 -0.000468132 0)
(0.998671 0.0028162 0)
(1.00123 0.00419121 0)
(1.00439 0.00286758 0)
(1.00283 0.00367523 0)
(1.00183 0.00492178 0)
(1.00402 0.00356458 0)
(1.00523 0.00281989 0)
(1.0031 0.00439205 0)
(1.00189 0.00553259 0)
(1.00316 0.00525185 0)
(1.00487 0.00520257 0)
(1.00464 0.00623776 0)
(1.00364 0.00737341 0)
(1.00049 -0.000395938 0)
(0.999317 -0.000399724 0)
(0.999113 0.00029451 0)
(1.00166 0.00194438 0)
(1.00322 0.000648668 0)
(1.00277 -0.00115005 0)
(1.0004 -0.000443864 0)
(0.998886 0.00267882 0)
(1.00111 0.004155 0)
(1.00423 0.00287634 0)
(1.00291 0.00342894 0)
(1.00173 0.00485814 0)
(1.00369 0.00386371 0)
(1.00522 0.00291548 0)
(1.00336 0.00419748 0)
(1.00194 0.00557537 0)
(1.003 0.00549028 0)
(1.00492 0.00521506 0)
(1.00496 0.00598078 0)
(1.0039 0.00715399 0)
(1.00044 -0.000420782 0)
(0.999321 -0.000357525 0)
(0.99915 0.000388388 0)
(1.00157 0.00156998 0)
(1.00293 0.000647529 0)
(1.00259 -0.000877184 0)
(1.00054 -0.000383015 0)
(0.999109 0.00253349 0)
(1.001 0.00411376 0)
(1.00404 0.00292264 0)
(1.00299 0.00321786 0)
(1.00168 0.00474417 0)
(1.00337 0.00411699 0)
(1.00514 0.0030675 0)
(1.00364 0.00402854 0)
(1.00207 0.00553226 0)
(1.00286 0.00570027 0)
(1.00489 0.00529413 0)
(1.00523 0.00576004 0)
(1.00421 0.00687594 0)
(1.0004 -0.000430738 0)
(0.999334 -0.000355076 0)
(0.999169 0.000489375 0)
(1.00147 0.0012574 0)
(1.00268 0.000620118 0)
(1.0024 -0.000552085 0)
(1.00065 -0.000285607 0)
(0.999334 0.00236142 0)
(1.00091 0.00402839 0)
(1.00383 0.00298424 0)
(1.00305 0.00304711 0)
(1.00168 0.00458224 0)
(1.00307 0.00430699 0)
(1.00501 0.00324343 0)
(1.00388 0.00389026 0)
(1.00225 0.00541148 0)
(1.00273 0.00584372 0)
(1.00477 0.00541446 0)
(1.00543 0.00559525 0)
(1.00456 0.00656514 0)
(1.00036 -0.00043007 0)
(0.999356 -0.000381313 0)
(0.999176 0.000581887 0)
(1.00137 0.00102286 0)
(1.00245 0.000570064 0)
(1.00221 -0.000284912 0)
(1.00074 -0.000160494 0)
(0.999559 0.00217369 0)
(1.00084 0.00389833 0)
(1.0036 0.00304356 0)
(1.0031 0.00291672 0)
(1.00172 0.00438654 0)
(1.0028 0.00443196 0)
(1.00483 0.00342543 0)
(1.00409 0.00378953 0)
(1.00249 0.00523889 0)
(1.00265 0.00590481 0)
(1.00461 0.00554708 0)
(1.00555 0.00549588 0)
(1.0049 0.00625112 0)
(1.00033 -0.000414819 0)
(0.999388 -0.000440125 0)
(0.999179 0.000667245 0)
(1.00125 0.000857158 0)
(1.00226 0.000481932 0)
(1.00204 -3.68878e-05 0)
(1.0008 2.05534e-05 0)
(0.999771 0.00200975 0)
(1.00079 0.00373528 0)
(1.00337 0.00310281 0)
(1.00312 0.00284295 0)
(1.00179 0.00419172 0)
(1.00257 0.00450549 0)
(1.00462 0.003609 0)
(1.00425 0.00373294 0)
(1.00276 0.00504261 0)
(1.00263 0.00588852 0)
(1.00442 0.00566691 0)
(1.00558 0.00546138 0)
(1.0052 0.00597568 0)
(1.00029 -0.00039559 0)
(0.999432 -0.000503191 0)
(0.999183 0.000724645 0)
(1.00113 0.000754229 0)
(1.00209 0.00038018 0)
(1.00189 0.000167564 0)
(1.00083 0.000230799 0)
(0.999967 0.00189163 0)
(1.00077 0.00355549 0)
(1.00315 0.00314144 0)
(1.00311 0.00280724 0)
(1.00189 0.00400156 0)
(1.00239 0.00452919 0)
(1.00438 0.00378721 0)
(1.00436 0.00372421 0)
(1.00304 0.00485067 0)
(1.00268 0.00581314 0)
(1.00424 0.00575849 0)
(1.00552 0.00547757 0)
(1.00543 0.00576896 0)
(1.00025 -0.000365416 0)
(0.999484 -0.000577334 0)
(0.999194 0.000738191 0)
(1.001 0.0007066 0)
(1.00194 0.000277504 0)
(1.00177 0.000320523 0)
(1.00085 0.000464308 0)
(1.00014 0.00182608 0)
(1.00077 0.00336905 0)
(1.00295 0.00314675 0)
(1.00309 0.00279629 0)
(1.002 0.00384167 0)
(1.00227 0.00452555 0)
(1.00414 0.00395239 0)
(1.00442 0.0037515 0)
(1.00333 0.00466516 0)
(1.00279 0.0056727 0)
(1.00407 0.00579047 0)
(1.00541 0.00550019 0)
(1.00557 0.00561854 0)
(1.00022 -0.000334574 0)
(0.999544 -0.000648469 0)
(0.999218 0.000712261 0)
(1.00087 0.00071159 0)
(1.00181 0.000200342 0)
(1.00168 0.000410236 0)
(1.00087 0.000684074 0)
(1.00029 0.00181187 0)
(1.00079 0.00320135 0)
(1.00276 0.0031374 0)
(1.00305 0.00280189 0)
(1.00212 0.00369433 0)
(1.00218 0.00447974 0)
(1.00391 0.00407604 0)
(1.00442 0.00378753 0)
(1.00359 0.00449215 0)
(1.00295 0.00548263 0)
(1.00395 0.00576377 0)
(1.00526 0.0055181 0)
(1.00564 0.00551968 0)
(1.00019 -0.000303886 0)
(0.999609 -0.000704805 0)
(0.999259 0.000637784 0)
(1.00075 0.000749495 0)
(1.00168 0.000168065 0)
(1.00162 0.000452413 0)
(1.00089 0.00087497 0)
(1.00042 0.00184117 0)
(1.00081 0.00305802 0)
(1.00259 0.00310867 0)
(1.00301 0.00280497 0)
(1.00225 0.00354644 0)
(1.00214 0.00439635 0)
(1.00368 0.0041772 0)
(1.00438 0.00384912 0)
(1.00382 0.00435936 0)
(1.00315 0.00527838 0)
(1.00389 0.00568645 0)
(1.0051 0.00551579 0)
(1.00563 0.00544317 0)
(1.00016 -0.000274396 0)
(0.999674 -0.00073833 0)
(0.999318 0.000526593 0)
(1.00063 0.00080231 0)
(1.00156 0.000193403 0)
(1.00159 0.000454827 0)
(1.00092 0.00101181 0)
(1.00053 0.00188786 0)
(1.00083 0.00294185 0)
(1.00244 0.00306607 0)
(1.00295 0.00280798 0)
(1.00237 0.00341726 0)
(1.00215 0.0042856 0)
(1.00349 0.00424854 0)
(1.0043 0.00392471 0)
(1.00401 0.00425817 0)
(1.00337 0.00506847 0)
(1.00387 0.00556136 0)
(1.00495 0.00548496 0)
(1.00559 0.00537204 0)
(1.00014 -0.000250984 0)
(0.999735 -0.000739809 0)
(0.999393 0.000417632 0)
(1.00053 0.000843742 0)
(1.00144 0.000267234 0)
(1.00157 0.000439739 0)
(1.00097 0.00106844 0)
(1.00063 0.00192721 0)
(1.00086 0.00286428 0)
(1.00231 0.00303014 0)
(1.00289 0.00281744 0)
(1.00249 0.00331028 0)
(1.0022 0.00415495 0)
(1.00333 0.00427116 0)
(1.00419 0.00399526 0)
(1.00415 0.00418572 0)
(1.00359 0.00486074 0)
(1.00392 0.00539678 0)
(1.00481 0.0054225 0)
(1.00551 0.00529538 0)
(1.00011 -0.000231903 0)
(0.999793 -0.000713719 0)
(0.999479 0.000313516 0)
(1.00045 0.000864138 0)
(1.00131 0.000367206 0)
(1.00156 0.000441727 0)
(1.00104 0.00106933 0)
(1.00073 0.00194762 0)
(1.00089 0.00281265 0)
(1.0022 0.00300267 0)
(1.00282 0.00282442 0)
(1.00261 0.00320683 0)
(1.00228 0.00401016 0)
(1.00321 0.00425269 0)
(1.00407 0.00405255 0)
(1.00424 0.00414962 0)
(1.00381 0.00467746 0)
(1.004 0.00520608 0)
(1.00471 0.00532945 0)
(1.00541 0.00521096 0)
(1.00009 -0.000216382 0)
(0.999843 -0.000665596 0)
(0.999572 0.000210614 0)
(1.0004 0.000858123 0)
(1.00119 0.000478788 0)
(1.00153 0.000471323 0)
(1.00112 0.00104528 0)
(1.00085 0.0019337 0)
(1.00092 0.00276793 0)
(1.00209 0.00298984 0)
(1.00275 0.00284267 0)
(1.00271 0.00312148 0)
(1.00239 0.00385493 0)
(1.00314 0.00420054 0)
(1.00396 0.00408149 0)
(1.00428 0.00412677 0)
(1.00399 0.00452644 0)
(1.00412 0.0049995 0)
(1.00465 0.00520232 0)
(1.00531 0.00511707 0)
(1.00008 -0.000206679 0)
(0.999886 -0.000599218 0)
(0.999665 0.00012064 0)
(1.00036 0.000819652 0)
(1.00107 0.0005928 0)
(1.0015 0.000540908 0)
(1.0012 0.00102053 0)
(1.00098 0.00187976 0)
(1.00097 0.00271357 0)
(1.00199 0.00298161 0)
(1.00266 0.00286917 0)
(1.00278 0.00306505 0)
(1.00251 0.00369469 0)
(1.00311 0.0041096 0)
(1.00386 0.00407939 0)
(1.0043 0.00409557 0)
(1.00413 0.00440291 0)
(1.00425 0.00479837 0)
(1.00462 0.00504291 0)
(1.0052 0.00501355 0)
(1.00006 -0.000198734 0)
(0.99992 -0.000527743 0)
(0.999751 5.26536e-05 0)
(1.00035 0.00075766 0)
(1.00097 0.000688796 0)
(1.00146 0.000640161 0)
(1.00127 0.00101238 0)
(1.00111 0.00180371 0)
(1.00103 0.00264131 0)
(1.00191 0.00296602 0)
(1.00257 0.00289539 0)
(1.00282 0.0030282 0)
(1.00263 0.00354809 0)
(1.00312 0.00398386 0)
(1.00378 0.00404719 0)
(1.00429 0.004054 0)
(1.00424 0.00429109 0)
(1.00437 0.00461803 0)
(1.00463 0.00486234 0)
(1.00511 0.00489741 0)
(1.00005 -0.00019229 0)
(0.999946 -0.00045487 0)
(0.999829 9.34902e-06 0)
(1.00035 0.000685404 0)
(1.00089 0.000760065 0)
(1.0014 0.000747594 0)
(1.00132 0.00102931 0)
(1.00124 0.0017245 0)
(1.00111 0.00254463 0)
(1.00186 0.00293772 0)
(1.00247 0.00292357 0)
(1.00284 0.00300532 0)
(1.00274 0.00342613 0)
(1.00316 0.00384318 0)
(1.00372 0.00397964 0)
(1.00427 0.00400169 0)
(1.00432 0.00417798 0)
(1.00447 0.00445071 0)
(1.00467 0.00467252 0)
(1.00504 0.00475402 0)
(1.00004 -0.000185819 0)
(0.999966 -0.000387159 0)
(0.999894 -9.2414e-06 0)
(1.00037 0.000612996 0)
(1.00082 0.000804487 0)
(1.00134 0.000850206 0)
(1.00134 0.00107538 0)
(1.00136 0.00165909 0)
(1.00121 0.00242613 0)
(1.00182 0.00288312 0)
(1.00238 0.00294119 0)
(1.00284 0.00299539 0)
(1.00283 0.00332216 0)
(1.00321 0.00370316 0)
(1.00369 0.00388303 0)
(1.00424 0.00393388 0)
(1.00438 0.00406955 0)
(1.00456 0.0042901 0)
(1.00471 0.00448836 0)
(1.005 0.00458354 0)
(1.00003 -0.00017688 0)
(0.999982 -0.000329642 0)
(0.999946 -3.275e-06 0)
(1.00039 0.000550767 0)
(1.00077 0.000819883 0)
(1.00129 0.000938903 0)
(1.00135 0.00113882 0)
(1.00145 0.00161887 0)
(1.00131 0.00230715 0)
(1.00182 0.00280244 0)
(1.0023 0.00293637 0)
(1.00281 0.0029961 0)
(1.00289 0.00323764 0)
(1.00326 0.00356695 0)
(1.00367 0.00376811 0)
(1.00422 0.00384066 0)
(1.0044 0.00396035 0)
(1.00462 0.00413354 0)
(1.00475 0.00431096 0)
(1.00497 0.00440196 0)
(1.00003 -0.00016541 0)
(0.999996 -0.000281172 0)
(0.999988 1.76956e-05 0)
(1.00041 0.000506234 0)
(1.00075 0.000814629 0)
(1.00124 0.00100797 0)
(1.00135 0.00120461 0)
(1.00152 0.0016012 0)
(1.00141 0.00220266 0)
(1.00184 0.00270254 0)
(1.00224 0.00290252 0)
(1.00276 0.00298707 0)
(1.00292 0.00317568 0)
(1.0033 0.00344058 0)
(1.00367 0.00364501 0)
(1.00419 0.00372993 0)
(1.00442 0.00383954 0)
(1.00466 0.00398128 0)
(1.00478 0.00413526 0)
(1.00496 0.0042219 0)
(1.00002 -0.000152428 0)
(1.00001 -0.000238718 0)
(1.00002 4.43896e-05 0)
(1.00043 0.000481178 0)
(1.00073 0.000803245 0)
(1.0012 0.00105227 0)
(1.00133 0.00126566 0)
(1.00157 0.00160389 0)
(1.00149 0.00211903 0)
(1.00187 0.00259643 0)
(1.0022 0.0028464 0)
(1.00272 0.00295452 0)
(1.00292 0.00311957 0)
(1.00333 0.00332904 0)
(1.00366 0.00351708 0)
(1.00417 0.00361262 0)
(1.00442 0.00370768 0)
(1.00469 0.00382691 0)
(1.00479 0.00395981 0)
(1.00494 0.00404031 0)
(1.00002 -0.000137807 0)
(1.00002 -0.000202162 0)
(1.00005 7.35421e-05 0)
(1.00045 0.000473496 0)