/*--------------------------------*- C++ -*----------------------------------*\
| =========                 |                                                 |
| \\      /  F ield         | OpenFOAM: The Open Source CFD Toolbox           |
|  \\    /   O peration     | Version:  v1906                                 |
|   \\  /    A nd           | Web:      www.OpenFOAM.com                      |
|    \\/     M anipulation  |                                                 |
\*---------------------------------------------------------------------------*/
FoamFile
{
    version     2.0;
    format      ascii;
    class       surfaceScalarField;
    location    "5.2";
    object      phi;
}
// * * * * * * * * * * * * * * * * * * * * * * * * * * * * * * * * * * * * * //

dimensions      [0 3 -1 0 0 0 0];
oriented        oriented;


internalField   nonuniform List<scalar> 
19000
(
1.17699e-06
-3.44256e-07
1.12787e-06
1.20662e-06
1.11964e-06
-1.10702e-06
1.27227e-06
-1.79172e-06
1.31349e-06
-1.41738e-06
1.22083e-06
1.20535e-06
1.1948e-06
4.56106e-07
1.18877e-06
4.91878e-07
1.19501e-06
-8.53505e-07
1.23376e-06
-1.0546e-06
1.24551e-06
-1.48667e-06
1.23752e-06
-7.58525e-07
1.23315e-06
-5.07348e-07
1.23315e-06
-1.40016e-07
1.23719e-06
-1.0617e-07
1.23003e-06
7.68965e-08
1.235e-06
3.37895e-08
1.22302e-06
1.04119e-07
1.21828e-06
1.039e-07
7.25834e-08
1.18613e-06
1.23414e-06
-3.54133e-07
1.21441e-06
1.22635e-06
1.18084e-06
-1.07345e-06
1.31069e-06
-1.92157e-06
1.36698e-06
-1.47367e-06
1.30514e-06
1.26719e-06
1.2673e-06
4.93945e-07
1.29299e-06
4.66187e-07
1.28013e-06
-8.4064e-07
1.29753e-06
-1.072e-06
1.31017e-06
-1.4993e-06
1.30384e-06
-7.52193e-07
1.29729e-06
-5.00808e-07
1.30445e-06
-1.47172e-07
1.29933e-06
-1.01047e-07
1.30613e-06
7.0093e-08
1.29295e-06
4.69723e-08
1.30187e-06
9.51974e-08
1.27161e-06
1.34159e-07
6.63971e-08
1.2778e-06
1.29261e-06
-3.63958e-07
1.30196e-06
1.217e-06
1.23817e-06
-1.00966e-06
1.34183e-06
-2.02523e-06
1.41431e-06
-1.54615e-06
1.39291e-06
1.2886e-06
1.35505e-06
5.31799e-07
1.38705e-06
4.34183e-07
1.35438e-06
-8.07963e-07
1.35228e-06
-1.06991e-06
1.35481e-06
-1.50183e-06
1.36081e-06
-7.58192e-07
1.35489e-06
-4.94893e-07
1.37089e-06
-1.63164e-07
1.36428e-06
-9.4443e-08
1.37532e-06
5.90572e-08
1.36251e-06
5.978e-08
1.36746e-06
9.0246e-08
1.34977e-06
1.51851e-07
7.84176e-08
1.33775e-06
1.35162e-06
-3.7148e-07
1.38394e-06
1.18468e-06
1.2929e-06
-9.18622e-07
1.36842e-06
-2.10075e-06
1.45193e-06
-1.62966e-06
1.47062e-06
1.26991e-06
1.44865e-06
5.53762e-07
1.47803e-06
4.0481e-07
1.43097e-06
-7.60903e-07
1.40768e-06
-1.04662e-06
1.39523e-06
-1.48938e-06
1.4069e-06
-7.69862e-07
1.40737e-06
-4.9536e-07
1.42675e-06
-1.82549e-07
1.42876e-06
-9.64517e-08
1.4398e-06
4.80215e-08
1.43476e-06
6.48184e-08
1.43653e-06
8.84762e-08
1.42716e-06
1.61223e-07
9.35068e-08
1.41207e-06
1.41216e-06
-3.75282e-07
1.45621e-06
1.14063e-06
1.34839e-06
-8.10799e-07
1.39495e-06
-2.1473e-06
1.48371e-06
-1.71842e-06
1.5388e-06
1.21482e-06
1.54541e-06
5.47151e-07
1.56737e-06
3.82844e-07
1.51037e-06
-7.03901e-07
1.46659e-06
-1.00284e-06
1.43869e-06
-1.46148e-06
1.45007e-06
-7.81242e-07
1.45774e-06
-5.03032e-07
1.4798e-06
-2.04601e-07
1.49045e-06
-1.07102e-07
1.50488e-06
3.35894e-08
1.50594e-06
6.37596e-08
1.50942e-06
8.4995e-08
1.5041e-06
1.66546e-07
1.07297e-07
1.49031e-06
1.47642e-06
-3.76024e-07
1.52069e-06
1.09635e-06
1.40998e-06
-7.00086e-07
1.42769e-06
-2.16502e-06
1.51701e-06
-1.80773e-06
1.60498e-06
1.12686e-06
1.64337e-06
5.08752e-07
1.65804e-06
3.6818e-07
1.59349e-06
-6.39356e-07
1.53291e-06
-9.4226e-07
1.49018e-06
-1.41874e-06
1.49766e-06
-7.88731e-07
1.50966e-06
-5.15024e-07
1.53513e-06
-2.30069e-07
1.5518e-06
-1.23775e-07
1.57121e-06
1.41796e-08
1.57744e-06
5.75323e-08
1.5837e-06
7.87319e-08
1.58206e-06
1.68183e-07
1.1983e-07
1.56953e-06
1.54642e-06
-3.76228e-07
1.58364e-06
1.05914e-06
1.48197e-06
-5.98424e-07
1.47239e-06
-2.15544e-06
1.55897e-06
-1.89432e-06
1.67585e-06
1.00998e-06
1.73979e-06
4.44808e-07
1.74884e-06
3.59133e-07
1.67758e-06
-5.68097e-07
1.60546e-06
-8.70137e-07
1.54994e-06
-1.36323e-06
1.55228e-06
-7.91068e-07
1.56586e-06
-5.28606e-07
1.59467e-06
-2.58878e-07
1.61574e-06
-1.44846e-07
1.63956e-06
-9.63833e-09
1.65043e-06
4.66634e-08
1.65911e-06
7.00547e-08
1.6609e-06
1.66388e-07
1.31315e-07
1.64942e-06
1.6225e-06
-3.78601e-07
1.65146e-06
1.03018e-06
1.56539e-06
-5.12358e-07
1.53198e-06
-2.12203e-06
1.61348e-06
-1.97581e-06
1.75298e-06
8.70487e-07
1.8311e-06
3.66688e-07
1.836e-06
3.5423e-07
1.75963e-06
-4.91727e-07
1.68161e-06
-7.9212e-07
1.61692e-06
-1.29854e-06
1.61427e-06
-7.88414e-07
1.62752e-06
-5.41864e-07
1.65866e-06
-2.90015e-07
1.68313e-06
-1.69319e-07
1.71029e-06
-3.67908e-08
1.72503e-06
3.19147e-08
1.73543e-06
5.96599e-08
1.7401e-06
1.61722e-07
1.41877e-07
1.72953e-06
1.70319e-06
-3.84213e-07
1.72736e-06
1.00601e-06
1.65813e-06
-4.43133e-07
1.60607e-06
-2.06996e-06
1.68037e-06
-2.05012e-06
1.83332e-06
7.17544e-07
1.91396e-06
2.86045e-07
1.91562e-06
3.52574e-07
1.83748e-06
-4.13587e-07
1.75934e-06
-7.13982e-07
1.69e-06
-1.2292e-06
1.68337e-06
-7.81787e-07
1.69467e-06
-5.53163e-07
1.72619e-06
-3.21532e-07
1.75277e-06
-1.95903e-07
1.78208e-06
-6.60983e-08
1.79994e-06
1.406e-08
1.81141e-06
4.81859e-08
1.81839e-06
1.54743e-07
1.51407e-07
1.80886e-06
1.78654e-06
-3.92034e-07
1.81074e-06
9.81812e-07
1.75688e-06
-3.89269e-07
1.69219e-06
-2.00527e-06
1.75666e-06
-2.1146e-06
1.91216e-06
5.62044e-07
1.9863e-06
2.11913e-07
1.98563e-06
3.53238e-07
1.91039e-06
-3.38342e-07
1.83785e-06
-6.41447e-07
1.76846e-06
-1.15981e-06
1.75916e-06
-7.72481e-07
1.76703e-06
-5.61036e-07
1.79624e-06
-3.50737e-07
1.82285e-06
-2.22519e-07
1.85274e-06
-9.59874e-08
1.87288e-06
-6.07635e-09
1.88505e-06
3.60097e-08
1.89397e-06
1.45826e-07
1.59426e-07
1.88595e-06
1.87164e-06
-3.9993e-07
1.89892e-06
9.54537e-07
1.85855e-06
-3.48896e-07
1.78749e-06
-1.93422e-06
1.8385e-06
-2.1656e-06
1.98563e-06
4.14912e-07
2.04798e-06
1.49563e-07
2.04669e-06
3.54525e-07
1.97929e-06
-2.70937e-07
1.91738e-06
-5.79541e-07
1.85186e-06
-1.0943e-06
1.84105e-06
-7.61671e-07
1.84455e-06
-5.64533e-07
1.86877e-06
-3.74952e-07
1.89279e-06
-2.46546e-07
1.92117e-06
-1.24362e-07
1.9424e-06
-2.73094e-08
1.95499e-06
2.34178e-08
1.96561e-06
1.35212e-07
1.65217e-07
1.95982e-06
1.95893e-06
-4.06025e-07
1.98953e-06
9.23938e-07
1.96095e-06
-3.20316e-07
1.88953e-06
-1.8628e-06
1.92306e-06
-2.19913e-06
2.05254e-06
2.85425e-07
2.10166e-06
1.00449e-07
2.10235e-06
3.53831e-07
2.04679e-06
-2.15375e-07
1.99884e-06
-5.31596e-07
1.93991e-06
-1.03536e-06
1.92851e-06
-7.50274e-07
1.92757e-06
-5.63589e-07
1.9451e-06
-3.92483e-07
1.96421e-06
-2.65655e-07
1.98881e-06
-1.48968e-07
2.0095e-06
-4.79993e-08
2.02197e-06
1.09529e-08
2.03391e-06
1.23273e-07
1.68191e-07
2.03093e-06
2.04956e-06
-4.09397e-07
2.08196e-06
8.91537e-07
2.06323e-06
-3.01584e-07
1.99629e-06
-1.79586e-06
2.00972e-06
-2.21256e-06
2.11578e-06
1.79364e-07
2.1531e-06
6.31345e-08
2.15846e-06
3.48466e-07
2.11668e-06
-1.73591e-07
2.08357e-06
-4.98482e-07
2.03241e-06
-9.8421e-07
2.02107e-06
-7.38932e-07
2.01654e-06
-5.59055e-07
2.02723e-06
-4.0318e-07
2.04024e-06
-2.78661e-07
2.05935e-06
-1.68077e-07
2.07769e-06
-6.63402e-08
2.08911e-06
-4.72312e-10
2.10164e-06
1.10751e-07
1.68247e-07
2.10158e-06
2.14461e-06
-4.10003e-07
2.17712e-06
8.59029e-07
2.16591e-06
-2.90376e-07
2.10619e-06
-1.73614e-06
2.09986e-06
-2.20624e-06
2.18153e-06
9.76933e-08
2.20979e-06
3.48711e-08
2.22143e-06
3.36835e-07
2.1928e-06
-1.44969e-07
2.17292e-06
-4.78601e-07
2.12932e-06
-9.40612e-07
2.11839e-06
-7.28e-07
2.11165e-06
-5.52309e-07
2.11674e-06
-4.08274e-07
2.12392e-06
-2.85839e-07
2.13686e-06
-1.81015e-07
2.15142e-06
-8.09004e-08
2.16075e-06
-9.81082e-09
2.1728e-06
9.8709e-08
1.65889e-07
2.17515e-06
2.24474e-06
-4.0825e-07
2.27639e-06
8.27372e-07
2.27038e-06
-2.84365e-07
2.21836e-06
-1.68411e-06
2.19547e-06
-2.18335e-06
2.25616e-06
3.70077e-08
2.27799e-06
1.30434e-08
2.29585e-06
3.18973e-07
2.27782e-06
-1.26947e-07
2.26799e-06
-4.68762e-07
2.23075e-06
-9.03373e-07
2.22028e-06
-7.17528e-07
2.21266e-06
-5.44688e-07
2.21399e-06
-4.0961e-07
2.21669e-06
-2.88542e-07
2.22394e-06
-1.88261e-07
2.23406e-06
-9.10236e-08
2.24056e-06
-1.63037e-08
2.25105e-06
8.822e-08
1.62022e-07
2.25491e-06
2.35026e-06
-4.04636e-07
2.38086e-06
7.96778e-07
2.37816e-06
-2.81673e-07
2.33278e-06
-1.63873e-06
2.29786e-06
-2.14843e-06
2.3432e-06
-8.33067e-09
2.36043e-06
-4.19356e-09
2.3833e-06
2.96107e-07
2.37268e-06
-1.16324e-07
2.36936e-06
-4.65448e-07
2.33693e-06
-8.70941e-07
2.32672e-06
-7.07318e-07
2.31913e-06
-5.37093e-07
2.31834e-06
-4.08827e-07
2.31823e-06
-2.8843e-07
2.32103e-06
-1.91063e-07
2.32691e-06
-9.69015e-08
2.33036e-06
-1.97538e-08
2.33858e-06
8.00063e-08
1.57591e-07
2.34301e-06
2.46134e-06
-3.99583e-07
2.49105e-06
7.67067e-07
2.49037e-06
-2.80987e-07
2.45004e-06
-1.5984e-06
2.40721e-06
-2.1056e-06
2.44268e-06
-4.37994e-08
2.45648e-06
-1.79927e-08
2.48283e-06
2.6976e-07
2.47693e-06
-1.10427e-07
2.47726e-06
-4.65778e-07
2.44823e-06
-8.41908e-07
2.43792e-06
-6.97013e-07
2.43075e-06
-5.29919e-07
2.42887e-06
-4.0695e-07
2.42725e-06
-2.86808e-07
2.42705e-06
-1.90867e-07
2.42947e-06
-9.9319e-08
2.43021e-06
-2.04933e-08
2.43595e-06
7.42634e-08
1.5329e-07
2.44026e-06
2.57812e-06
-3.93412e-07
2.60726e-06
7.37928e-07
2.60769e-06
-2.81414e-07
2.571e-06
-1.56171e-06
2.52309e-06
-2.05769e-06
2.55268e-06
-7.3393e-08
2.56384e-06
-2.91527e-08
2.59248e-06
2.41119e-07
2.58962e-06
-1.07564e-07
2.59167e-06
-4.6783e-07
2.56503e-06
-8.15264e-07
2.55423e-06
-6.86211e-07
2.5475e-06
-5.23191e-07
2.54498e-06
-4.04436e-07
2.54257e-06
-2.84397e-07
2.54057e-06
-1.8887e-07
2.54053e-06
-9.92804e-08
2.53918e-06
-1.91431e-08
2.54273e-06
7.07152e-08
1.4944e-07
2.54658e-06
2.70079e-06
-3.86369e-07
2.72971e-06
7.09002e-07
2.73058e-06
-2.82287e-07
2.69643e-06
-1.52756e-06
2.64504e-06
-2.0063e-06
2.67119e-06
-9.95457e-08
2.68041e-06
-3.83719e-08
2.71064e-06
2.10892e-07
2.70993e-06
-1.06857e-07
2.71256e-06
-4.70451e-07
2.68769e-06
-7.90404e-07
2.67604e-06
-6.74559e-07
2.66958e-06
-5.16731e-07
2.66658e-06
-4.0143e-07
2.66363e-06
-2.81447e-07
2.66062e-06
-1.8586e-07
2.65904e-06
-9.76987e-08
2.65629e-06
-1.6398e-08
2.65817e-06
6.88325e-08
1.46043e-07
2.66157e-06
2.82953e-06
-3.78631e-07
2.85864e-06
6.79888e-07
2.85943e-06
-2.83069e-07
2.82696e-06
-1.49509e-06
2.77295e-06
-1.95229e-06
2.79706e-06
-1.23655e-07
2.80502e-06
-4.63304e-08
2.83644e-06
1.79476e-07
2.83745e-06
-1.07871e-07
2.83992e-06
-4.72923e-07
2.81652e-06
-7.67004e-07
2.80381e-06
-6.61843e-07
2.79735e-06
-5.10277e-07
2.7939e-06
-3.97984e-07
2.79044e-06
-2.77986e-07
2.78685e-06
-1.82262e-07
2.78442e-06
-9.52759e-08
2.78091e-06
-1.28791e-08
2.78169e-06
6.80495e-08
1.42895e-07
2.78484e-06
2.96457e-06
-3.70309e-07
2.99428e-06
6.50178e-07
2.99457e-06
-2.83354e-07
2.9631e-06
-1.46363e-06
2.90701e-06
-1.8962e-06
2.92992e-06
-1.46566e-07
2.93725e-06
-5.36601e-08
2.96956e-06
1.47167e-07
2.97203e-06
-1.10336e-07
2.97385e-06
-4.74751e-07
2.95173e-06
-7.44877e-07
2.9379e-06
-6.4802e-07
2.93119e-06
-5.0356e-07
2.92734e-06
-3.94132e-07
2.92337e-06
-2.74018e-07
2.91937e-06
-1.78267e-07
2.91661e-06
-9.25097e-08
2.9128e-06
-9.07026e-09
2.91294e-06
6.79115e-08
1.39712e-07
2.91612e-06
3.10615e-06
-3.61448e-07
3.13681e-06
6.19516e-07
3.13633e-06
-2.82881e-07
3.10534e-06
-1.43264e-06
3.04759e-06
-1.83845e-06
3.06982e-06
-1.68796e-07
3.07705e-06
-6.08873e-08
3.10995e-06
1.14268e-07
3.11366e-06
-1.1405e-07
3.1145e-06
-4.75589e-07
3.0935e-06
-7.23874e-07
3.07868e-06
-6.33206e-07
3.07147e-06
-4.96345e-07
3.06725e-06
-3.89917e-07
3.06283e-06
-2.69593e-07
3.05851e-06
-1.7395e-07
3.05572e-06
-8.97215e-08
3.052e-06
-5.35134e-09
3.05177e-06
6.81474e-08
1.36239e-07
3.05524e-06
3.2545e-06
-3.52037e-07
3.28636e-06
5.87651e-07
3.28501e-06
-2.81531e-07
3.25412e-06
-1.40175e-06
3.1951e-06
-1.77943e-06
3.21691e-06
-1.90606e-07
3.22442e-06
-6.83921e-08
3.25758e-06
8.11068e-08
3.2624e-06
-1.1887e-07
3.26204e-06
-4.7523e-07
3.24203e-06
-7.03866e-07
3.22644e-06
-6.17612e-07
3.21855e-06
-4.88461e-07
3.21401e-06
-3.85375e-07
3.20923e-06
-2.64809e-07
3.20463e-06
-1.69353e-07
3.20199e-06
-8.70847e-08
3.19868e-06
-2.03883e-09
3.19817e-06
6.86545e-08
1.32338e-07
3.20208e-06
3.40993e-06
-3.42032e-07
3.44312e-06
5.54461e-07
3.44089e-06
-2.79302e-07
3.40984e-06
-1.3707e-06
3.34995e-06
-1.71953e-06
3.37139e-06
-2.12049e-07
3.37941e-06
-7.64102e-08
3.41249e-06
4.80224e-08
3.41833e-06
-1.2471e-07
3.4167e-06
-4.73599e-07
3.39758e-06
-6.84742e-07
3.38146e-06
-6.0149e-07
3.37279e-06
-4.79799e-07
3.36796e-06
-3.80537e-07
3.36293e-06
-2.59785e-07
3.35809e-06
-1.6451e-07
3.35565e-06
-8.46427e-08
3.35302e-06
5.89167e-10
3.35228e-06
6.93912e-08
1.28089e-07
3.35653e-06
3.57276e-06
-3.3138e-07
3.60727e-06
5.1995e-07
3.60424e-06
-2.76275e-07
3.57287e-06
-1.33933e-06
3.51249e-06
-1.65915e-06
3.53348e-06
-2.33044e-07
3.54214e-06
-8.50666e-08
3.57482e-06
1.53407e-08
3.58164e-06
-1.31525e-07
3.57876e-06
-4.70719e-07
3.56043e-06
-6.66411e-07
3.54403e-06
-5.85097e-07
3.53454e-06
-4.70309e-07
3.52941e-06
-3.75403e-07
3.52429e-06
-2.54667e-07
3.51923e-06
-1.59451e-07
3.51694e-06
-8.23518e-08
3.51519e-06
2.33985e-09
3.51434e-06
7.02449e-08
1.23799e-07
3.51863e-06
3.74337e-06
-3.20046e-07
3.77909e-06
4.84229e-07
3.77541e-06
-2.72592e-07
3.74353e-06
-1.30745e-06
3.68307e-06
-1.59869e-06
3.70349e-06
-2.53461e-07
3.71284e-06
-9.44126e-08
3.74482e-06
-1.66483e-08
3.75258e-06
-1.39282e-07
3.74853e-06
-4.66672e-07
3.73091e-06
-6.48783e-07
3.71447e-06
-5.68664e-07
3.70416e-06
-4.59999e-07
3.69869e-06
-3.69931e-07
3.69363e-06
-2.49607e-07
3.6884e-06
-1.5422e-07
3.68618e-06
-8.01304e-08
3.68535e-06
3.16781e-09
3.68462e-06
7.09814e-08
1.19842e-07
3.68857e-06
3.92217e-06
-3.0803e-07
3.9589e-06
4.47498e-07
3.95476e-06
-2.68448e-07
3.9222e-06
-1.27489e-06
3.86204e-06
-1.53853e-06
3.88177e-06
-2.7319e-07
3.89182e-06
-1.04457e-07
3.92286e-06
-4.76968e-08
3.93152e-06
-1.4794e-07
3.92641e-06
-4.61558e-07
3.9094e-06
-6.31776e-07
3.8931e-06
-5.52366e-07
3.88203e-06
-4.48927e-07
3.87613e-06
-3.64032e-07
3.87125e-06
-2.44722e-07
3.86596e-06
-1.48934e-07
3.86368e-06
-7.78509e-08
3.86368e-06
3.16403e-09
3.8634e-06
7.12697e-08
1.16473e-07
3.86676e-06
4.10959e-06
-2.95372e-07
4.14708e-06
4.10011e-07
4.1427e-06
-2.6407e-07
4.10926e-06
-1.24146e-06
4.04975e-06
-1.47902e-06
4.06872e-06
-2.92161e-07
4.07944e-06
-1.15182e-07
4.10936e-06
-7.76134e-08
4.11887e-06
-1.57449e-07
4.11278e-06
-4.5547e-07
4.09631e-06
-6.153e-07
4.08027e-06
-5.36326e-07
4.06853e-06
-4.37191e-07
4.06209e-06
-3.57591e-07
4.05745e-06
-2.40081e-07
4.05221e-06
-1.437e-07
4.04981e-06
-7.54477e-08
4.05042e-06
2.55422e-09
4.05089e-06
7.08012e-08
1.13668e-07
4.05369e-06
4.30607e-06
-2.82144e-07
4.34404e-06
3.72047e-07
4.33968e-06
-2.59707e-07
4.30516e-06
-1.20694e-06
4.24656e-06
-1.42042e-06
4.26475e-06
-3.10349e-07
4.27611e-06
-1.26541e-07
4.30476e-06
-1.06264e-07
4.31505e-06
-1.67738e-07
4.30809e-06
-4.48509e-07
4.29204e-06
-5.99255e-07
4.27635e-06
-5.20633e-07
4.26403e-06
-4.24876e-07
4.25697e-06
-3.50527e-07
4.25253e-06
-2.35646e-07
4.24745e-06
-1.38617e-07
4.24489e-06
-7.28885e-08
4.24592e-06
1.52804e-09
4.2473e-06
6.94163e-08
1.11173e-07
4.2498e-06
4.51207e-06
-2.68441e-07
4.55023e-06
3.3389e-07
4.54613e-06
-2.55608e-07
4.51038e-06
-1.1712e-06
4.4529e-06
-1.36293e-06
4.47029e-06
-3.27742e-07
4.48223e-06
-1.38476e-07
4.50951e-06
-1.33551e-07
4.5205e-06
-1.78727e-07
4.51278e-06
-4.40785e-07
4.49705e-06
-5.83523e-07
4.48178e-06
-5.05362e-07
4.46895e-06
-4.12055e-07
4.46119e-06
-3.42767e-07
4.45688e-06
-2.31329e-07
4.45194e-06
-1.33684e-07
4.44926e-06
-7.02007e-08
4.45056e-06
2.20485e-10
4.45289e-06
6.70926e-08
1.08615e-07
4.45545e-06
4.72804e-06
-2.54362e-07
4.76611e-06
2.95813e-07
4.76251e-06
-2.52001e-07
4.72545e-06
-1.13414e-06
4.66919e-06
-1.30667e-06
4.68578e-06
-3.44332e-07
4.69822e-06
-1.5092e-07
4.72407e-06
-1.59398e-07
4.73566e-06
-1.90323e-07
4.72731e-06
-4.32433e-07
4.71177e-06
-5.6798e-07
4.69699e-06
-4.90579e-07
4.68375e-06
-3.98814e-07
4.67524e-06
-3.34257e-07
4.67093e-06
-2.27023e-07
4.66616e-06
-1.28911e-07
4.66329e-06
-6.73303e-08
4.66484e-06
-1.33028e-09
4.66803e-06
6.39041e-08
1.05666e-07
4.67098e-06
4.95444e-06
-2.40005e-07
4.99217e-06
2.58083e-07
4.98924e-06
-2.49068e-07
4.95089e-06
-1.09579e-06
4.89591e-06
-1.25169e-06
4.91168e-06
-3.60109e-07
4.92455e-06
-1.63791e-07
4.9489e-06
-1.83741e-07
4.961e-06
-2.02421e-07
4.95217e-06
-4.23608e-07
4.9367e-06
-5.52509e-07
4.92247e-06
-4.76349e-07
4.90888e-06
-3.85225e-07
4.89961e-06
-3.24986e-07
4.89526e-06
-2.22679e-07
4.89073e-06
-1.24381e-07
4.88764e-06
-6.42353e-08
4.8893e-06
-2.99265e-09
4.8932e-06
6.00028e-08
1.02121e-07
4.89675e-06
5.19177e-06
-2.25461e-07
5.2289e-06
2.20956e-07
5.22673e-06
-2.46902e-07
5.18726e-06
-1.05632e-06
5.13355e-06
-1.19798e-06
5.14849e-06
-3.75048e-07
5.16173e-06
-1.77028e-07
5.18449e-06
-2.06499e-07
5.19697e-06
-2.14899e-07
5.18783e-06
-4.14472e-07
5.17235e-06
-5.37034e-07
5.15871e-06
-4.62708e-07
5.14489e-06
-3.71403e-07
5.13489e-06
-3.14986e-07
5.13045e-06
-2.18242e-07
5.12626e-06
-1.20188e-07
5.12297e-06
-6.09475e-08
5.12455e-06
-4.56838e-09
5.12896e-06
5.55914e-08
9.78499e-08
5.13323e-06
5.44054e-06
-2.10815e-07
5.47682e-06
1.84679e-07
5.47541e-06
-2.45494e-07
5.43511e-06
-1.01602e-06
5.38267e-06
-1.14554e-06
5.39672e-06
-3.89093e-07
5.41029e-06
-1.90605e-07
5.43139e-06
-2.27594e-07
5.44408e-06
-2.27589e-07
5.43479e-06
-4.05182e-07
5.41928e-06
-5.21528e-07
5.40622e-06
-4.49644e-07
5.39235e-06
-3.57531e-07
5.38166e-06
-3.04301e-07
5.37705e-06
-2.13633e-07
5.37332e-06
-1.16453e-07
5.36989e-06
-5.75225e-08
5.37115e-06
-5.82994e-09
5.37591e-06
5.08342e-08
9.27884e-08
5.38097e-06
5.7013e-06
-1.96152e-07
5.7365e-06
1.49477e-07
5.73573e-06
-2.4473e-07
5.69499e-06
-9.75278e-07
5.64383e-06
-1.09437e-06
5.65691e-06
-4.02173e-07
5.6708e-06
-2.04502e-07
5.69016e-06
-2.46954e-07
5.70286e-06
-2.40288e-07
5.69358e-06
-3.95902e-07
5.67803e-06
-5.05975e-07
5.66555e-06
-4.37163e-07
5.65182e-06
-3.43805e-07
5.64044e-06
-2.92923e-07
5.63564e-06
-2.08829e-07
5.63244e-06
-1.13251e-07
5.62896e-06
-5.40438e-08
5.62979e-06
-6.65752e-09
5.63465e-06
4.59739e-08
8.69503e-08
5.64048e-06
5.9746e-06
-1.81558e-07
6.00853e-06
1.15547e-07
6.0082e-06
-2.44404e-07
5.96749e-06
-9.34563e-07
5.9176e-06
-1.04449e-06
5.92961e-06
-4.14185e-07
5.94382e-06
-2.18707e-07
5.96144e-06
-2.64575e-07
5.9739e-06
-2.52744e-07
5.96476e-06
-3.86766e-07
5.94916e-06
-4.90371e-07
5.93727e-06
-4.25278e-07
5.92389e-06
-3.30427e-07
5.91186e-06
-2.80892e-07
5.90681e-06
-2.03773e-07
5.90418e-06
-1.10627e-07
5.90077e-06
-5.06363e-08
5.9011e-06
-6.98519e-09
5.9058e-06
4.12749e-08
8.04904e-08
5.91226e-06
6.26106e-06
-1.67125e-07
6.29355e-06
8.30496e-08
6.29341e-06
-2.44257e-07
6.25323e-06
-8.94388e-07
6.2046e-06
-9.9585e-07
6.21536e-06
-4.24948e-07
6.22991e-06
-2.33262e-07
6.24585e-06
-2.80507e-07
6.25781e-06
-2.64708e-07
6.24892e-06
-3.77871e-07
6.23324e-06
-4.74694e-07
6.22198e-06
-4.14019e-07
6.20911e-06
-3.1756e-07
6.19657e-06
-2.68351e-07
6.19116e-06
-1.98365e-07
6.18912e-06
-1.08583e-07
6.18593e-06
-4.7443e-08
6.18577e-06
-6.82609e-09
6.19006e-06
3.6987e-08
7.36823e-08
6.19687e-06
6.56129e-06
-1.52948e-07
6.59223e-06
5.21104e-08
6.59217e-06
-2.44197e-07
6.55291e-06
-8.5513e-07
6.50553e-06
-9.48463e-07
6.51473e-06
-4.34148e-07
6.52964e-06
-2.48171e-07
6.54401e-06
-2.94884e-07
6.5553e-06
-2.75997e-07
6.54667e-06
-3.69243e-07
6.53089e-06
-4.58913e-07
6.52026e-06
-4.03388e-07
6.50809e-06
-3.05394e-07
6.49519e-06
-2.55452e-07
6.48929e-06
-1.92459e-07
6.48781e-06
-1.07108e-07
6.48505e-06
-4.46782e-08
6.48444e-06
-6.22173e-09
6.48818e-06
3.32536e-08
6.6899e-08
6.49496e-06
6.87598e-06
-1.3914e-07
6.90522e-06
2.28753e-08
6.90536e-06
-2.44341e-07
6.86703e-06
-8.16803e-07
6.8211e-06
-9.02533e-07
6.82847e-06
-4.41513e-07
6.84352e-06
-2.63227e-07
6.85659e-06
-3.07952e-07
6.86706e-06
-2.86465e-07
6.8587e-06
-3.60885e-07
6.84277e-06
-4.42984e-07
6.83269e-06
-3.93302e-07
6.82146e-06
-2.94161e-07
6.80833e-06
-2.4232e-07
6.80178e-06
-1.8591e-07
6.80086e-06
-1.06192e-07
6.79875e-06
-4.25692e-08
6.79779e-06
-5.25735e-09
6.80092e-06
3.01243e-08
6.05183e-08
6.8073e-06
7.20583e-06
-1.25834e-07
7.23318e-06
-4.4725e-09
7.23376e-06
-2.44919e-07
7.19604e-06
-7.79086e-07
7.15198e-06
-8.58477e-07
7.15741e-06
-4.46945e-07
7.17222e-06
-2.78036e-07
7.18421e-06
-3.1994e-07
7.19381e-06
-2.96058e-07
7.18574e-06
-3.52818e-07
7.16958e-06
-4.26825e-07
7.1599e-06
-3.83619e-07
7.14976e-06
-2.84027e-07
7.13664e-06
-2.29196e-07
7.12932e-06
-1.78589e-07
7.12882e-06
-1.05698e-07
7.12771e-06
-4.14603e-08
7.12645e-06
-3.99233e-09
7.12896e-06
2.76105e-08
5.47662e-08
7.13471e-06
7.55158e-06
-1.13183e-07
7.5768e-06
-2.96926e-08
7.57812e-06
-2.4624e-07
7.54051e-06
-7.41484e-07
7.49876e-06
-8.16725e-07
7.50241e-06
-4.50596e-07
7.51648e-06
-2.92104e-07
7.52751e-06
-3.30967e-07
7.53624e-06
-3.04794e-07
7.52847e-06
-3.45045e-07
7.51208e-06
-4.10434e-07
7.50254e-06
-3.74078e-07
7.49355e-06
-2.75033e-07
7.48075e-06
-2.16398e-07
7.47269e-06
-1.70527e-07
7.47234e-06
-1.05356e-07
7.47241e-06
-4.15301e-08
7.47112e-06
-2.70004e-09
7.47302e-06
2.57123e-08
4.97386e-08
7.47805e-06
7.91398e-06
-1.01353e-07
7.93682e-06
-5.25305e-08
7.93919e-06
-2.4861e-07
7.90125e-06
-7.03549e-07
7.86206e-06
-7.77529e-07
7.86431e-06
-4.52854e-07
7.87715e-06
-3.04936e-07
7.88715e-06
-3.40966e-07
7.89507e-06
-3.12718e-07
7.88763e-06
-3.3761e-07
7.87103e-06
-3.93825e-07
7.8613e-06
-3.64348e-07
7.85339e-06
-2.67124e-07
7.84126e-06
-2.04272e-07
7.83263e-06
-1.61898e-07
7.83205e-06
-1.04776e-07
7.83333e-06
-4.28045e-08
7.83245e-06
-1.8282e-09
7.83375e-06
2.44201e-08
4.53897e-08
7.83809e-06
8.29384e-06
-9.05153e-08
8.31402e-06
-7.27028e-08
8.31769e-06
-2.52281e-07
8.2792e-06
-6.65063e-07
8.24251e-06
-7.40837e-07
8.24412e-06
-4.54466e-07
8.25517e-06
-3.15985e-07
8.26375e-06
-3.49548e-07
8.27091e-06
-3.1988e-07
8.26387e-06
-3.30566e-07
8.24712e-06
-3.7707e-07
8.23691e-06
-3.54139e-07
8.22983e-06
-2.60049e-07
8.21875e-06
-1.93186e-07
8.20985e-06
-1.53e-07
8.20868e-06
-1.03603e-07
8.21099e-06
-4.51166e-08
8.21101e-06
-1.84905e-09
8.2118e-06
2.36314e-08
4.1604e-08
8.21558e-06
8.69199e-06
-8.08454e-08
8.70912e-06
-8.98305e-08
8.71426e-06
-2.57423e-07
8.67543e-06
-6.26232e-07
8.64048e-06
-7.05883e-07
8.6417e-06
-4.55686e-07
8.65095e-06
-3.25238e-07
8.65794e-06
-3.56542e-07
8.6643e-06
-3.26235e-07
8.65776e-06
-3.24026e-07
8.641e-06
-3.60312e-07
8.62999e-06
-3.43126e-07
8.6236e-06
-2.53662e-07
8.61386e-06
-1.83443e-07
8.60505e-06
-1.44189e-07
8.6031e-06
-1.01654e-07
8.60601e-06
-4.80272e-08
8.60736e-06
-3.20206e-09
8.60792e-06
2.30686e-08
3.83117e-08
8.61122e-06
9.10927e-06
-7.24943e-08
9.12303e-06
-1.03589e-07
9.1296e-06
-2.63998e-07
9.09121e-06
-5.87838e-07
9.05673e-06
-6.71402e-07
9.05814e-06
-4.57101e-07
9.06587e-06
-3.32961e-07
9.07072e-06
-3.61394e-07
9.07587e-06
-3.31387e-07
9.06985e-06
-3.18009e-07
9.05339e-06
-3.43855e-07
9.04135e-06
-3.31081e-07
9.0355e-06
-2.47808e-07
9.02733e-06
-1.7528e-07
9.01898e-06
-1.35839e-07
9.0163e-06
-9.89705e-08
9.01922e-06
-5.09527e-08
9.02212e-06
-6.09792e-09
9.0229e-06
2.229e-08
3.54961e-08
9.02571e-06
9.54654e-06
-6.55694e-08
9.55685e-06
-1.13902e-07
9.56448e-06
-2.71632e-07
9.52794e-06
-5.51298e-07
9.4927e-06
-6.36164e-07
9.49408e-06
-4.58477e-07
9.50067e-06
-3.39556e-07
9.50294e-06
-3.63658e-07
9.50646e-06
-3.34906e-07
9.50108e-06
-3.12631e-07
9.48522e-06
-3.27996e-07
9.4723e-06
-3.18164e-07
9.46671e-06
-2.42213e-07
9.46011e-06
-1.68689e-07
9.45254e-06
-1.28267e-07
9.4493e-06
-9.57301e-08
9.45178e-06
-5.34308e-08
9.45596e-06
-1.0276e-08
9.45757e-06
2.06837e-08
3.31475e-08
9.45991e-06
1.00047e-05
-6.01318e-08
1.00117e-05
-1.20933e-07
1.00198e-05
-2.79668e-07
9.98637e-06
-5.17904e-07
9.94965e-06
-5.99446e-07
9.95019e-06
-4.59017e-07
9.95628e-06
-3.45646e-07
9.95582e-06
-3.63192e-07
9.95739e-06
-3.36479e-07
9.95251e-06
-3.07753e-07
9.93765e-06
-3.13128e-07
9.92433e-06
-3.04849e-07
9.9186e-06
-2.36482e-07
9.9134e-06
-1.63486e-07
9.90669e-06
-1.21558e-07
9.90323e-06
-9.22688e-08
9.90494e-06
-5.51427e-08
9.90988e-06
-1.52123e-08
9.91275e-06
1.78042e-08
3.11033e-08
9.9148e-06
1.04847e-05
-5.61906e-08
1.04888e-05
-1.25021e-07
1.04965e-05
-2.87333e-07
1.04672e-05
-4.88614e-07
1.04289e-05
-5.61214e-07
1.04277e-05
-4.57741e-07
1.04338e-05
-3.51769e-07
1.0431e-05
-3.60419e-07
1.043e-05
-3.35463e-07
1.04255e-05
-3.03302e-07
1.0412e-05
-2.99624e-07
1.03986e-05
-2.9138e-07
1.03925e-05
-2.30437e-07
1.03884e-05
-1.59347e-07
1.03826e-05
-1.1578e-07
1.03791e-05
-8.87883e-08
1.03801e-05
-5.6079e-08
1.0385e-05
-2.01721e-08
1.03893e-05
1.35121e-08
2.89399e-08
1.03915e-05
1.09875e-05
-5.36905e-08
1.09891e-05
-1.26618e-07
1.09957e-05
-2.93925e-07
1.09709e-05
-4.63851e-07
1.09319e-05
-5.22213e-07
1.09279e-05
-4.5366e-07
1.09343e-05
-3.58191e-07
1.09301e-05
-3.56194e-07
1.0926e-05
-3.31386e-07
1.09215e-05
-2.98809e-07
1.09094e-05
-2.87566e-07
1.08962e-05
-2.78178e-07
1.08897e-05
-2.23956e-07
1.08864e-05
-1.55988e-07
1.08815e-05
-1.10852e-07
1.08781e-05
-8.54002e-08
1.08783e-05
-5.63148e-08
1.08828e-05
-2.46285e-08
1.08882e-05
8.11279e-09
2.61296e-08
1.0891e-05
1.15142e-05
-5.24932e-08
1.15138e-05
-1.26234e-07
1.15188e-05
-2.98906e-07
1.14985e-05
-4.43576e-07
1.14601e-05
-4.83816e-07
1.1452e-05
-4.45589e-07
1.14584e-05
-3.64585e-07
1.14542e-05
-3.52029e-07
1.14473e-05
-3.24471e-07
1.14417e-05
-2.93215e-07
1.14309e-05
-2.76686e-07
1.14183e-05
-2.65659e-07
1.14115e-05
-2.17107e-07
1.14086e-05
-1.53076e-07
1.14045e-05
-1.06751e-07
1.14012e-05
-8.21043e-08
1.14009e-05
-5.60622e-08
1.14046e-05
-2.82577e-08
1.14105e-05
2.20857e-09
2.22826e-08
1.14143e-05
1.20657e-05
-5.23622e-08
1.20639e-05
-1.24452e-07
1.20667e-05
-3.01674e-07
1.20506e-05
-4.27508e-07
1.20143e-05
-4.47537e-07
1.20017e-05
-4.32959e-07
1.2007e-05
-3.69839e-07
1.20043e-05
-3.49353e-07
1.19953e-05
-3.15493e-07
1.19878e-05
-2.85679e-07
1.19776e-05
-2.66479e-07
1.19658e-05
-2.53882e-07
1.19588e-05
-2.10088e-07
1.19561e-05
-1.50448e-07
1.19528e-05
-1.03389e-07
1.19497e-05
-7.90032e-08
1.1949e-05
-5.54241e-08
1.19518e-05
-3.09786e-08
1.19576e-05
-3.59526e-09
1.7422e-08
1.19624e-05
1.26432e-05
-5.29679e-08
1.26407e-05
-1.21988e-07
1.26407e-05
-3.01601e-07
1.26283e-05
-4.15151e-07
1.25955e-05
-4.14782e-07
1.25784e-05
-4.15834e-07
1.2581e-05
-3.72371e-07
1.25803e-05
-3.48739e-07
1.25708e-05
-3.05937e-07
1.25611e-05
-2.76004e-07
1.25507e-05
-2.56105e-07
1.25397e-05
-2.42842e-07
1.25326e-05
-2.03005e-07
1.25302e-05
-1.4805e-07
1.25276e-05
-1.00754e-07
1.25247e-05
-7.61284e-08
1.25238e-05
-5.45601e-08
1.25258e-05
-3.29012e-08
1.25309e-05
-8.71136e-09
1.18822e-08
1.25364e-05
1.32479e-05
-5.39059e-08
1.32454e-05
-1.19511e-07
1.3242e-05
-2.98219e-07
1.32328e-05
-4.05972e-07
1.32045e-05
-3.8641e-07
1.31838e-05
-3.95128e-07
1.31816e-05
-3.70201e-07
1.31826e-05
-3.49715e-07
1.31745e-05
-2.97845e-07
1.31632e-05
-2.64725e-07
1.3152e-05
-2.44889e-07
1.31414e-05
-2.32224e-07
1.31342e-05
-1.95895e-07
1.3132e-05
-1.45768e-07
1.31301e-05
-9.88688e-08
1.31275e-05
-7.35666e-08
1.31265e-05
-5.35628e-08
1.31279e-05
-3.42722e-08
1.3132e-05
-1.28276e-08
6.18856e-09
1.31377e-05
1.3881e-05
-5.47518e-08
1.38795e-05
-1.18022e-07
1.38723e-05
-2.9104e-07
1.38654e-05
-3.99065e-07
1.38417e-05
-3.62631e-07
1.38187e-05
-3.72161e-07
1.3811e-05
-3.62503e-07
1.38118e-05
-3.5052e-07
1.38067e-05
-2.92737e-07
1.37952e-05
-2.53222e-07
1.37828e-05
-2.32489e-07
1.37721e-05
-2.2158e-07
1.3765e-05
-1.88731e-07
1.37627e-05
-1.43492e-07
1.37615e-05
-9.76933e-08
1.37594e-05
-7.14739e-08
1.37583e-05
-5.24417e-08
1.37593e-05
-3.52445e-08
1.37625e-05
-1.60233e-08
8.626e-10
1.37678e-05
1.4544e-05
-5.51085e-08
1.45437e-05
-1.17658e-07
1.45329e-05
-2.80321e-07
1.45271e-05
-3.9321e-07
1.45079e-05
-3.43432e-07
1.44843e-05
-3.48565e-07
1.44718e-05
-3.50004e-07
1.447e-05
-3.48686e-07
1.44679e-05
-2.90684e-07
1.4458e-05
-2.43317e-07
1.44448e-05
-2.19281e-07
1.44336e-05
-2.10352e-07
1.44262e-05
-1.8138e-07
1.44237e-05
-1.41018e-07
1.44232e-05
-9.71441e-08
1.44217e-05
-6.99982e-08
1.44205e-05
-5.12691e-08
1.44212e-05
-3.59289e-08
1.44237e-05
-1.85183e-08
-3.75811e-09
1.44283e-05
1.52384e-05
-5.46662e-08
1.52397e-05
-1.18918e-07
1.52258e-05
-2.66407e-07
1.52189e-05
-3.8636e-07
1.52041e-05
-3.28628e-07
1.51816e-05
-3.26004e-07
1.51655e-05
-3.33956e-07
1.51597e-05
-3.42844e-07
1.51592e-05
-2.90159e-07
1.51523e-05
-2.36437e-07
1.51393e-05
-2.06301e-07
1.51273e-05
-1.98356e-07
1.51194e-05
-1.73523e-07
1.51166e-05
-1.38163e-07
1.51164e-05
-9.69869e-08
1.51157e-05
-6.92429e-08
1.51147e-05
-5.02613e-08
1.5115e-05
-3.62723e-08
1.51171e-05
-2.06291e-08
-7.42225e-09
1.51208e-05
1.59659e-05
-5.32066e-08
1.59686e-05
-1.21617e-07
1.59519e-05
-2.49744e-07
1.59424e-05
-3.76848e-07
1.59319e-05
-3.18153e-07
1.59118e-05
-3.05878e-07
1.58936e-05
-3.15733e-07
1.58836e-05
-3.32911e-07
1.58823e-05
-2.88777e-07
1.58787e-05
-2.32919e-07
1.58674e-05
-1.95001e-07
1.58549e-05
-1.85817e-07
1.58463e-05
-1.6495e-07
1.58428e-05
-1.34675e-07
1.58427e-05
-9.68651e-08
1.58427e-05
-6.91866e-08
1.58421e-05
-4.96536e-08
1.58421e-05
-3.63654e-08
1.58439e-05
-2.2357e-08
-1.04014e-08
1.58469e-05
1.6728e-05
-5.06451e-08
1.67295e-05
-1.23122e-07
1.67121e-05
-2.32271e-07
1.66992e-05
-3.63983e-07
1.66927e-05
-3.11687e-07
1.66764e-05
-2.89508e-07
1.66573e-05
-2.96699e-07
1.6644e-05
-3.19593e-07
1.66398e-05
-2.84548e-07
1.66387e-05
-2.31781e-07
1.66301e-05
-1.86442e-07
1.66179e-05
-1.73588e-07
1.66085e-05
-1.55576e-07
1.66042e-05
-1.30383e-07
1.66038e-05
-9.64226e-08
1.66041e-05
-6.95801e-08
1.66041e-05
-4.96011e-08
1.66042e-05
-3.64453e-08
1.66055e-05
-2.36717e-08
-1.28991e-08
1.6608e-05
1.75269e-05
-4.72229e-08
1.75294e-05
-1.25573e-07
1.75114e-05
-2.14257e-07
1.74934e-05
-3.46033e-07
1.74884e-05
-3.06657e-07
1.74767e-05
-2.77801e-07
1.74581e-05
-2.7814e-07
1.74423e-05
-3.03757e-07
1.74347e-05
-2.76922e-07
1.74337e-05
-2.30849e-07
1.74283e-05
-1.80972e-07
1.74174e-05
-1.62751e-07
1.74076e-05
-1.45729e-07
1.74023e-05
-1.25126e-07
1.74013e-05
-9.54419e-08
1.74019e-05
-7.00994e-08
1.74023e-05
-4.99938e-08
1.74026e-05
-3.67599e-08
1.74036e-05
-2.47053e-08
-1.49549e-08
1.74057e-05
1.83643e-05
-4.31994e-08
1.83658e-05
-1.27085e-07
1.83495e-05
-1.97953e-07
1.83285e-05