/*--------------------------------*- C++ -*----------------------------------*\
| =========                 |                                                 |
| \\      /  F ield         | OpenFOAM: The Open Source CFD Toolbox           |
|  \\    /   O peration     | Version:  v1906                                 |
|   \\  /    A nd           | Web:      www.OpenFOAM.com                      |
|    \\/     M anipulation  |                                                 |
\*---------------------------------------------------------------------------*/
FoamFile
{
    version     2.0;
    format      ascii;
    class       volVectorField;
    location    "5.2";
    object      U;
}
// * * * * * * * * * * * * * * * * * * * * * * * * * * * * * * * * * * * * * //

dimensions      [0 1 -1 0 0 0 0];


internalField   nonuniform List<vector> 
9600
(
(0.64093 -0.00339212 0)
(1.34359 0.0128285 0)
(0.619751 -0.0133503 0)
(1.26855 -0.0216488 0)
(0.9215 -0.0195003 0)
(1.30816 0.0177226 0)
(0.801838 0.00729791 0)
(1.22738 0.00872399 0)
(0.825267 -0.0169391 0)
(1.20518 -0.0220607 0)
(0.914762 -0.0346511 0)
(1.20976 -0.0193637 0)
(0.916876 -0.0142326 0)
(1.18638 -0.00416271 0)
(0.929579 -0.00344894 0)
(1.1817 0.00268196 0)
(0.928776 0.00134478 0)
(1.18081 0.00426148 0)
(0.912115 0.00446703 0)
(1.1735 0.00296834 0)
(0.661158 -0.0035227 0)
(1.32629 0.0132586 0)
(0.686727 -0.0129861 0)
(1.21931 -0.0242261 0)
(0.931013 -0.0204947 0)
(1.28943 0.0186474 0)
(0.859874 0.00783854 0)
(1.1973 0.00884466 0)
(0.926462 -0.0168215 0)
(1.1568 -0.0230897 0)
(0.965838 -0.0352033 0)
(1.17072 -0.0192727 0)
(0.965095 -0.0140431 0)
(1.1489 -0.00426649 0)
(0.985999 -0.00346581 0)
(1.1319 0.00269636 0)
(1.00491 0.00149688 0)
(1.10605 0.00420753 0)
(1.01959 0.00560545 0)
(1.06084 0.00260147 0)
(0.699413 -0.00363098 0)
(1.29036 0.0134455 0)
(0.763778 -0.0124434 0)
(1.14999 -0.0256876 0)
(0.947486 -0.0213652 0)
(1.24722 0.019706 0)
(0.936589 0.00865091 0)
(1.1679 0.00825999 0)
(1.00126 -0.0164267 0)
(1.10795 -0.0231899 0)
(0.999522 -0.0352359 0)
(1.11312 -0.0192977 0)
(1.0099 -0.0137731 0)
(1.10119 -0.00469814 0)
(1.03579 -0.00314829 0)
(1.09048 0.00227495 0)
(1.05308 0.00215823 0)
(1.0733 0.00386359 0)
(1.05538 0.00663523 0)
(1.05304 0.00349938 0)
(0.751191 -0.00371031 0)
(1.23885 0.0132236 0)
(0.839188 -0.0115154 0)
(1.0745 -0.0268643 0)
(0.963146 -0.0223998 0)
(1.1899 0.0199267 0)
(1.00505 0.00917871 0)
(1.14667 0.00765091 0)
(1.05546 -0.0155687 0)
(1.07539 -0.022961 0)
(1.016 -0.0351174 0)
(1.06341 -0.0195778 0)
(1.02845 -0.0136789 0)
(1.06661 -0.00525236 0)
(1.05365 -0.00306391 0)
(1.07307 0.00190138 0)
(1.06736 0.00250041 0)
(1.07019 0.00376154 0)
(1.06423 0.00720354 0)
(1.06235 0.00448875 0)
(0.8096 -0.00375672 0)
(1.17968 0.0127743 0)
(0.901738 -0.0103002 0)
(1.00858 -0.0276539 0)
(0.970652 -0.0235545 0)
(1.13166 0.0193163 0)
(1.05553 0.00930846 0)
(1.13835 0.00717296 0)
(1.08804 -0.0144872 0)
(1.06074 -0.022203 0)
(1.01787 -0.0346046 0)
(1.03015 -0.0198444 0)
(1.02616 -0.0138108 0)
(1.04567 -0.00585312 0)
(1.05218 -0.0032971 0)
(1.06542 0.00147897 0)
(1.06945 0.00256473 0)
(1.07158 0.00366519 0)
(1.06947 0.00757939 0)
(1.06857 0.00518579 0)
(0.866639 -0.00376786 0)
(1.12313 0.0122574 0)
(0.946841 -0.00897783 0)
(0.963571 -0.0280586 0)
(0.967815 -0.0247782 0)
(1.08525 0.0181769 0)
(1.08836 0.00892749 0)
(1.14013 0.00684008 0)
(1.10634 -0.0132518 0)
(1.05838 -0.0210218 0)
(1.01502 -0.0337714 0)
(1.01036 -0.0200599 0)
(1.01609 -0.0141098 0)
(1.03177 -0.00655293 0)
(1.04488 -0.00375969 0)
(1.05922 0.000875195 0)
(1.06809 0.00242643 0)
(1.07189 0.00346702 0)
(1.07276 0.00774397 0)
(1.07269 0.00579883 0)
(0.915248 -0.00376413 0)
(1.07785 0.0117836 0)
(0.976122 -0.00770717 0)
(0.942523 -0.0280825 0)
(0.957865 -0.0260127 0)
(1.05643 0.016602 0)
(1.10733 0.00804864 0)
(1.14548 0.00662555 0)
(1.11523 -0.0118858 0)
(1.06024 -0.0195317 0)
(1.01236 -0.0326024 0)
(0.998595 -0.0201649 0)
(1.00584 -0.0144797 0)
(1.02131 -0.00737222 0)
(1.03733 -0.00438694 0)
(1.05337 9.60056e-05 0)
(1.06538 0.00208688 0)
(1.07102 0.00315126 0)
(1.07401 0.00771204 0)
(1.0749 0.00638561 0)
(0.951183 -0.00377537 0)
(1.04751 0.0114097 0)
(0.994414 -0.00658922 0)
(0.940759 -0.0277776 0)
(0.946637 -0.027235 0)
(1.04303 0.0146029 0)
(1.11583 0.00681465 0)
(1.14791 0.00649816 0)
(1.11674 -0.0104116 0)
(1.06121 -0.0178743 0)
(1.01079 -0.0311774 0)
(0.991596 -0.0201516 0)
(0.997823 -0.0148686 0)
(1.01295 -0.00829787 0)
(1.03058 -0.00514499 0)
(1.04778 -0.000826934 0)
(1.06183 0.0015662 0)
(1.06882 0.00274358 0)
(1.07327 0.00753524 0)
(1.07489 0.00694397 0)
(0.973803 -0.00382082 0)
(1.0304 0.0111262 0)
(1.00642 -0.00565628 0)
(0.950119 -0.0272096 0)
(0.938913 -0.0284033 0)
(1.03859 0.01228 0)
(1.1157 0.00543967 0)
(1.14332 0.00642828 0)
(1.11131 -0.00888011 0)
(1.05923 -0.0161668 0)
(1.00969 -0.0295938 0)
(0.987788 -0.0200312 0)
(0.992256 -0.0152291 0)
(1.00589 -0.0092743 0)
(1.0239 -0.00600342 0)
(1.04151 -0.00185464 0)
(1.05675 0.000906765 0)
(1.06457 0.00228204 0)
(1.06996 0.00724839 0)
(1.07212 0.00745579 0)
(0.985521 -0.00389748 0)
(1.02189 0.0108797 0)
(1.01483 -0.00490448 0)
(0.963555 -0.0264372 0)
(0.936539 -0.0294467 0)
(1.03649 0.00980972 0)
(1.10782 0.00411953 0)
(1.1304 0.00641149 0)
(1.09953 -0.00736495 0)
(1.05402 -0.0145289 0)
(1.00859 -0.0279585 0)
(0.986192 -0.019833 0)
(0.988738 -0.0155112 0)
(0.999617 -0.0102194 0)
(1.01639 -0.00690778 0)
(1.0334 -0.00293357 0)
(1.04897 0.000154767 0)
(1.05725 0.0017834 0)
(1.06325 0.00686758 0)
(1.06596 0.00790022 0)
(0.990263 -0.00398449 0)
(1.0174 0.0106134 0)
(1.02031 -0.00432519 0)
(0.976862 -0.0255288 0)
(0.939019 -0.0302959 0)
(1.03212 0.00739723 0)
(1.09304 0.00295114 0)
(1.11021 0.00642067 0)
(1.08288 -0.00596067 0)
(1.04626 -0.0130721 0)
(1.00734 -0.0263697 0)
(0.986009 -0.0195814 0)
(0.986749 -0.0156685 0)
(0.994073 -0.0110419 0)
(1.00799 -0.00776799 0)
(1.02317 -0.00399004 0)
(1.03807 -0.000665398 0)
(1.04642 0.00125502 0)
(1.05281 0.00641078 0)
(1.05618 0.00825245 0)
(0.991717 -0.00405768 0)
(1.01411 0.0102988 0)
(1.02285 -0.0039102 0)
(0.987985 -0.024571 0)
(0.944951 -0.030891 0)
(1.02356 0.00521636 0)
(1.07308 0.00201033 0)
(1.08551 0.00642843 0)
(1.06381 -0.00475172 0)
(1.03711 -0.0118864 0)
(1.00599 -0.0249053 0)
(0.986576 -0.0192959 0)
(0.98583 -0.0156895 0)
(0.989591 -0.011668 0)
(0.999604 -0.00848682 0)
(1.0119 -0.00494321 0)
(1.02506 -0.00150014 0)
(1.03292 0.000723982 0)
(1.03941 0.00590149 0)
(1.04347 0.00847777 0)
(0.992252 -0.00410538 0)
(1.011 0.00994821 0)
(1.02286 -0.00363609 0)
(0.996099 -0.0236488 0)
(0.952742 -0.0311979 0)
(1.01163 0.00339187 0)
(1.05104 0.00130166 0)
(1.06017 0.00638384 0)
(1.04521 -0.00379826 0)
(1.02792 -0.011021 0)
(1.00459 -0.0236147 0)
(0.987392 -0.0189992 0)
(0.985609 -0.0155947 0)
(0.986528 -0.0120707 0)
(0.992541 -0.00900722 0)
(1.00142 -0.00572101 0)
(1.01201 -0.00227773 0)
(1.01871 0.000219827 0)
(1.02487 0.00535746 0)
(1.02944 0.00854601 0)
(0.992858 -0.00412389 0)
(1.00804 0.00958423 0)
(1.02134 -0.00347143 0)
(1.00124 -0.0228244 0)
(0.960806 -0.0312098 0)
(0.999093 0.0019721 0)
(1.03061 0.000773207 0)
(1.0379 0.00623619 0)
(1.02945 -0.00311493 0)
(1.01985 -0.0104687 0)
(1.00321 -0.0225101 0)
(0.988135 -0.0187103 0)
(0.985773 -0.0154213 0)
(0.984915 -0.0122792 0)
(0.987691 -0.00932922 0)
(0.993298 -0.00628559 0)
(1.001 -0.00293109 0)
(1.00597 -0.000226553 0)
(1.01129 0.00480479 0)
(1.01596 0.0084657 0)
(0.993684 -0.00411517 0)
(1.00546 0.00922286 0)
(1.01927 -0.00338713 0)
(1.00406 -0.0221113 0)
(0.967882 -0.0309756 0)
(0.988705 0.000914942 0)
(1.01459 0.000370324 0)
(1.02092 0.00596708 0)
(1.01774 -0.00266675 0)
(1.01352 -0.0101709 0)
(1.00192 -0.0215722 0)
(0.988651 -0.0184343 0)
(0.986069 -0.0152154 0)
(0.984388 -0.0123561 0)
(0.985085 -0.00947896 0)
(0.988096 -0.00663932 0)
(0.993106 -0.00340925 0)
(0.99609 -0.000577548 0)
(1.00021 0.00429231 0)
(1.00451 0.00828975 0)
(0.994598 -0.00408751 0)
(1.00339 0.00887912 0)
(1.01728 -0.00335042 0)
(1.00539 -0.0214958 0)
(0.973345 -0.0305552 0)
(0.981781 0.000136876 0)
(1.00379 5.13538e-05 0)
(1.00951 0.00558972 0)
(1.00992 -0.00239248 0)
(1.00903 -0.0100472 0)
(1.00079 -0.020766 0)
(0.988923 -0.018169 0)
(0.98633 -0.0150079 0)
(0.984422 -0.0123571 0)
(0.984079 -0.00951 0)
(0.98536 -0.0068087 0)
(0.988243 -0.00370975 0)
(0.989358 -0.000804901 0)
(0.992166 0.00387127 0)
(0.995756 0.00807941 0)
(0.995464 -0.00404355 0)
(1.00183 0.00855067 0)
(1.01557 -0.00334179 0)
(1.00592 -0.0209531 0)
(0.977208 -0.0300043 0)
(0.978028 -0.00045632 0)
(0.997357 -0.000201282 0)
(1.00253 0.0051366 0)
(1.00507 -0.00223344 0)
(1.00606 -0.0100252 0)
(0.999882 -0.020055 0)
(0.989011 -0.0179062 0)
(0.986493 -0.0148132 0)
(0.984604 -0.0123131 0)
(0.983868 -0.00947947 0)
(0.98417 -0.00684468 0)
(0.9856 -0.00385362 0)
(0.985221 -0.000893729 0)
(0.986855 0.00356271 0)
(0.9896 0.00787088 0)
(0.9962 -0.00398622 0)
(1.00073 0.00822843 0)
(1.01413 -0.00334706 0)
(1.00606 -0.0204624 0)
(0.979824 -0.0293634 0)
(0.976385 -0.000937005 0)
(0.993763 -0.000403934 0)
(0.998454 0.00463426 0)
(1.00212 -0.00214882 0)
(1.00417 -0.0100553 0)
(0.999215 -0.0194098 0)
(0.989008 -0.0176358 0)
(0.986562 -0.0146315 0)
(0.984739 -0.0122452 0)
(0.983881 -0.00941191 0)
(0.983698 -0.00680258 0)
(0.984261 -0.00388427 0)
(0.982845 -0.000873037 0)
(0.983592 0.00334996 0)
(0.985555 0.00767466 0)
(0.996756 -0.00391916 0)
(1.00002 0.00790948 0)
(1.01293 -0.00335744 0)
(1.00601 -0.0200086 0)
(0.981581 -0.0286601 0)
(0.975861 -0.00135177 0)
(0.991746 -0.000570147 0)
(0.996083 0.00409844 0)
(1.00028 -0.0021152 0)
(1.00298 -0.010107 0)
(0.998779 -0.0188112 0)
(0.989007 -0.0173501 0)
(0.986575 -0.0144537 0)
(0.984798 -0.0121655 0)
(0.983877 -0.00931761 0)
(0.983462 -0.0067178 0)
(0.983569 -0.00384242 0)
(0.981525 -0.000780729 0)
(0.981694 0.00321296 0)
(0.983066 0.00749145 0)
(0.997107 -0.00384468 0)
(0.99966 0.00759171 0)
(1.01192 -0.00336775 0)
(1.00587 -0.0195804 0)
(0.982767 -0.0279125 0)
(0.97587 -0.00173334 0)
(0.990567 -0.000709024 0)
(0.994722 0.00353944 0)
(0.999109 -0.0021201 0)
(1.00223 -0.01016 0)
(0.998528 -0.0182515 0)
(0.989066 -0.017038 0)
(0.986574 -0.014276 0)
(0.984821 -0.0120743 0)
(0.983824 -0.00920387 0)
(0.983285 -0.00660423 0)
(0.98318 -0.00376401 0)
(0.980819 -0.00063291 0)
(0.980666 0.00314452 0)
(0.981675 0.00732044 0)
(0.997256 -0.00376356 0)
(0.999577 0.00726982 0)
(1.01109 -0.00337397 0)
(1.00568 -0.0191681 0)
(0.983577 -0.0271311 0)
(0.976162 -0.00209343 0)
(0.989894 -0.000833542 0)
(0.99401 0.00296227 0)
(0.998363 -0.0021572 0)
(1.00174 -0.0102029 0)
(0.998395 -0.0177244 0)
(0.989205 -0.0166949 0)
(0.986595 -0.0140955 0)
(0.984851 -0.0119694 0)
(0.983767 -0.00907507 0)
(0.983157 -0.00646586 0)
(0.982968 -0.00366757 0)
(0.980493 -0.000467835 0)
(0.9802 0.00313127 0)
(0.981051 0.00716017 0)
(0.997237 -0.00367708 0)
(0.999685 0.0069397 0)
(1.0104 -0.0033719 0)
(1.00549 -0.0187657 0)
(0.984153 -0.026325 0)
(0.976645 -0.00243682 0)
(0.98957 -0.000953688 0)
(0.993729 0.00237143 0)
(0.997891 -0.00222218 0)
(1.0014 -0.0102273 0)
(0.998323 -0.0172216 0)
(0.98941 -0.0163282 0)
(0.986658 -0.0139029 0)
(0.984918 -0.0118502 0)
(0.983751 -0.00893416 0)
(0.983105 -0.00631296 0)
(0.982896 -0.00356134 0)
(0.980434 -0.000307776 0)
(0.98011 0.00314724 0)
(0.980954 0.00700166 0)
(0.997103 -0.00358571 0)
(0.999894 0.00659855 0)
(1.00979 -0.00335853 0)
(1.0053 -0.0183668 0)
(0.984609 -0.025501 0)
(0.977268 -0.00277281 0)
(0.989494 -0.00107759 0)
(0.993707 0.00177128 0)
(0.997575 -0.00231209 0)
(1.00113 -0.0102289 0)
(0.99827 -0.0167402 0)
(0.989651 -0.0159429 0)
(0.98677 -0.0136902 0)
(0.985034 -0.0117237 0)
(0.983801 -0.00878079 0)
(0.983145 -0.00615225 0)
(0.982954 -0.00345362 0)
(0.980572 -0.000158555 0)
(0.980275 0.00316999 0)
(0.981204 0.00682472 0)
(0.996917 -0.00348791 0)
(1.00012 0.00624155 0)
(1.00925 -0.00333527 0)
(1.00509 -0.017965 0)
(0.985028 -0.024662 0)
(0.977985 -0.00310274 0)
(0.989582 -0.0012093 0)
(0.993802 0.00116905 0)
(0.997322 -0.0024213 0)
(1.00086 -0.0102087 0)
(0.998213 -0.0162796 0)
(0.989904 -0.0155395 0)
(0.986926 -0.0134563 0)
(0.985201 -0.0115877 0)
(0.983928 -0.00862154 0)
(0.983274 -0.00598208 0)
(0.983128 -0.00334861 0)
(0.980853 -3.24599e-05 0)
(0.980606 0.00319237 0)
(0.981667 0.00660999 0)
(0.996737 -0.00338396 0)
(1.00032 0.00586915 0)
(1.00874 -0.00330267 0)
(1.00484 -0.0175616 0)
(0.985456 -0.0238125 0)
(0.978752 -0.00342663 0)
(0.989776 -0.00135071 0)
(0.993926 0.000570031 0)
(0.997079 -0.00254637 0)
(1.00056 -0.0101636 0)
(0.998144 -0.0158383 0)
(0.99015 -0.0151235 0)
(0.987117 -0.0132033 0)
(0.985412 -0.0114363 0)
(0.984133 -0.00846054 0)
(0.983479 -0.00580711 0)
(0.983397 -0.00325442 0)
(0.981234 7.27964e-05 0)
(0.981036 0.00322513 0)
(0.982239 0.00635898 0)
(0.996607 -0.00327315 0)
(1.00045 0.00548339 0)
(1.00826 -0.00326105 0)
(1.00454 -0.0171532 0)
(0.985907 -0.0229611 0)
(0.97954 -0.00374348 0)
(0.990039 -0.0015036 0)
(0.994038 -1.65838e-05 0)
(0.996824 -0.00268791 0)
(1.00023 -0.0100917 0)
(0.998063 -0.0154157 0)
(0.990382 -0.014702 0)
(0.987332 -0.0129266 0)
(0.985659 -0.0112766 0)
(0.984411 -0.00829206 0)
(0.983744 -0.00562333 0)
(0.983742 -0.00317264 0)
(0.981685 0.000145422 0)
(0.981518 0.00328254 0)
(0.982847 0.00610993 0)
(0.99655 -0.00315544 0)
(1.00051 0.00508591 0)
(1.0078 -0.00321366 0)
(1.00419 -0.0167348 0)
(0.986378 -0.0221131 0)
(0.980333 -0.00404882 0)
(0.990346 -0.00166889 0)
(0.994132 -0.000586363 0)
(0.996558 -0.00284498 0)
(0.999861 -0.00999438 0)
(0.997972 -0.0150074 0)
(0.990599 -0.0142853 0)
(0.987562 -0.0126248 0)
(0.985931 -0.011109 0)
(0.984751 -0.00812746 0)
(0.984052 -0.00543151 0)
(0.984139 -0.00309383 0)
(0.982187 0.000161734 0)
(0.98203 0.00334159 0)
(0.983441 0.00591431 0)
(0.996566 -0.00303095 0)
(1.00051 0.00467876 0)
(1.00736 -0.00316173 0)
(1.0038 -0.0163078 0)
(0.986857 -0.0212717 0)
(0.981123 -0.00434262 0)
(0.990678 -0.00184615 0)
(0.994218 -0.00114207 0)
(0.996292 -0.00302018 0)
(0.999469 -0.00987665 0)
(0.997875 -0.0146132 0)
(0.990802 -0.0138735 0)
(0.987795 -0.0123019 0)
(0.986218 -0.0109239 0)
(0.985139 -0.00797643 0)
(0.984395 -0.00523799 0)
(0.984569 -0.003003 0)
(0.982726 0.000126449 0)
(0.982565 0.00335362 0)
(0.983999 0.00578996 0)
(0.996642 -0.00290033 0)
(1.00048 0.00426516 0)
(1.00694 -0.00310994 0)
(1.00341 -0.0158652 0)
(0.987336 -0.0204417 0)
(0.98191 -0.00462672 0)
(0.991019 -0.00203114 0)
(0.994302 -0.00167901 0)
(0.996036 -0.00321464 0)
(0.999063 -0.0097381 0)
(0.997776 -0.0142333 0)
(0.990998 -0.0134657 0)
(0.988025 -0.0119604 0)
(0.986514 -0.010714 0)
(0.985559 -0.00783216 0)
(0.984764 -0.0050509 0)
(0.985012 -0.0028991 0)
(0.983285 7.19715e-05 0)
(0.983123 0.00329602 0)
(0.984521 0.0057 0)
(0.996752 -0.00276505 0)
(1.00044 0.00384842 0)
(1.00652 -0.00306228 0)
(1.00302 -0.0154054 0)
(0.987812 -0.0196241 0)
(0.982692 -0.00489944 0)
(0.991353 -0.00222389 0)
(0.99439 -0.00219338 0)
(0.995797 -0.00342486 0)
(0.998651 -0.00957506 0)
(0.997673 -0.0138676 0)
(0.991188 -0.0130716 0)
(0.988245 -0.0116082 0)
(0.986811 -0.0104824 0)
(0.985999 -0.00768955 0)
(0.985153 -0.00487928 0)
(0.985459 -0.00279603 0)
(0.983854 1.88974e-05 0)
(0.9837 0.00318201 0)
(0.985021 0.00559002 0)
(0.996877 -0.00262454 0)
(1.00041 0.0034294 0)
(1.0061 -0.00301895 0)
(1.00265 -0.0149319 0)
(0.988288 -0.0188224 0)
(0.983469 -0.00515952 0)
(0.991672 -0.00242335 0)
(0.99448 -0.00268167 0)
(0.995576 -0.00365055 0)
(0.99824 -0.00939661 0)
(0.997568 -0.0135071 0)
(0.991378 -0.0126892 0)
(0.988455 -0.0112469 0)
(0.987106 -0.0102359 0)
(0.986448 -0.00754662 0)
(0.985558 -0.0047088 0)
(0.985904 -0.0026913 0)
(0.984425 -3.37229e-05 0)
(0.98429 0.00303884 0)
(0.98551 0.00544045 0)
(0.997 -0.00248097 0)
(1.0004 0.00301386 0)
(1.00569 -0.00298275 0)
(1.00231 -0.0144416 0)
(0.988767 -0.0180395 0)
(0.984242 -0.00540879 0)
(0.991972 -0.00262816 0)
(0.994569 -0.0031381 0)
(0.995373 -0.0038903 0)
(0.997832 -0.00920723 0)
(0.99746 -0.0131423 0)
(0.991569 -0.0123204 0)
(0.988653 -0.0108708 0)
(0.987393 -0.00996654 0)
(0.986903 -0.00740135 0)
(0.985976 -0.00453393 0)
(0.98634 -0.00257658 0)
(0.984994 -9.90752e-05 0)
(0.984886 0.00287444 0)
(0.985996 0.00525862 0)
(0.997118 -0.002336 0)
(1.0004 0.00260479 0)
(1.00528 -0.00295563 0)
(1.00199 -0.0139334 0)
(0.989252 -0.0172726 0)
(0.985009 -0.00564629 0)
(0.992256 -0.00284281 0)
(0.994655 -0.00356031 0)
(0.995186 -0.00413647 0)
(0.99743 -0.00900767 0)
(0.997348 -0.0127759 0)
(0.991763 -0.0119705 0)
(0.988845 -0.0104899 0)
(0.98767 -0.009675 0)
(0.987361 -0.00725323 0)
(0.986407 -0.0043662 0)
(0.986762 -0.00244589 0)
(0.985552 -0.000168745 0)
(0.985489 0.00268379 0)
(0.986484 0.00505365 0)
(0.997228 -0.00218904 0)
(1.00041 0.00220557 0)
(1.00488 -0.00293665 0)
(1.00169 -0.0134137 0)
(0.989742 -0.0165243 0)
(0.985769 -0.00587128 0)
(0.992526 -0.00306231 0)
(0.994736 -0.00395564 0)
(0.995014 -0.00439223 0)
(0.997039 -0.00881214 0)
(0.997232 -0.0124097 0)
(0.99196 -0.0116335 0)
(0.989033 -0.01011 0)
(0.987934 -0.00936391 0)
(0.98782 -0.00710523 0)
(0.986851 -0.00421965 0)
(0.987171 -0.00230305 0)
(0.986093 -0.000227466 0)
(0.986093 0.00246885 0)
(0.986978 0.00482128 0)
(0.997333 -0.0020422 0)
(1.00043 0.00181979 0)
(1.00449 -0.00292628 0)
(1.0014 -0.0128905 0)
(0.990232 -0.0157909 0)
(0.986523 -0.00608099 0)
(0.992788 -0.00328835 0)
(0.994811 -0.00431992 0)
(0.994857 -0.00465034 0)
(0.996659 -0.00862141 0)
(0.997114 -0.0120436 0)
(0.992163 -0.0113085 0)
(0.989222 -0.00972873 0)
(0.988184 -0.00903252 0)
(0.988274 -0.00695626 0)
(0.987308 -0.00409794 0)
(0.98757 -0.00216074 0)
(0.986608 -0.000267169 0)
(0.986693 0.00224226 0)
(0.987486 0.00455024 0)
(0.997435 -0.00189426 0)
(1.00045 0.0014419 0)
(1.00411 -0.00292306 0)
(1.00112 -0.0123619 0)
(0.990718 -0.0150706 0)
(0.987267 -0.00627908 0)
(0.993045 -0.00352707 0)
(0.994883 -0.00464636 0)
(0.994716 -0.00489563 0)
(0.996292 -0.00842839 0)
(0.996992 -0.0116755 0)
(0.992371 -0.0109954 0)
(0.989416 -0.00935183 0)
(0.988421 -0.00868295 0)
(0.988721 -0.0067982 0)
(0.987778 -0.00399555 0)
(0.987962 -0.0020234 0)
(0.987094 -0.000287052 0)
(0.987278 0.00201924 0)
(0.988009 0.0042397 0)
(0.997536 -0.00174807 0)
(1.00048 0.0010779 0)
(1.00375 -0.00292359 0)
(1.00086 -0.0118356 0)
(0.991194 -0.0143713 0)
(0.987999 -0.00646119 0)
(0.993302 -0.00377643 0)
(0.994954 -0.00494366 0)
(0.994592 -0.00512896 0)
(0.995941 -0.00823535 0)
(0.996867 -0.0113113 0)
(0.992584 -0.0106975 0)
(0.98962 -0.00898153 0)
(0.988643 -0.00831117 0)
(0.989158 -0.00662967 0)
(0.988261 -0.00391065 0)
(0.988351 -0.00189527 0)
(0.98755 -0.000294204 0)
(0.987839 0.00180845 0)
(0.988543 0.00389879 0)
(0.997636 -0.00160508 0)
(1.0005 0.000733383 0)
(1.00339 -0.00292456 0)
(1.00061 -0.0113238 0)
(0.991659 -0.01369 0)
(0.988716 -0.006615 0)
(0.993559 -0.00404046 0)
(0.995026 -0.00522011 0)
(0.994489 -0.0053514 0)
(0.995607 -0.00804836 0)
(0.996736 -0.0109546 0)
(0.992803 -0.0104234 0)
(0.989837 -0.00862635 0)
(0.988853 -0.00792183 0)
(0.989578 -0.00644849 0)
(0.988755 -0.00385287 0)
(0.988741 -0.00177797 0)
(0.987974 -0.000280262 0)
(0.988367 0.00161818 0)
(0.989078 0.00354409 0)
(0.997736 -0.00146424 0)
(1.00053 0.000404138 0)
(1.00306 -0.00291833 0)
(1.00037 -0.0108292 0)
(0.992111 -0.0130294 0)
(0.989413 -0.00673858 0)
(0.993814 -0.00430219 0)
(0.995099 -0.00547547 0)
(0.994407 -0.00556171 0)
(0.995293 -0.00786676 0)
(0.996599 -0.0105919 0)
(0.993027 -0.0101695 0)
(0.990073 -0.00829742 0)
(0.989052 -0.00751674 0)
(0.989975 -0.00624722 0)
(0.98926 -0.00381725 0)
(0.98914 -0.00167877 0)
(0.988369 -0.000238932 0)
(0.988852 0.0014607 0)
(0.989598 0.00320471 0)
(0.997835 -0.00132773 0)
(1.00056 9.26346e-05 0)
(1.00274 -0.0029118 0)
(1.00015 -0.0103435 0)
(0.992549 -0.0123977 0)
(0.99009 -0.00681816 0)
(0.994068 -0.00455321 0)
(0.995174 -0.00570972 0)
(0.994347 -0.00575316 0)
(0.995003 -0.007683 0)
(0.996457 -0.0102151 0)
(0.993252 -0.00992763 0)
(0.990331 -0.00800107 0)
(0.989245 -0.00710374 0)
(0.990343 -0.00601931 0)
(0.989769 -0.00379834 0)
(0.989556 -0.00161858 0)
(0.988742 -0.000187108 0)
(0.989292 0.00132916 0)
(0.990085 0.00289485 0)
(0.997933 -0.00119569 0)
(1.00059 -0.000197414 0)
(1.00245 -0.00291527 0)
(0.999945 -0.00985558 0)
(0.992974 -0.0118007 0)
(0.990744 -0.00686977 0)
(0.994318 -0.00479357 0)
(0.995253 -0.00593153 0)
(0.994312 -0.0059317 0)
(0.994741 -0.00749878 0)
(0.996309 -0.00982741 0)
(0.993474 -0.00969242 0)
(0.990615 -0.00774416 0)
(0.989439 -0.00670186 0)
(0.990676 -0.00575585 0)
(0.990274 -0.00379242 0)
(0.989994 -0.00159795 0)
(0.989102 -0.000134317 0)
(0.989689 0.00122274 0)
(0.990529 0.00261659 0)
(0.99803 -0.00107465 0)
(1.00062 -0.000458496 0)
(1.00218 -0.00293231 0)
(0.999753 -0.00936466 0)
(0.993383 -0.0112451 0)
(0.991375 -0.00690884 0)
(0.994564 -0.00500879 0)
(0.995336 -0.00613602 0)
(0.994303 -0.00609787 0)
(0.994509 -0.00732424 0)
(0.996156 -0.00943324 0)
(0.993691 -0.00945128 0)
(0.990927 -0.00752378 0)
(0.989644 -0.00632304 0)
(0.990974 -0.00546969 0)
(0.990764 -0.00378396 0)
(0.990459 -0.00162767 0)
(0.989459 -8.2546e-05 0)
(0.990044 0.00115265 0)
(0.990922 0.00237007 0)
(0.998126 -0.000959335 0)
(1.00065 -0.000699626 0)
(1.00193 -0.00296435 0)
(0.999575 -0.00886578 0)
(0.993776 -0.0107252 0)
(0.991986 -0.0069365 0)
(0.994806 -0.00519026 0)
(0.995424 -0.00631316 0)
(0.994321 -0.00625881 0)
(0.994311 -0.00716516 0)
(0.996001 -0.00903527 0)
(0.9939 -0.00919928 0)
(0.991266 -0.00732993 0)
(0.989866 -0.00597387 0)
(0.991236 -0.00516825 0)
(0.991226 -0.00375556 0)
(0.990953 -0.00170853 0)
(0.989832 -5.61677e-05 0)
(0.99036 0.00112036 0)
(0.991256 0.0021644 0)
(0.998221 -0.000854144 0)
(1.00068 -0.000910892 0)
(1.0017 -0.0030196 0)
(0.999412 -0.00835167 0)
(0.994148 -0.010228 0)
(0.992578 -0.00696714 0)
(0.995047 -0.00534409 0)
(0.995514 -0.00645703 0)
(0.994366 -0.00641301 0)
(0.994152 -0.0070184 0)
(0.995844 -0.00862855 0)
(0.994096 -0.00892861 0)
(0.991631 -0.00715641 0)
(0.990113 -0.00566552 0)
(0.991469 -0.00486367 0)
(0.991649 -0.00369559 0)
(0.991466 -0.00182185 0)
(0.99024 -8.35051e-05 0)
(0.990655 0.00111088 0)
(0.991536 0.00199997 0)
(0.998314 -0.000765204 0)
(1.00071 -0.00107845 0)
(1.00151 -0.00310117 0)
(0.999268 -0.00783643 0)
(0.994496 -0.00973944 0)
(0.993151 -0.00700401 0)
(0.995289 -0.00547126 0)
(0.995607 -0.00655755 0)
(0.99444 -0.00654389 0)
(0.994038 -0.00689094 0)
(0.995692 -0.00822488 0)
(0.994273 -0.00862681 0)
(0.992017 -0.00699419 0)
(0.99039 -0.00540378 0)
(0.991684 -0.00457515 0)
(0.992027 -0.0036018 0)
(0.991984 -0.00194883 0)
(0.990692 -0.000176497 0)
(0.990947 0.00109528 0)
(0.99177 0.00185961 0)
(0.998405 -0.000687554 0)
(1.00073 -0.00121023 0)
(1.00134 -0.00319999 0)
(0.999145 -0.0073371 0)
(0.994816 -0.00924378 0)
(0.993702 -0.00704866 0)
(0.995535 -0.00558308 0)
(0.995702 -0.00660569 0)
(0.994537 -0.00663901 0)
(0.993974 -0.00678562 0)
(0.995553 -0.00784093 0)
(0.994431 -0.00829822 0)
(0.992416 -0.00683479 0)
(0.990702 -0.00518906 0)
(0.991892 -0.00431134 0)
(0.99236 -0.00348267 0)
(0.992489 -0.00205785 0)
(0.991191 -0.000336107 0)
(0.991253 0.00104849 0)
(0.991967 0.00174417 0)
(0.998494 -0.000625716 0)
(1.00074 -0.00130335 0)
(1.0012 -0.00330443 0)
(0.999048 -0.00687379 0)
(0.995104 -0.00872835 0)
(0.994229 -0.00708643 0)
(0.995792 -0.00569285 0)
(0.995803 -0.00659386 0)
(0.994652 -0.00669166 0)
(0.993956 -0.00669733 0)
(0.995438 -0.00748375 0)
(0.99457 -0.0079474 0)
(0.992818 -0.00666595 0)
(0.991046 -0.00501495 0)
(0.992103 -0.00408273 0)
(0.992654 -0.00335896 0)
(0.992963 -0.00213928 0)
(0.991725 -0.000543152 0)
(0.991599 0.000942985 0)
(0.99214 0.00165089 0)
(0.998582 -0.000579413 0)
(1.00075 -0.00136185 0)
(1.00108 -0.00340193 0)
(0.998981 -0.00646787 0)
(0.995363 -0.00818123 0)
(0.994724 -0.0070959 0)
(0.996062 -0.00580796 0)
(0.995911 -0.00653871 0)
(0.994778 -0.00668934 0)
(0.993985 -0.00662101 0)
(0.995355 -0.00716474 0)
(0.994698 -0.00759125 0)
(0.993214 -0.0064911 0)
(0.991417 -0.00487376 0)
(0.992323 -0.00387907 0)
(0.992918 -0.00322902 0)
(0.9934 -0.00218433 0)
(0.992279 -0.000762439 0)
(0.992 0.000766517 0)
(0.992307 0.00156037 0)
(0.998667 -0.000547684 0)
(1.00074 -0.00138883 0)
(1.00098 -0.00349084 0)
(0.998949 -0.00612595 0)
(0.995594 -0.00760945 0)
(0.995178 -0.0070561 0)
(0.996345 -0.00594228 0)
(0.996036 -0.00646548 0)
(0.994911 -0.00660704 0)
(0.994049 -0.00653196 0)
(0.995308 -0.00688629 0)
(0.99482 -0.00724789 0)
(0.9936 -0.00631388 0)
(0.991817 -0.0047637 0)
(0.992562 -0.00370726 0)
(0.993159 -0.00309996 0)
(0.993792 -0.00219769 0)
(0.992826 -0.000973328 0)
(0.99246 0.000523062 0)
(0.992498 0.001442 0)
(0.998749 -0.000529759 0)
(1.00073 -0.00139003 0)
(1.00089 -0.00356294 0)
(0.998954 -0.00584819 0)
(0.995804 -0.0070402 0)
(0.995582 -0.00695431 0)
(0.996635 -0.00608536 0)
(0.99619 -0.00638969 0)
(0.995051 -0.00646178 0)
(0.994134 -0.00641436 0)
(0.995294 -0.00663711 0)
(0.994942 -0.00692678 0)
(0.993975 -0.00612325 0)
(0.992236 -0.00466897 0)
(0.992822 -0.00356111 0)
(0.993388 -0.0029782 0)
(0.994139 -0.00218741 0)
(0.993347 -0.00114766 0)
(0.992971 0.000236176 0)
(0.992744 0.00126784 0)
(0.998828 -0.000524778 0)
(1.0007 -0.00136996 0)
(1.00081 -0.00361028 0)
(0.998997 -0.00562956 0)
(0.996001 -0.00649998 0)
(0.995932 -0.00678295 0)
(0.996928 -0.00621003 0)
(0.996378 -0.00634485 0)
(0.995203 -0.00627862 0)
(0.994234 -0.00624602 0)
(0.995306 -0.00639914 0)
(0.995067 -0.00663811 0)
(0.994339 -0.00593354 0)
(0.992673 -0.00458717 0)
(0.993106 -0.00343963 0)
(0.993609 -0.00286316 0)
(0.99445 -0.00216029 0)
(0.993821 -0.00127156 0)
(0.993504 -4.84546e-05 0)
(0.993064 0.00103049 0)
(0.998903 -0.000528954 0)
(1.00067 -0.00133714 0)
(1.00073 -0.00362708 0)
(0.999073 -0.00546202 0)
(0.996193 -0.00601431 0)
(0.996226 -0.0065203 0)
(0.997206 -0.00628353 0)
(0.996604 -0.00636016 0)
(0.995382 -0.00608902 0)
(0.994344 -0.00602645 0)
(0.99533 -0.00614952 0)
(0.995193 -0.00635907 0)
(0.994691 -0.00574452 0)
(0.993123 -0.00451347 0)
(0.993418 -0.00334455 0)
(0.993832 -0.00275695 0)
(0.994732 -0.00213026 0)
(0.994249 -0.0013623 0)
(0.994027 -0.000302564 0)
(0.993451 0.000742764 0)
(0.998974 -0.000538655 0)
(1.00063 -0.00130366 0)
(1.00064 -0.00360378 0)
(0.999178 -0.00533676 0)
(0.996392 -0.00559492 0)
(0.99647 -0.0061888 0)
(0.997449 -0.00627717 0)
(0.996859 -0.00640909 0)
(0.995599 -0.00592452 0)
(0.994468 -0.00577342 0)
(0.995363 -0.00587181 0)
(0.995315 -0.00608271 0)
(0.995026 -0.00555713 0)
(0.993581 -0.0044485 0)
(0.993757 -0.00327077 0)
(0.994058 -0.00265964 0)
(0.99499 -0.00209292 0)
(0.994632 -0.00142477 0)
(0.994519 -0.000513996 0)
(0.993886 0.000437213 0)
(0.99904 -0.000549975 0)
(1.00058 -0.00127786 0)
(1.00055 -0.00353194 0)
(0.999303 -0.0052464 0)
(0.996606 -0.00524076 0)
(0.996674 -0.00583279 0)
(0.997647 -0.00617312 0)
(0.99713 -0.00644853 0)
(0.995865 -0.00582671 0)
(0.994615 -0.00551099 0)
(0.995395 -0.00556611 0)
(0.995423 -0.00580234 0)
(0.995339 -0.00536795 0)
(0.994041 -0.00439226 0)
(0.994127 -0.00322729 0)
(0.994296 -0.00257683 0)
(0.99523 -0.00205041 0)
(0.994974 -0.00146916 0)
(0.994962 -0.000679375 0)
(0.994337 0.000148528 0)
(0.999099 -0.000556595 0)
(1.00054 -0.0012691 0)
(1.00044 -0.0034134 0)
(0.99944 -0.0051722 0)
(0.996839 -0.00495134 0)
(0.996851 -0.00547119 0)
(0.997794 -0.00596448 0)
(0.997391 -0.00644213 0)
(0.996175 -0.00580531 0)
(0.994804 -0.00528439 0)
(0.995432 -0.0052423 0)
(0.995514 -0.0055028 0)
(0.99562 -0.00516214 0)
(0.99449 -0.00432929 0)
(0.994523 -0.00321212 0)
(0.994554 -0.00251337 0)
(0.995455 -0.00200446 0)
(0.995284 -0.00150235 0)
(0.995359 -0.000804997 0)
(0.994776 -9.49557e-05 0)
(0.99915 -0.00055663 0)
(1.00049 -0.00127461 0)
(1.00032 -0.00325549 0)
(0.999578 -0.0050955 0)
(0.997095 -0.00473443 0)
(0.997016 -0.00512312 0)
(0.997892 -0.00568077 0)
(0.997615 -0.00635181 0)
(0.996516 -0.0058137 0)
(0.995048 -0.00513193 0)
(0.995483 -0.0049208 0)
(0.995582 -0.00518481 0)
(0.995864 -0.00494142 0)
(0.994912 -0.00425059 0)
(0.994937 -0.00321373 0)
(0.99484 -0.00248134 0)
(0.995673 -0.00195776 0)
(0.995565 -0.0015209 0)
(0.995716 -0.000904663 0)
(0.995181 -0.000293854 0)
(0.999195 -0.000547013 0)
(1.00046 -0.0012981 0)
(1.00019 -0.00306076 0)
(0.999707 -0.00499458 0)
(0.997374 -0.00458032 0)
(0.997184 -0.004802 0)
(0.997952 -0.00537307 0)
(0.997791 -0.00617143 0)
(0.99686 -0.00580475 0)
(0.995351 -0.00506805 0)
(0.995571 -0.00463866 0)
(0.995632 -0.00484833 0)
(0.996065 -0.00469708 0)
(0.995298 -0.00415122 0)
(0.995353 -0.00321407 0)
(0.995154 -0.00248256 0)
(0.995895 -0.00192748 0)
(0.995817 -0.00152844 0)
(0.996033 -0.000990037 0)
(0.995545 -0.000458796 0)
(0.999233 -0.000525597 0)
(1.00043 -0.00132956 0)
(1.00006 -0.00284263 0)
(0.999816 -0.00484244 0)
(0.997669 -0.00447975 0)
(0.997361 -0.00452825 0)
(0.997984 -0.00505704 0)
(0.997917 -0.00591917 0)
(0.997177 -0.0057358 0)
(0.995699 -0.00505553 0)
(0.995716 -0.00443133 0)
(0.995679 -0.00451949 0)
(0.996218 -0.0044244 0)
(0.995637 -0.00402801 0)
(0.995754 -0.00320742 0)
(0.995487 -0.00249909 0)
(0.996132 -0.00192392 0)
(0.996049 -0.00152714 0)
(0.996313 -0.00105639 0)
(0.995868 -0.000589329 0)
(0.999265 -0.000494671 0)
(1.00042 -0.00135892 0)
(0.99993 -0.00262273 0)
(0.999896 -0.00462248 0)
(0.997968 -0.00440785 0)
(0.997559 -0.00433518 0)
(0.998005 -0.00474628 0)
(0.997997 -0.00562641 0)
(0.997448 -0.00559395 0)
(0.996063 -0.00504671 0)
(0.995921 -0.00430874 0)
(0.995744 -0.00423127 0)
(0.996328 -0.00413563 0)
(0.995914 -0.00386599 0)
(0.996126 -0.00318619 0)
(0.995826 -0.00252054 0)
(0.996385 -0.00194313 0)
(0.996274 -0.00153635 0)
(0.99656 -0.00110693 0)
(0.996148 -0.000699587 0)
(0.999291 -0.000457183 0)
(1.00041 -0.0013851 0)
(0.999817 -0.0024206 0)
(0.999947 -0.00434784 0)
(0.99825 -0.00432291 0)
(0.997777 -0.00421778 0)
(0.99803 -0.00445929 0)
(0.998043 -0.00531889 0)
(0.997667 -0.00538483 0)
(0.996417 -0.00500248 0)
(0.996178 -0.00423968 0)
(0.99585 -0.00400505 0)
(0.996416 -0.00385869 0)
(0.996128 -0.00366885 0)
(0.99645 -0.00313448 0)
(0.996159 -0.00254038 0)
(0.996648 -0.00197132 0)
(0.9965 -0.00156758 0)
(0.996783 -0.00115054 0)
(0.996391 -0.000790897 0)
(0.999313 -0.000412507 0)
(1.00041 -0.00140146 0)
(0.999723 -0.00224762 0)
(0.999971 -0.00404662 0)
(0.998502 -0.00420131 0)
(0.998013 -0.00413514 0)