/*--------------------------------*- C++ -*----------------------------------*\
| =========                 |                                                 |
| \\      /  F ield         | OpenFOAM: The Open Source CFD Toolbox           |
|  \\    /   O peration     | Version:  v1906                                 |
|   \\  /    A nd           | Web:      www.OpenFOAM.com                      |
|    \\/     M anipulation  |                                                 |
\*---------------------------------------------------------------------------*/
FoamFile
{
    version     2.0;
    format      ascii;
    class       volScalarField;
    location    "7";
    object      p;
}
// * * * * * * * * * * * * * * * * * * * * * * * * * * * * * * * * * * * * * //

dimensions      [0 2 -2 0 0 0 0];


internalField   nonuniform List<scalar> 
9600
(
-2.64535e-10
-0.000280499
-0.000717305
-0.00033356
0.000829706
0.000296982
0.000534097
-0.000438599
0.00193985
0.00238206
0.00377659
0.00419902
0.00780446
0.00868896
0.0138781
0.0131814
0.0154242
0.015798
0.0190197
0.0229858
-6.45531e-06
-0.000272784
-0.000715088
-0.000330272
0.000826955
0.000281964
0.000530582
-0.000442095
0.00193975
0.00239604
0.0037857
0.00419046
0.00781987
0.00864391
0.0138831
0.0130348
0.0154313
0.0156366
0.0190738
0.0224291
-1.33439e-05
-0.000264358
-0.000712824
-0.000327885
0.000816968
0.000268454
0.000526451
-0.000442074
0.00194183
0.00240829
0.00379349
0.00418138
0.00783667
0.00858068
0.0138779
0.0129008
0.0154227
0.0154851
0.0190927
0.0217295
-2.01613e-05
-0.000256028
-0.000710586
-0.00032795
0.000806875
0.00025775
0.00052451
-0.00043835
0.00194362
0.00241961
0.00380325
0.00417516
0.0078467
0.008503
0.0138517
0.0127433
0.0153912
0.0153655
0.0190244
0.0211747
-2.73563e-05
-0.00024727
-0.000707669
-0.00032856
0.000798866
0.000247936
0.000526277
-0.000429728
0.00194452
0.00243138
0.00381486
0.00417296
0.00785294
0.00841271
0.0138217
0.0125881
0.0153612
0.0152567
0.0189097
0.0207083
-3.49576e-05
-0.000237844
-0.000703298
-0.00032823
0.000792233
0.000238343
0.000532521
-0.000415806
0.00194447
0.00244403
0.00382787
0.00417694
0.00785864
0.00831552
0.0137934
0.0124456
0.0153266
0.0151587
0.0187621
0.0202785
-4.28595e-05
-0.000227742
-0.00069692
-0.000326241
0.000787017
0.000229041
0.000543664
-0.000396343
0.0019436
0.00245763
0.00384217
0.00418808
0.00786557
0.00821224
0.013764
0.0123122
0.015271
0.0150785
0.0185645
0.0198674
-5.09976e-05
-0.000217017
-0.000688337
-0.000322259
0.000783796
0.000220599
0.000559888
-0.000371194
0.00194204
0.00247229
0.00385719
0.00420565
0.0078735
0.00810297
0.0137297
0.0121894
0.0151901
0.0150149
0.0183101
0.0194766
-5.93704e-05
-0.000205745
-0.000677763
-0.000316512
0.000782832
0.00021386
0.000581306
-0.000340394
0.00193983
0.00248816
0.00387204
0.00422714
0.0078812
0.00798876
0.0136852
0.0120815
0.0150803
0.014964
0.0180031
0.0190955
-6.80115e-05
-0.000193987
-0.000665757
-0.00030969
0.000784006
0.000209574
0.000607792
-0.000304384
0.001937
0.00250563
0.00388595
0.00424955
0.00788695
0.00787114
0.0136251
0.0119919
0.0149369
0.0149192
0.0176476
0.0187146
-7.69573e-05
-0.000181773
-0.000652938
-0.000302489
0.000786932
0.000207969
0.000638729
-0.000264239
0.0019335
0.00252509
0.00389874
0.00427095
0.0078885
0.00775268
0.0135446
0.0119218
0.0147568
0.0148771
0.0172485
0.018325
-8.62268e-05
-0.000169102
-0.000639747
-0.0002953
0.000791027
0.000208568
0.000673017
-0.000221601
0.00192929
0.00254663
0.00391056
0.00429184
0.00788359
0.00763748
0.0134395
0.0118693
0.0145399
0.0148315
0.0168146
0.0179162
-9.58247e-05
-0.000155952
-0.000626385
-0.000288249
0.000795626
0.000210476
0.000709429
-0.000178227
0.00192435
0.00257002
0.00392114
0.00431512
0.00787013
0.00753042
0.013308
0.0118301
0.0142884
0.0147745
0.0163568
0.0174805
-0.000105758
-0.000142284
-0.000612849
-0.000281381
0.000800252
0.000212864
0.000746899
-0.000135459
0.00191852
0.00259495
0.00392981
0.00434463
0.00784625
0.00743615
0.0131513
0.0117987
0.0140061
0.0146981
0.0158857
0.0170134
-0.000116035
-0.000128049
-0.000599049
-0.000274721
0.000804783
0.000215202
0.000784632
-9.39412e-05
0.00191162
0.00262124
0.00393572
0.00438312
0.00781062
0.00735809
0.0129716
0.0117697
0.0136979
0.0145956
0.0154113
0.0165143
-0.000126662
-0.000113219
-0.000584873
-0.000268276
0.000809232
0.000217236
0.000821865
-5.36799e-05
0.00190346
0.00264905
0.00393806
0.00443109
0.00776317
0.00729703
0.0127709
0.0117384
0.0133693
0.0144613
0.0149422
0.0159867
-0.000137638
-9.78127e-05
-0.000570187
-0.000262133
0.000813611
0.000219012
0.000857915
-1.42726e-05
0.00189377
0.00267878
0.00393619
0.00448703
0.00770453
0.00725093
0.0125511
0.0117014
0.0130251
0.0142898
0.0144861
0.0154352
-0.000148946
-8.18813e-05
-0.000554868
-0.000256467
0.000818019
0.000220755
0.000892474
2.48536e-05
0.00188216
0.00271084
0.00392986
0.00454844
0.00763531
0.00721593
0.0123141
0.0116561
0.0126693
0.0140782
0.0140487
0.0148641
-0.000160562
-6.55093e-05
-0.0005388
-0.00025146
0.000822609
0.000222734
0.000925185
6.4258e-05
0.00186821
0.0027455
0.00391902
0.00461261
0.00755674
0.00718707
0.0120618
0.0116
0.0123058
0.0138261
0.0136325
0.0142787
-0.000172442
-4.8821e-05
-0.000521874
-0.00024727
0.000827516
0.000225221
0.000955632
0.000104426
0.00185147
0.00278281
0.00390385
0.00467697
0.00747037
0.00716093
0.0117965
0.0115308
0.0119378
0.0135336
0.0132369
0.0136848
-0.000184522
-3.19636e-05
-0.000503975
-0.00024405
0.000832813
0.000228503
0.000983382
0.000145827
0.00183148
0.00282267
0.00388456
0.00473909
0.0073779
0.0071305
0.0115209
0.0114459
0.0115676
0.0132022
0.0128605
0.0130885
-0.000196732
-1.5111e-05
-0.000484965
-0.000241947
0.000838514
0.000232905
0.00100791
0.000188891
0.00180779
0.00286478
0.00386162
0.00479619
0.00728161
0.00709007
0.011236
0.0113436
0.0111973
0.0128339
0.0125009
0.0124965
-0.000208979
1.537e-06
-0.000464717
-0.00024106
0.000844552
0.000238797
0.00102871
0.000233859
0.00178024
0.00290855
0.0038358
0.00484549
0.00718382
0.00703972
0.0109421
0.0112226
0.0108285
0.0124302
0.0121551
0.0119163
-0.000221139
1.77629e-05
-0.000443126
-0.00024145
0.000850787
0.000246565
0.00104531
0.000280815
0.00174879
0.0029532
0.00380827
0.0048845
0.00708629
0.00697794
0.0106394
0.0110825
0.0104616
0.0119926
0.0118192
0.0113562
-0.000233076
3.33222e-05
-0.000420103
-0.000243119
0.000856968
0.000256639
0.0010573
0.00032974
0.00171344
0.00299753
0.00378078
0.00491065
0.00698975
0.00690394
0.0103277
0.0109235
0.0100988
0.0115224
0.0114879
0.0108241
-0.000244641
4.79513e-05
-0.000395604
-0.000245983
0.000862717
0.000269491
0.00106431
0.000380441
0.00167445
0.0030401
0.00375512
0.00492165
0.00689393
0.00681918
0.0100063
0.0107451
0.00974265
0.0110217
0.011155
0.0103284
-0.000255671
6.14065e-05
-0.00036964
-0.000249931
0.000867682
0.000285547
0.00106613
0.000432506
0.00163226
0.00307925
0.00373284
0.00491616
0.00679812
0.00672553
0.00967425
0.0105453
0.00939648
0.0104935
0.0108119
0.00987697
-0.000266001
7.34376e-05
-0.000342256
-0.000254763
0.000871347
0.000305207
0.00106287
0.000485235
0.00158757
0.00311317
0.00371517
0.00489349
0.00670101
0.00662431
0.00933061
0.0103229
0.0090634
0.00994249
0.0104475
0.0094737
-0.000275452
8.3788e-05
-0.000313564
-0.000260167
0.000873087
0.000328792
0.00105487
0.000537784
0.00154117
0.00314005
0.00370281
0.00485371
0.00660018
0.00651742
0.00897581
0.0100755
0.00874577
0.00937602
0.0100505
0.00911695
-0.000283853
9.22932e-05
-0.000283795
-0.00026584
0.000872367
0.00035653
0.00104255
0.00058928
0.00149397
0.00315792
0.00369604
0.00479781
0.00649231
0.00640718
0.00861103
0.00979875
0.00844533
0.00880503
0.00961222
0.00879804
-0.000291052
9.88472e-05
-0.000253262
-0.00027144
0.000868709
0.000388447
0.00102643
0.000638748
0.00144705
0.00316491
0.00369438
0.00472715
0.00637415
0.00629532
0.00823814
0.00948978
0.008161
0.00824095
0.0091285
0.00850099
-0.000296921
0.00010339
-0.00022231
-0.000276603
0.000861714
0.000424254
0.0010071
0.000685193
0.00140142
0.0031596
0.00369646
0.00464348
0.00624277
0.0061822
0.00786047
0.00914691
0.00788767
0.00769554
0.00860159
0.00820535
-0.000301379
0.000105949
-0.000191246
-0.000281092
0.000851023
0.000463542
0.000985276
0.000727524
0.00135779
0.00314101
0.00370049
0.00454895
0.0060953
0.00606659
0.00748247
0.00877002
0.00761777
0.00718022
0.00803915
0.00788841
-0.000304357
0.000106594
-0.000160364
-0.000284723
0.00083634
0.000505922
0.000961783
0.000764595
0.00131672
0.00310841
0.00370439
0.00444575
0.00592923
0.00594646
0.00710936
0.00836153
0.00734218
0.00670119
0.00745334
0.00753194
-0.00030582
0.000105414
-0.000129964
-0.000287234
0.000817353
0.000550713
0.000937619
0.000795458
0.00127858
0.00306147
0.00370512
0.00433617
0.00574333
0.00581845
0.00674571
0.0079263
0.00705197
0.00625836
0.00686095
0.00712613
-0.000305787
0.000102487
-0.000100293
-0.000288332
0.000793841
0.000596962
0.000913781
0.000819362
0.00124325
0.00300038
0.00369952
0.00422242
0.00553761
0.00567813
0.00639439
0.00747081
0.00674032
0.00584812
0.0062795
0.00667044
-0.000304261
9.78624e-05
-7.15773e-05
-0.000287807
0.000765741
0.000643798
0.000891041
0.00083533
0.00121038
0.00292586
0.00368461
0.00410614
0.00531278
0.00552099
0.00605711
0.00700224
0.00640318
0.00546229
0.00572189
0.00617634
-0.000301237
9.1523e-05
-4.39811e-05
-0.000285288
0.000732863
0.000690266
0.000870433
0.000842235
0.00117898
0.00283919
0.00365724
0.00398839
0.00507025
0.00534242
0.00573349
0.00652867
0.0060395
0.00509035
0.00519456
0.00565985
-0.000296628
8.33806e-05
-1.78498e-05
-0.000280212
0.000695001
0.000734939
0.000853414
0.000839964
0.00114716
0.00274154
0.00361468
0.00386901
0.00481099
0.00513894
0.0054207
0.00605678
0.00565163
0.00472524
0.0046963
0.0051355
-0.000290319
7.34091e-05
6.28092e-06
-0.000271969
0.000652267
0.000775928
0.000841378
0.000829706
0.00111279
0.00263317
0.00355488
0.00374737
0.00450493
0.00490821
0.00511443
0.00559166
0.00524419
0.00436204
0.00422169
0.00461581
-0.000282305
6.16685e-05
2.79096e-05
-0.000260029
0.000605312
0.000810593
0.00083451
0.000812983
0.00107408
0.00251435
0.00347625
0.00362425
0.00423251
0.00465035
0.00480939
0.00513819
0.00482209
0.00399563
0.00376779
0.0041069
-0.000272631
4.82824e-05
4.63913e-05
-0.000244093
0.000555275
0.000836486
0.000831857
0.00079156
0.00103047
0.0023855
0.00337655
0.00349839
0.00395732
0.00436562
0.00450023
0.00469986
0.00439094
0.003622
0.0033317
0.00361071
-0.000261532
3.36947e-05
6.09576e-05
-0.000224418
0.000503659
0.000852035
0.000832335
0.000767673
0.000982184
0.00224611
0.00325378
0.00336711
0.00368305
0.00405799
0.00418201
0.0042765
0.00395651
0.00323984
0.00290875
0.00312856
-0.000249374
1.86767e-05
7.07733e-05
-0.000201605
0.000452731
0.000856132
0.000833267
0.000742412
0.00092976
0.00209647
0.00310656
0.00322692
0.00341336
0.00373328
0.00385155
0.00386533
0.00352356
0.0028501
0.00249368
0.00265985
-0.000236668
4.17662e-06
7.53756e-05
-0.000176918
0.000404901
0.000848537
0.000830814
0.00071487
0.000873643
0.0019386
0.00293439
0.00307347
0.00315002
0.00339879
0.00350847
0.00346205
0.00309544
0.00245574
0.00208249
0.00220167
-0.000224127
-8.90675e-06
7.50111e-05
-0.000153306
0.000361536
0.000830574
0.000821566
0.000683258
0.000813464
0.00177498
0.00273965
0.00290268
0.00289269
0.00306157
0.00315434
0.00306306
0.00267313
0.00205931
0.00167468
0.00175042
-0.000212224
-2.0091e-05
7.03591e-05
-0.000133837
0.000322737
0.000805472
0.000803559
0.000645027
0.000748158
0.00160795
0.00252585
0.00271265
0.00263864
0.00272535
0.00279252
0.00266794
0.00225619
0.00166024
0.0012715
0.00130666
-0.000201332
-2.92621e-05
6.25584e-05
-0.00012074
0.000287406
0.000775766
0.000777109
0.000597454
0.000675499
0.00143952
0.00229735
0.00250277
0.00238439
0.00239202
0.00242556
0.00227593
0.00184579
0.00125866
0.000871205
0.000874451
-0.000191687
-3.67714e-05
5.31912e-05
-0.000115412
0.000252405
0.000743205
0.000743258
0.00053863
0.000592445
0.0012707
0.0020602
0.00227418
0.0021271
0.00206294
0.00205505
0.00188473
0.00144399
0.000858762
0.000469307
0.000453149
-0.000183243
-4.34084e-05
4.35233e-05
-0.000118062
0.000213441
0.000708133
0.000704839
0.00046955
0.000496527
0.00110052
0.00181984
0.00202982
0.0018631
0.00173684
0.00168396
0.00149318
0.00104941
0.00046656
6.63731e-05
3.69205e-05
-0.000175967
-5.00105e-05
3.41569e-05
-0.000127742
0.000166833
0.000668637
0.000664728
0.000392891
0.000386205
0.00092597
0.00157929
0.00177478
0.00159013
0.00141091
0.00131366
0.00110165
0.000658396
8.53135e-05
-0.000330819
-0.000379155
-0.000169763
-5.7507e-05
2.56281e-05
-0.000142414
0.000110051
0.000620326
0.000623696
0.000311652
0.000262416
0.000743912
0.00133849
0.00151472
0.00131217
0.00108495
0.000943042
0.000711325
0.000268555
-0.000289163
-0.000715722
-0.000791956
-0.000164234
-6.68956e-05
1.77682e-05
-0.000159061
4.20915e-05
0.000557013
0.000580045
0.000230909
0.000129091
0.000550025
0.00109445
0.00125307
0.00103394
0.000761415
0.000571185
0.000321342
-0.00011889
-0.000661753
-0.00108759
-0.00119357
-0.000158274
-7.87125e-05
8.83054e-06
-0.000175195
-3.61765e-05
0.000473238
0.000529512
0.000156848
-8.99069e-06
0.000343516
0.000843785
0.000989873
0.000757748
0.000442963
0.00020156
-7.02953e-05
-0.000503975
-0.00103256
-0.00145059
-0.00157975
-0.000151506
-9.25927e-05
-4.77988e-06
-0.000190309
-0.000122263
0.000365547
0.000467473
9.12059e-05
-0.000144298
0.000127897
0.000581294
0.000723446
0.000485006
0.000132992
-0.000159946
-0.000461503
-0.00088959
-0.00140193
-0.00180951
-0.00195021
-0.000144891
-0.00010877
-2.24888e-05
-0.000204228
-0.000213304
0.000233018
0.000385719
3.10114e-05
-0.000267872
-9.22167e-05
0.00030478
0.000448041
0.000214492
-0.000166485
-0.000509408
-0.000847358
-0.00127656
-0.0017714
-0.00216745
-0.00230894
-0.000136409
-0.000127921
-4.75297e-05
-0.000219796
-0.000304234
8.00038e-05
0.000292576
-2.65282e-05
-0.000376867
-0.000309199
1.76654e-05
0.000157721
-5.81708e-05
-0.000455486
-0.000843816
-0.00122185
-0.00166069
-0.00214093
-0.00252558
-0.00266313
-0.000125474
-0.000142591
-9.76988e-05
-0.000245168
-0.000388388
-8.55441e-05
0.000158375
-8.70511e-05
-0.000473636
-0.000515323
-0.000276187
-0.0001435
-0.000339314
-0.000737304
-0.00116115
-0.00157866
-0.00203516
-0.0025084
-0.0028839
-0.00301819
-0.000120094
-0.000165318
-0.000146124
-0.000274353
-0.000462708
-0.000256094
-4.17382e-06
-0.000166682
-0.000561336
-0.000705708
-0.00056983
-0.000465932
-0.000634392
-0.00101813
-0.00146243
-0.00191394
-0.00239467
-0.00287012
-0.0032392
-0.00337423
-0.000119429
-0.00018635
-0.000204623
-0.000314986
-0.000527855
-0.000421493
-0.000191825
-0.000278931
-0.000645263
-0.000876369
-0.000851615
-0.000794216
-0.000944352
-0.0013036
-0.00175324
-0.00222837
-0.00273246
-0.00322075
-0.00358795
-0.00372607
-0.0001237
-0.00021171
-0.000270133
-0.000369016
-0.000587033
-0.000573831
-0.000395849
-0.00042298
-0.000738157
-0.00102995
-0.00111225
-0.00111913
-0.0012674
-0.0015988
-0.00203972
-0.00252648
-0.00304577
-0.00355243
-0.0039277
-0.00407013
-0.000136696
-0.000237132
-0.00033742
-0.000435693
-0.000647814
-0.000710572
-0.000605008
-0.000597802
-0.000853248
-0.00117039
-0.00134821
-0.00143151
-0.00159657
-0.001906
-0.0023271
-0.00281424
-0.0033383
-0.00385862
-0.00425358
-0.00440399
-0.000157662
-0.000280136
-0.000406867
-0.000514564
-0.000715948
-0.000833068
-0.000808067
-0.000798149
-0.000994529
-0.00130423
-0.00155891
-0.00172333
-0.00192049
-0.00222075
-0.00261931
-0.00309624
-0.00361722
-0.00413839
-0.00455586
-0.00472505
-0.000185586
-0.000315449
-0.000480214
-0.000604509
-0.000795097
-0.000945925
-0.000997595
-0.00101224
-0.00116379
-0.00144975
-0.00174927
-0.00199119
-0.00223165
-0.00253511
-0.002916
-0.00337431
-0.00388825
-0.00439995
-0.00482981
-0.00502695
-0.000222965
-0.000362147
-0.000552333
-0.000700868
-0.000887205
-0.00105622
-0.00117223
-0.00122802
-0.00135776
-0.001609
-0.00192554
-0.00223169
-0.00252368
-0.00284028
-0.00321166
-0.00364897
-0.00415074
-0.004651
-0.00507825
-0.00530199
-0.000267996
-0.000411203
-0.000628791
-0.000803764
-0.000991841
-0.00116933
-0.00133355
-0.00143715
-0.0015671
-0.0017859
-0.00209643
-0.00244435
-0.00278883
-0.00313007
-0.00350018
-0.00391944
-0.00440272
-0.00489203
-0.00530734
-0.00554504
-0.000323004
-0.000474401
-0.000705563
-0.000906707
-0.00110686
-0.00128987
-0.00148571
-0.0016342
-0.0017817
-0.00197812
-0.00226929
-0.00263542
-0.00302125
-0.0033957
-0.00377432
-0.00418157
-0.00464526
-0.00512202
-0.00552307
-0.00576242
-0.000385091
-0.000541401
-0.000790489
-0.00101456
-0.00122958
-0.00141827
-0.00163358
-0.00181784
-0.00199175
-0.0021799
-0.00244676
-0.00281408
-0.00322389
-0.0036263
-0.00402191
-0.00442588
-0.00487184
-0.00533409
-0.00571997
-0.00596115
-0.000455277
-0.000617533
-0.000881681
-0.00112369
-0.00135698
-0.00155478
-0.00178214
-0.00199158
-0.00219124
-0.00238182
-0.00262681
-0.002982
-0.00340146
-0.00382159
-0.00423523
-0.00464264
-0.00507904
-0.00553426
-0.0059339
-0.00615639
-0.000538331
-0.000708379
-0.000974591
-0.00122979
-0.00148717
-0.00169899
-0.00193359
-0.00215859
-0.00237886
-0.0025785
-0.00280798
-0.00313952
-0.00355373
-0.0039801
-0.00439919
-0.00480646
-0.00524157
-0.00568677
-0.00607579
-0.00630799
-0.000625629
-0.00079815
-0.00108099
-0.00134962
-0.00162041
-0.00184467
-0.00208586
-0.00232255
-0.00255686
-0.00276361
-0.00298246
-0.00328495
-0.00368047
-0.00410651
-0.00453767
-0.00498581
-0.00540069
-0.00582468
-0.00620425
-0.00644199
-0.000723497
-0.00090133
-0.00119354
-0.00147057
-0.00175526
-0.00199501
-0.00223996
-0.00248044
-0.00272799
-0.00294541
-0.00315248
-0.00341295
-0.00375776
-0.00414996
-0.00454574
-0.00496792
-0.00539472
-0.00581737
-0.00620253
-0.00646173
-0.000834529
-0.0010158
-0.00130826
-0.00158773
-0.00188858
-0.00215193
-0.00240699
-0.00264265
-0.00288656
-0.00311598
-0.003332
-0.00357697
-0.00388178
-0.00423001
-0.0046187
-0.00500934
-0.00540924
-0.00581507
-0.00619115
-0.0064617
-0.00095135
-0.0011387
-0.00143519
-0.00171668
-0.00201674
-0.00228724
-0.00256743
-0.00282501
-0.00306484
-0.00325428
-0.00340202
-0.00355387
-0.00378424
-0.00406917
-0.00439832
-0.00476537
-0.00515129
-0.00556912
-0.00599308
-0.00635355
-0.00107732
-0.00127213
-0.00158281
-0.00186513
-0.00216025
-0.00242285
-0.00269149
-0.00299033
-0.00332954
-0.00366517
-0.00389514
-0.00396227
-0.00396945
-0.00403175
-0.00418591
-0.0043978
-0.00458867
-0.00469103
-0.00474101
-0.00481728
-0.0012208
-0.00139401
-0.00167796
-0.00195282
-0.00227194
-0.00260589
-0.00293247
-0.00316222
-0.00326106
-0.00327254
-0.00340172
-0.00357567
-0.00378827
-0.0039988
-0.00416687
-0.00431002
-0.00444431
-0.00458244
-0.00472356
-0.00493505
-0.00144071
-0.00165514
-0.001873
-0.0020364
-0.00225273
-0.0024787
-0.00276906
-0.00308171
-0.00336923
-0.00367727
-0.00388042
-0.00405094
-0.00420369
-0.00434305
-0.00445078
-0.00450753
-0.00451096
-0.00447228
-0.00445286
-0.0045333
-0.00150722
-0.00164588
-0.00187655
-0.00208155
-0.00231113
-0.00255719
-0.00284486
-0.0031208
-0.00335717
-0.0035121
-0.00365419
-0.00376708
-0.00391888
-0.00410934
-0.00433819
-0.00463746
-0.00504935
-0.00555287
-0.00610129
-0.00662228
-0.0017095
-0.00189475
-0.00205498
-0.00214459
-0.00229348
-0.00249678
-0.00279949
-0.00314742
-0.00344523
-0.00368299
-0.00389689
-0.00407122
-0.00420717
-0.00433394
-0.00442993
-0.00448264
-0.00449823
-0.00450033
-0.00454135
-0.0046863
-0.00181115
-0.00197767
-0.00208563
-0.00213547
-0.00226942
-0.00248517
-0.00283462
-0.00321474
-0.00352416
-0.00373645
-0.00390765
-0.00403987
-0.00412097
-0.00418683
-0.00424761
-0.00429512
-0.00435125
-0.00445585
-0.00463802
-0.00495966
0.0308312
0.0220635
0.00935837
0.000830244
-0.00220588
-0.0023863
-0.0018264
-0.00152779
-0.00185652
-0.00264766
-0.00350533
-0.00416402
-0.00463657
-0.00512644
-0.00577602
-0.00656118
-0.00740745
-0.0082225
-0.00890082
-0.00942769
-0.00990052
-0.0103907
-0.0109068
-0.011429
-0.0119701
-0.0125533
-0.0131496
-0.0137392
-0.0143462
-0.0149408
-0.0154965
-0.0160714
-0.0167095
-0.0173522
-0.0179168
-0.0184323
-0.0189879
-0.019565
-0.0201033
-0.0206641
-0.0212827
-0.0219038
-0.0225104
-0.0231397
-0.0237907
-0.0244527
-0.0251174
-0.0257722
-0.0264078
-0.027073
-0.0277866
-0.02853
-0.0292673
-0.0300031
-0.0307606
-0.0315191
-0.0322258
-0.0329463
-0.0337201
-0.0345076
-0.0353072
-0.0361432
-0.0370165
-0.0378759
-0.0387451
-0.0396472
-0.0405736
-0.041496
-0.0424397
-0.0433537
-0.0442745
-0.0452479
-0.0462938
-0.0473665
-0.0484229
-0.0494809
-0.05053
-0.0516149
-0.0527472
-0.0538865
-0.0550562
-0.0562419
-0.0574725
-0.0587023
-0.0599628
-0.061234
-0.0625338
-0.0638589
-0.065175
-0.066528
-0.0678856
-0.0692842
-0.0706928
-0.0721468
-0.0735294
-0.0750197
-0.076429
-0.0778671
-0.0791205
-0.0800529
0.0292344
0.021869
0.00945716
0.000947463
-0.00213592
-0.00234841
-0.00180113
-0.00150866
-0.00184204
-0.00263662
-0.00349672
-0.00415696
-0.00463018
-0.0051202
-0.00576997
-0.00655551
-0.00740238
-0.0082182
-0.00889718
-0.00942436
-0.00989735
-0.0103878
-0.0109041
-0.0114266
-0.0119679
-0.0125513
-0.0131478
-0.0137375
-0.0143447
-0.0149394
-0.0154952
-0.0160701
-0.0167084
-0.0173512
-0.017916
-0.0184315
-0.0189871
-0.0195643
-0.0201026
-0.0206634
-0.021282
-0.0219032
-0.0225099
-0.0231391
-0.0237901
-0.0244522
-0.025117
-0.0257718
-0.0264073
-0.0270726
-0.0277861
-0.0285296
-0.0292669
-0.0300027
-0.0307602
-0.0315187
-0.0322255
-0.032946
-0.0337198
-0.0345073
-0.0353069
-0.0361429
-0.0370162
-0.0378756
-0.0387448
-0.0396469
-0.0405733
-0.0414957
-0.0424394
-0.0433535
-0.0442743
-0.0452477
-0.0462936
-0.0473663
-0.0484228
-0.0494807
-0.0505298
-0.0516148
-0.0527471
-0.0538863
-0.0550561
-0.0562418
-0.0574723
-0.0587022
-0.0599627
-0.0612338
-0.0625337
-0.0638588
-0.0651749
-0.0665279
-0.0678855
-0.0692841
-0.0706927
-0.0721468
-0.0735293
-0.0750196
-0.0764289
-0.077867
-0.0791204
-0.0800527
0.0279919
0.0218075
0.00974025
0.00119911
-0.00200989
-0.00229684
-0.00177594
-0.00149146
-0.00182822
-0.00262468
-0.00348602
-0.004148
-0.0046233
-0.00511492
-0.00576541
-0.00655097
-0.00739788
-0.00821415
-0.00889373
-0.00942131
-0.00989449
-0.010385
-0.0109016
-0.0114243
-0.0119658
-0.0125495
-0.0131462
-0.0137359
-0.0143432
-0.0149382
-0.015494
-0.016069
-0.0167074
-0.0173504
-0.0179152
-0.0184307
-0.0189863
-0.0195637
-0.020102
-0.0206628
-0.0212815
-0.0219028
-0.0225094
-0.0231387
-0.0237897
-0.0244518
-0.0251166
-0.0257714
-0.026407
-0.0270722
-0.0277857
-0.0285293
-0.0292666
-0.0300024
-0.0307599
-0.0315185
-0.0322252
-0.0329457
-0.0337195
-0.034507
-0.0353067
-0.0361427
-0.037016
-0.0378754
-0.0387446
-0.0396467
-0.0405731
-0.0414955
-0.0424393
-0.0433533
-0.0442741
-0.0452475
-0.0462934
-0.0473662
-0.0484226
-0.0494806
-0.0505297
-0.0516146
-0.052747
-0.0538862
-0.055056
-0.0562417
-0.0574722
-0.0587021
-0.0599626
-0.0612337
-0.0625336
-0.0638587
-0.0651748
-0.0665278
-0.0678854
-0.0692841
-0.0706926
-0.0721467
-0.0735292
-0.0750196
-0.0764289
-0.077867
-0.0791205
-0.0800526
0.0268255
0.0216912
0.0100663
0.00150933
-0.00184816
-0.0022309
-0.00174405
-0.00146882
-0.00181084
-0.0026102
-0.00347157
-0.00413441
-0.00461333
-0.00510915
-0.00576189
-0.00654742
-0.00739347
-0.00820941
-0.00888951
-0.00941777
-0.00989128
-0.0103818
-0.0108983
-0.0114212
-0.0119633
-0.0125474
-0.0131444
-0.0137341
-0.0143415
-0.0149366
-0.0154926
-0.0160677
-0.0167062
-0.0173494
-0.0179144
-0.0184298
-0.0189855
-0.019563
-0.0201013
-0.0206621
-0.0212809
-0.0219022
-0.0225089
-0.0231382
-0.0237892
-0.0244514
-0.0251162
-0.025771
-0.0264066
-0.0270718
-0.0277853
-0.0285289
-0.0292663
-0.0300021
-0.0307596
-0.0315182
-0.0322249
-0.0329454
-0.0337192
-0.0345067
-0.0353064
-0.0361424
-0.0370157
-0.0378752
-0.0387443
-0.0396465
-0.0405729
-0.0414953
-0.0424391
-0.0433532
-0.0442739
-0.0452473
-0.0462932
-0.047366
-0.0484225
-0.0494805
-0.0505295
-0.0516145
-0.0527468
-0.0538861
-0.0550559
-0.0562416
-0.0574721
-0.058702
-0.0599625
-0.0612337
-0.0625335
-0.0638586
-0.0651747
-0.0665277
-0.0678853
-0.069284
-0.0706925
-0.0721466
-0.0735291
-0.0750195
-0.0764288
-0.077867
-0.0791206
-0.0800524
0.0256308
0.0214601
0.0103907
0.00184728
-0.00166867
-0.00215648
-0.0017064
-0.00144108
-0.00179032
-0.00259364
-0.00345345
-0.00411543
-0.0045988
-0.00510149
-0.0057587
-0.00654469
-0.00738909
-0.00820373
-0.00888421
-0.00941365
-0.00988772
-0.0103778
-0.0108938
-0.0114169
-0.0119597
-0.0125447
-0.0131421
-0.0137318
-0.0143391
-0.0149343
-0.0154907
-0.016066
-0.0167047
-0.017348
-0.0179131
-0.0184286
-0.0189844
-0.019562
-0.0201004
-0.0206612
-0.0212802
-0.0219016
-0.0225083
-0.0231376
-0.0237887
-0.0244509
-0.0251158
-0.0257707
-0.0264062
-0.0270713
-0.0277849
-0.0285285
-0.0292659
-0.0300017
-0.0307593
-0.0315179
-0.0322246
-0.032945
-0.0337189
-0.0345064
-0.0353061
-0.0361421
-0.0370155
-0.0378749
-0.0387441
-0.0396462
-0.0405727
-0.0414951
-0.0424389
-0.043353
-0.0442737
-0.045247
-0.046293
-0.0473659
-0.0484223
-0.0494803
-0.0505294
-0.0516143
-0.0527467
-0.053886
-0.0550557
-0.0562414
-0.057472
-0.0587019
-0.0599624
-0.0612336
-0.0625334
-0.0638585
-0.0651746
-0.0665276
-0.0678852
-0.0692839
-0.0706924
-0.0721466
-0.073529
-0.0750195
-0.0764288
-0.077867
-0.0791209
-0.0800523
0.0244148
0.0211292
0.0107171
0.00221401
-0.00147387
-0.00207699
-0.00166641
-0.00141103
-0.00176821
-0.00257651
-0.00343405
-0.00409351
-0.00458092
-0.00509173
-0.00575496
-0.00654219
-0.00738465
-0.00819729
-0.00887808
-0.00940924
-0.00988412
-0.0103733
-0.010888
-0.0114109
-0.0119547
-0.0125411
-0.0131392
-0.0137288
-0.0143356
-0.014931
-0.0154881
-0.0160639
-0.0167026
-0.0173458
-0.0179112
-0.0184271
-0.018983
-0.0195606
-0.0200991
-0.0206602
-0.0212792
-0.0219007
-0.0225075
-0.023137
-0.0237881
-0.0244503
-0.0251152
-0.0257702
-0.0264057
-0.0270708
-0.0277844
-0.0285281
-0.0292656
-0.0300014
-0.0307589
-0.0315176
-0.0322243
-0.0329447
-0.0337186
-0.0345061
-0.0353058
-0.0361418
-0.0370152
-0.0378747
-0.0387438
-0.039646
-0.0405725
-0.0414949
-0.0424387
-0.0433528
-0.0442734
-0.0452467
-0.0462928
-0.0473657
-0.0484222
-0.0494801
-0.0505292
-0.0516141
-0.0527465
-0.0538858
-0.0550556
-0.0562413
-0.0574719
-0.0587018
-0.0599622
-0.0612334
-0.0625332
-0.0638585
-0.0651745
-0.0665275
-0.0678851
-0.0692838
-0.0706923
-0.0721465
-0.073529
-0.0750194
-0.0764289
-0.0778671
-0.0791214
-0.0800521
0.0232136
0.0207225
0.0110502
0.00260817
-0.00126745
-0.00199661
-0.0016276
-0.00138091
-0.00174527
-0.00255913
-0.00341455
-0.00407071
-0.00456148
-0.00508046
-0.00575032
-0.00653939
-0.00738005
-0.00819047
-0.00887165
-0.00940499
-0.00988085
-0.0103686
-0.0108813
-0.0114035
-0.0119483
-0.0125362
-0.0131354
-0.0137248
-0.0143309
-0.0149265
-0.0154848
-0.0160614
-0.0166997
-0.0173426
-0.0179086
-0.0184251
-0.018981
-0.0195585
-0.0200974
-0.0206588
-0.0212779
-0.0218994
-0.0225065
-0.0231362
-0.0237874
-0.0244496
-0.0251146
-0.0257696
-0.0264051
-0.0270702
-0.0277838
-0.0285275
-0.0292651
-0.0300011
-0.0307585
-0.0315172
-0.0322239
-0.0329443
-0.0337182
-0.0345057
-0.0353054
-0.0361415
-0.0370149
-0.0378744
-0.0387435
-0.0396457
-0.0405722
-0.0414946
-0.0424385
-0.0433526
-0.0442731
-0.0452464
-0.0462925
-0.0473655
-0.048422
-0.04948
-0.050529
-0.0516139
-0.0527463
-0.0538856
-0.0550554
-0.0562411
-0.0574717
-0.0587016
-0.0599621
-0.0612333
-0.0625331
-0.0638584
-0.0651744
-0.0665274
-0.067885
-0.0692837
-0.0706922
-0.0721464
-0.0735289
-0.0750193
-0.0764289
-0.0778673
-0.079122
-0.080052
0.0220536
0.0202464
0.0113741
0.0030198
-0.00105266
-0.00191689
-0.00159081
-0.00135119
-0.00172144
-0.00254119
-0.00339494
-0.00404754
-0.00454118
-0.00506817
-0.00574492
-0.00653628
-0.00737548
-0.00818374
-0.00886545
-0.0094012
-0.00987806
-0.010364
-0.010874
-0.0113951
-0.0119408
-0.0125303
-0.0131306
-0.0137199
-0.014325
-0.0149207
-0.0154808
-0.0160586
-0.0166962
-0.0173384
-0.0179051
-0.0184224
-0.0189783
-0.0195558
-0.0200953
-0.0206571
-0.0212762
-0.0218977
-0.0225051
-0.0231351
-0.0237865
-0.0244487
-0.0251137
-0.0257689
-0.0264045
-0.0270695
-0.027783
-0.0285268
-0.0292646
-0.0300007
-0.0307581
-0.0315167
-0.0322234
-0.0329439
-0.0337177
-0.0345052
-0.035305
-0.0361412
-0.0370146
-0.0378741
-0.0387432
-0.0396454
-0.040572
-0.0414943
-0.0424382
-0.0433523
-0.0442728
-0.045246
-0.0462922
-0.0473653
-0.0484218
-0.0494797
-0.0505288
-0.0516137
-0.0527461
-0.0538854
-0.0550552
-0.0562409
-0.0574716
-0.0587015
-0.0599619
-0.0612332
-0.062533
-0.0638583
-0.0651743
-0.0665273
-0.0678849
-0.0692836
-0.0706921
-0.0721464
-0.0735288
-0.0750192
-0.076429
-0.0778675
-0.0791229
-0.080052
0.02095
0.0196988
0.0116697
0.00344319
-0.00082661
-0.00183533
-0.00155496
-0.00132158
-0.00169658
-0.00252253
-0.00337512
-0.00402401
-0.00452024
-0.00505524
-0.00573918
-0.00653325
-0.00737136
-0.00817759
-0.00885986
-0.00939801
-0.00987571
-0.0103595
-0.0108663
-0.0113861
-0.0119326
-0.0125236
-0.013125
-0.013714
-0.0143178
-0.0149138
-0.0154763
-0.0160555
-0.0166922
-0.0173334
-0.0179008
-0.0184192
-0.0189749
-0.0195523
-0.0200927
-0.0206553
-0.0212742
-0.0218956
-0.0225033
-0.0231337
-0.0237852
-0.0244475
-0.0251127
-0.0257681
-0.0264038
-0.0270687
-0.0277819
-0.0285257
-0.0292639
-0.0300002
-0.0307575
-0.0315161
-0.032223
-0.0329435
-0.0337172
-0.0345046
-0.0353046
-0.0361408
-0.0370142
-0.0378737
-0.0387429
-0.0396451
-0.0405717
-0.041494
-0.0424379
-0.0433521
-0.0442725
-0.0452456
-0.0462919
-0.0473651
-0.0484215
-0.0494795
-0.0505285
-0.0516134
-0.0527458
-0.0538851
-0.055055
-0.0562407
-0.0574714
-0.0587013
-0.0599618
-0.061233
-0.0625329
-0.0638581
-0.0651741
-0.0665272
-0.0678848
-0.0692835
-0.070692
-0.0721463
-0.0735287
-0.0750191
-0.0764292
-0.0778678
-0.0791239
-0.080052
0.0199145
0.0190841
0.0119246
0.00387678
-0.000584373
-0.00174928
-0.00151944
-0.00129255
-0.00167134
-0.0025034
-0.00335517
-0.0040002
-0.00449884
-0.00504204
-0.00573359
-0.00653082
-0.0073682
-0.00817241
-0.00885516
-0.00939556
-0.00987379
-0.0103549
-0.0108583
-0.0113766
-0.011924
-0.0125165
-0.0131188
-0.0137073
-0.0143097
-0.014906
-0.0154712
-0.0160524
-0.0166881
-0.0173279
-0.0178961
-0.0184156
-0.0189709
-0.019548
-0.0200896
-0.0206532
-0.021272
-0.0218932
-0.0225012
-0.023132
-0.0237836
-0.0244459
-0.0251114
-0.0257671
-0.026403
-0.0270678
-0.0277806
-0.0285242
-0.0292629
-0.0299995
-0.0307568