/*--------------------------------*- C++ -*----------------------------------*\
| =========                 |                                                 |
| \\      /  F ield         | OpenFOAM: The Open Source CFD Toolbox           |
|  \\    /   O peration     | Version:  v1812                                 |
|   \\  /    A nd           | Web:      www.OpenFOAM.com                      |
|    \\/     M anipulation  |                                                 |
\*---------------------------------------------------------------------------*/
FoamFile
{
    version     2.0;
    format      ascii;
    class       surfaceScalarField;
    location    "7";
    object      phi;
}
// * * * * * * * * * * * * * * * * * * * * * * * * * * * * * * * * * * * * * //

dimensions      [0 3 -1 0 0 0 0];
oriented        oriented;


internalField   nonuniform List<scalar> 
19000
(
1.1346e-06
-1.72349e-07
1.17294e-06
-1.39996e-07
1.18387e-06
-5.63762e-07
1.18954e-06
6.7923e-07
1.16042e-06
1.17744e-06
1.12067e-06
1.4291e-07
1.11911e-06
-4.26051e-08
1.10459e-06
-1.83609e-06
1.13176e-06
-1.12754e-06
1.18595e-06
-9.26187e-07
1.19967e-06
-6.98771e-07
1.19332e-06
-3.75651e-07
1.22376e-06
9.17522e-07
1.17978e-06
-1.73353e-07
1.22015e-06
1.31469e-06
1.1611e-06
-3.55171e-08
1.1939e-06
8.0487e-07
1.14427e-06
-1.11396e-07
1.16742e-06
4.06342e-07
-2.7917e-07
1.08103e-06
1.19098e-06
-1.39065e-07
1.2292e-06
-1.78217e-07
1.24168e-06
-5.7624e-07
1.24797e-06
6.72938e-07
1.21656e-06
1.20885e-06
1.18033e-06
1.79138e-07
1.17369e-06
-3.59591e-08
1.15665e-06
-1.81906e-06
1.17941e-06
-1.1503e-06
1.2333e-06
-9.80075e-07
1.2491e-06
-7.14566e-07
1.25125e-06
-3.77805e-07
1.27708e-06
8.91695e-07
1.24382e-06
-1.40092e-07
1.26327e-06
1.29524e-06
1.23246e-06
-4.70609e-09
1.23591e-06
8.01423e-07
1.22251e-06
-9.79983e-08
1.21564e-06
4.13215e-07
-2.4813e-07
1.18459e-06
1.25159e-06
-1.07872e-07
1.28674e-06
-2.13364e-07
1.30204e-06
-5.91546e-07
1.30833e-06
6.66652e-07
1.27865e-06
1.23852e-06
1.24427e-06
2.13519e-07
1.23725e-06
-2.89317e-08
1.22011e-06
-1.80192e-06
1.23403e-06
-1.16422e-06
1.28242e-06
-1.02846e-06
1.30305e-06
-7.35195e-07
1.30741e-06
-3.82167e-07
1.33328e-06
8.65826e-07
1.3076e-06
-1.14416e-07
1.32398e-06
1.27886e-06
1.30402e-06
1.52546e-08
1.31351e-06
7.91931e-07
1.30347e-06
-8.7954e-08
1.31431e-06
4.0237e-07
-2.12598e-07
1.27878e-06
1.3167e-06
-8.04714e-08
1.34576e-06
-2.42424e-07
1.36352e-06
-6.09299e-07
1.36885e-06
6.61315e-07
1.3436e-06
1.26377e-06
1.31251e-06
2.44605e-07
1.30525e-06
-2.16665e-08
1.28641e-06
-1.78308e-06
1.29314e-06
-1.17095e-06
1.33432e-06
-1.06965e-06
1.35851e-06
-7.59381e-07
1.36495e-06
-3.88608e-07
1.38969e-06
8.41082e-07
1.37092e-06
-9.56424e-08
1.38919e-06
1.26059e-06
1.37471e-06
2.97375e-08
1.39206e-06
7.74587e-07
1.37797e-06
-7.38732e-08
1.39537e-06
3.84972e-07
-1.67484e-07
1.35026e-06
1.38669e-06
-5.88053e-08
1.40763e-06
-2.63363e-07
1.4253e-06
-6.26969e-07
1.42862e-06
6.57987e-07
1.40948e-06
1.28292e-06
1.38422e-06
2.69861e-07
1.37818e-06
-1.56251e-08
1.35642e-06
-1.76132e-06
1.35708e-06
-1.17161e-06
1.38995e-06
-1.10251e-06
1.41471e-06
-7.84137e-07
1.4235e-06
-3.97404e-07
1.44908e-06
8.15508e-07
1.43473e-06
-8.1301e-08
1.45906e-06
1.23627e-06
1.44739e-06
4.14072e-08
1.47129e-06
7.50684e-07
1.45264e-06
-5.52188e-08
1.47205e-06
3.65564e-07
-1.18557e-07
1.42312e-06
1.46091e-06
-4.40406e-08
1.47369e-06
-2.76142e-07
1.48734e-06
-6.40621e-07
1.4882e-06
6.57127e-07
1.47652e-06
1.2946e-06
1.45978e-06
2.86607e-07
1.45513e-06
-1.09748e-08
1.42924e-06
-1.73544e-06
1.42558e-06
-1.16795e-06
1.45016e-06
-1.1271e-06
1.47246e-06
-8.06433e-07
1.48334e-06
-4.08289e-07
1.51184e-06
7.87015e-07
1.50176e-06
-7.12214e-08
1.53233e-06
1.20569e-06
1.52229e-06
5.14477e-08
1.55088e-06
7.2209e-07
1.52773e-06
-3.20646e-08
1.54744e-06
3.4585e-07
-6.73951e-08
1.49628e-06
1.53793e-06
-3.57536e-08
1.54412e-06
-2.82335e-07
1.5506e-06
-6.47096e-07
1.54961e-06
6.58112e-07
1.54667e-06
1.29754e-06
1.53992e-06
2.93356e-07
1.53609e-06
-7.14352e-09
1.5052e-06
-1.70455e-06
1.4987e-06
-1.16145e-06
1.51557e-06
-1.14396e-06
1.53363e-06
-8.24498e-07
1.54576e-06
-4.20415e-07
1.57835e-06
7.54419e-07
1.57287e-06
-6.57439e-08
1.60997e-06
1.1686e-06
1.60035e-06
6.10689e-08
1.63229e-06
6.90151e-07
1.60471e-06
-4.48379e-09
1.62397e-06
3.26589e-07
-1.49452e-08
1.57152e-06
1.61659e-06
-3.22186e-08
1.61809e-06
-2.83833e-07
1.61667e-06
-6.4567e-07
1.61581e-06
6.58973e-07
1.62224e-06
1.2911e-06
1.62515e-06
2.90446e-07
1.62105e-06
-3.03936e-09
1.58466e-06
-1.66816e-06
1.57637e-06
-1.15316e-06
1.58616e-06
-1.15375e-06
1.5997e-06
-8.38043e-07
1.61267e-06
-4.33378e-07
1.6497e-06
7.17389e-07
1.64873e-06
-6.478e-08
1.69192e-06
1.12541e-06
1.68151e-06
7.14828e-08
1.71544e-06
6.56217e-07
1.68322e-06
2.77347e-08
1.7013e-06
3.08514e-07
3.79156e-08
1.64844e-06
1.69678e-06
-3.14289e-08
1.69479e-06
-2.81836e-07
1.68714e-06
-6.38027e-07
1.68938e-06
6.5674e-07
1.7046e-06
1.27589e-06
1.71504e-06
2.8e-07
1.70971e-06
2.288e-09
1.66798e-06
-1.62643e-06
1.65837e-06
-1.14354e-06
1.66146e-06
-1.15685e-06
1.67117e-06
-8.47755e-07
1.6856e-06
-4.47809e-07
1.7272e-06
6.7579e-07
1.7299e-06
-6.74742e-08
1.77813e-06
1.07717e-06
1.76542e-06
8.41901e-08
1.79995e-06
6.21688e-07
1.76302e-06
6.46646e-08
1.77906e-06
2.92472e-07
8.99344e-08
1.72704e-06
1.77923e-06
-3.19391e-08
1.77417e-06
-2.76777e-07
1.76304e-06
-6.26893e-07
1.77114e-06
6.48641e-07
1.79331e-06
1.25371e-06
1.80813e-06
2.65177e-07
1.80136e-06
9.05825e-09
1.75538e-06
-1.58045e-06
1.74443e-06
-1.13259e-06
1.74087e-06
-1.15328e-06
1.74759e-06
-8.54482e-07
1.76479e-06
-4.65009e-07
1.81107e-06
6.29518e-07
1.81601e-06
-7.24232e-08
1.86781e-06
1.02538e-06
1.85115e-06
1.00855e-07
1.88485e-06
5.87979e-07
1.84359e-06
1.05927e-07
1.85683e-06
2.7923e-07
1.39544e-07
1.80723e-06
1.86486e-06
-3.30545e-08
1.85699e-06
-2.68902e-07
1.84467e-06
-6.14573e-07
1.85979e-06
6.33522e-07
1.88648e-06
1.22702e-06
1.90259e-06
2.49066e-07
1.89509e-06
1.65569e-08
1.84677e-06
-1.53213e-06
1.8343e-06
-1.12012e-06
1.8241e-06
-1.14308e-06
1.82816e-06
-8.58544e-07
1.84884e-06
-4.85684e-07
1.89952e-06
5.78832e-07
1.90508e-06
-7.79831e-08
1.95897e-06
9.71493e-07
1.9371e-06
1.22716e-07
1.96888e-06
5.56204e-07
1.92448e-06
1.50332e-07
1.9345e-06
2.69203e-07
1.84996e-07
1.88905e-06
1.95434e-06
-3.45516e-08
1.94423e-06
-2.58792e-07
1.9319e-06
-6.02243e-07
1.95299e-06
6.12425e-07
1.98193e-06
1.19809e-06
1.99723e-06
2.33761e-07
1.99032e-06
2.34756e-08
1.94182e-06
-1.48364e-06
1.92776e-06
-1.10606e-06
1.91141e-06
-1.12673e-06
1.91245e-06
-8.59589e-07
1.9354e-06
-5.08628e-07
1.98933e-06
5.24902e-07
1.99387e-06
-8.25244e-08
2.04869e-06
9.16667e-07
2.02157e-06
1.49845e-07
2.05101e-06
5.26762e-07
2.00554e-06
1.95794e-07
2.01244e-06
2.62303e-07
2.24497e-07
1.97294e-06
2.04799e-06
-3.63491e-08
2.03658e-06
-2.47382e-07
2.02442e-06
-5.90083e-07
2.04895e-06
5.87889e-07
2.07856e-06
1.16848e-06
2.09225e-06
2.20071e-07
2.08718e-06
2.85523e-08
2.04016e-06
-1.43662e-06
2.02468e-06
-1.09058e-06
2.00336e-06
-1.10541e-06
2.00087e-06
-8.57092e-07
2.02271e-06
-5.30473e-07
2.07763e-06
4.6998e-07
2.07969e-06
-8.45864e-08
2.1347e-06
8.61666e-07
2.10375e-06
1.80786e-07
2.13126e-06
4.99259e-07
2.08746e-06
2.3959e-07
2.0917e-06
2.58069e-07
2.56462e-07
2.05973e-06
2.14601e-06
-3.83624e-08
2.13427e-06
-2.35641e-07
2.12196e-06
-5.77772e-07
2.14726e-06
5.62589e-07
2.17673e-06
1.13901e-06
2.18899e-06
2.07812e-07
2.18648e-06
3.10632e-08
2.14168e-06
-1.39182e-06
2.12513e-06
-1.07403e-06
2.10041e-06
-1.08069e-06
2.09431e-06
-8.50991e-07
2.11084e-06
-5.47012e-07
2.16398e-06
4.16843e-07
2.16244e-06
-8.3047e-08
2.21707e-06
8.07036e-07
2.18484e-06
2.13017e-07
2.21126e-06
4.72841e-07
2.17181e-06
2.79035e-07
2.17388e-06
2.56007e-07
2.79841e-07
2.1505e-06
2.24863e-06
-4.0506e-08
2.23725e-06
-2.24258e-07
2.22438e-06
-5.64905e-07
2.24866e-06
5.3831e-07
2.27769e-06
1.10998e-06
2.28914e-06
1.96357e-07
2.2893e-06
3.09051e-08
2.24664e-06
-1.34915e-06
2.2294e-06
-1.0568e-06
2.20263e-06
-1.05391e-06
2.19351e-06
-8.41875e-07
2.20165e-06
-5.55151e-07
2.25073e-06
3.67769e-07
2.24501e-06
-7.73329e-08
2.29875e-06
7.53299e-07
2.26783e-06
2.43941e-07
2.29383e-06
4.46835e-07
2.26071e-06
3.12159e-07
2.2609e-06
2.55818e-07
2.94447e-07
2.24629e-06
2.35609e-06
-4.27194e-08
2.3454e-06
-2.13572e-07
2.33168e-06
-5.51183e-07
2.35426e-06
5.15726e-07
2.38279e-06
1.08146e-06
2.39405e-06
1.85101e-07
2.39657e-06
2.83779e-08
2.35553e-06
-1.30811e-06
2.33796e-06
-1.03923e-06
2.30989e-06
-1.02584e-06
2.29868e-06
-8.30666e-07
2.29755e-06
-5.54017e-07
2.34147e-06
3.2384e-07
2.33169e-06
-6.75459e-08
2.38401e-06
7.00975e-07
2.35623e-06
2.71726e-07
2.3819e-06
4.21163e-07
2.35604e-06
3.38013e-07
2.35466e-06
2.57204e-07
3.01206e-07
2.3479e-06
2.46864e-06
-4.49644e-08
2.45874e-06
-2.03669e-07
2.44399e-06
-5.36438e-07
2.465e-06
4.9472e-07
2.49305e-06
1.0534e-06
2.50448e-06
1.73675e-07
2.50894e-06
2.39229e-08
2.46889e-06
-1.26806e-06
2.45125e-06
-1.02159e-06
2.42211e-06
-9.96707e-07
2.40963e-06
-8.18181e-07
2.40027e-06
-5.44656e-07
2.43912e-06
2.84991e-07
2.42601e-06
-5.44373e-08
2.47641e-06
6.50576e-07
2.45265e-06
2.95486e-07
2.47751e-06
3.96296e-07
2.45893e-06
3.56593e-07
2.45624e-06
2.59893e-07
3.01719e-07
2.45573e-06
2.58653e-06
-4.72049e-08
2.57737e-06
-1.94509e-07
2.56154e-06
-5.20606e-07
2.58145e-06
4.74807e-07
2.6091e-06
1.02576e-06
2.62081e-06
1.61959e-07
2.62677e-06
1.79654e-08
2.58716e-06
-1.22845e-06
2.56966e-06
-1.00409e-06
2.53941e-06
-9.66454e-07
2.52617e-06
-8.0494e-07
2.51054e-06
-5.29026e-07
2.54498e-06
2.50544e-07
2.52971e-06
-3.91604e-08
2.57774e-06
6.02548e-07
2.55823e-06
3.14989e-07
2.58161e-06
3.72914e-07
2.56969e-06
3.68519e-07
2.56597e-06
2.63609e-07
2.9776e-07
2.56993e-06
2.71002e-06
-4.93974e-08
2.70153e-06
-1.86016e-07
2.6846e-06
-5.03679e-07
2.70398e-06
4.55429e-07
2.73129e-06
9.98451e-07
2.74324e-06
1.50005e-07
2.75035e-06
1.08563e-08
2.71074e-06
-1.18884e-06
2.69349e-06
-9.86839e-07
2.66206e-06
-9.3502e-07
2.6483e-06
-7.91185e-07
2.62843e-06
-5.09148e-07
2.65922e-06
2.19751e-07
2.64304e-06
-2.29788e-08
2.68835e-06
5.57239e-07
2.67302e-06
3.30314e-07
2.69432e-06
3.51616e-07
2.68818e-06
3.74655e-07
2.68372e-06
2.68075e-07
2.90901e-07
2.69058e-06
2.83937e-06
-5.1495e-08
2.83147e-06
-1.7812e-07
2.81347e-06
-4.85678e-07
2.83281e-06
4.36091e-07
2.85988e-06
9.7138e-07
2.87192e-06
1.37962e-07
2.87992e-06
2.85858e-09
2.83995e-06
-1.14887e-06
2.82301e-06
-9.69897e-07
2.79041e-06
-9.02423e-07
2.77621e-06
-7.76984e-07
2.75381e-06
-4.86748e-07
2.78148e-06
1.92079e-07
2.76556e-06
-7.05281e-09
2.8079e-06
5.14892e-07
2.79653e-06
3.41684e-07
2.81544e-06
3.32705e-07
2.81415e-06
3.75948e-07
2.80926e-06
2.72969e-07
2.82418e-07
2.81774e-06
2.97485e-06
-5.34534e-08
2.96751e-06
-1.70775e-07
2.94846e-06
-4.66624e-07
2.96813e-06
4.16415e-07
2.99507e-06
9.44438e-07
3.00702e-06
1.26016e-07
3.01573e-06
-5.85127e-09
2.97512e-06
-1.10827e-06
2.95848e-06
-9.5326e-07
2.92485e-06
-8.68787e-07
2.91014e-06
-7.6228e-07
2.88662e-06
-4.63224e-07
2.91143e-06
1.67264e-07
2.8967e-06
7.68539e-09
2.93598e-06
4.75606e-07
2.92824e-06
3.49423e-07
2.94471e-06
3.16236e-07
2.94741e-06
3.73246e-07
2.94238e-06
2.78004e-07
2.7325e-07
2.95155e-06
3.11679e-06
-5.5235e-08
3.10997e-06
-1.63957e-07
3.08989e-06
-4.46544e-07
3.11014e-06
3.96165e-07
3.13707e-06
9.17506e-07
3.14871e-06
1.14376e-07
3.15804e-06
-1.51781e-08
3.11659e-06
-1.06682e-06
3.10021e-06
-9.3687e-07
3.06576e-06
-8.34342e-07
3.05041e-06
-7.46924e-07
3.02687e-06
-4.39685e-07
3.04891e-06
1.45219e-07
3.036e-06
2.05933e-08
3.07228e-06
4.39328e-07
3.06775e-06
3.53952e-07
3.08191e-06
3.02075e-07
3.08789e-06
3.67268e-07
3.08296e-06
2.82934e-07
2.64073e-07
3.09214e-06
3.26548e-06
-5.68081e-08
3.2592e-06
-1.57672e-07
3.23812e-06
-4.25467e-07
3.25904e-06
3.75248e-07
3.28609e-06
8.90453e-07
3.29721e-06
1.03254e-07
3.30713e-06
-2.50909e-08
3.26473e-06
-1.02443e-06
3.24848e-06
-9.20621e-07
3.21354e-06
-7.99401e-07
3.19731e-06
-7.30696e-07
3.17463e-06
-4.17006e-07
3.19392e-06
1.25934e-07
3.18318e-06
3.13296e-08
3.21663e-06
4.05886e-07
3.21485e-06
3.55731e-07
3.22693e-06
2.89993e-07
3.2356e-06
3.58594e-07
3.23098e-06
2.87555e-07
2.55386e-07
3.23967e-06
3.42127e-06
-5.81424e-08
3.41555e-06
-1.51952e-07
3.39352e-06
-4.03443e-07
3.41506e-06
3.53705e-07
3.44239e-06
8.6313e-07
3.45278e-06
9.28602e-08
3.4633e-06
-3.56057e-08
3.41992e-06
-9.81056e-07
3.40364e-06
-9.04341e-07
3.36859e-06
-7.64344e-07
3.3512e-06
-7.13314e-07
3.33006e-06
-3.95867e-07
3.34661e-06
1.09387e-07
3.33808e-06
3.98596e-08
3.36898e-06
3.74988e-07
3.3695e-06
3.55216e-07
3.37973e-06
2.79755e-07
3.39064e-06
3.47692e-07
3.38657e-06
2.91616e-07
2.47651e-07
3.39431e-06
3.58447e-06
-5.92044e-08
3.57937e-06
-1.46846e-07
3.55648e-06
-3.80554e-07
3.57849e-06
3.31694e-07
3.60625e-06
8.35371e-07
3.61572e-06
8.33926e-08
3.62686e-06
-4.67538e-08
3.58259e-06
-9.36778e-07
3.56604e-06
-8.87796e-07
3.53128e-06
-7.29584e-07
3.51244e-06
-6.94471e-07
3.4933e-06
-3.76724e-07
3.50723e-06
9.54527e-08
3.50069e-06
4.64021e-08
3.52939e-06
3.46286e-07
3.53184e-06
3.52768e-07
3.54038e-06
2.71209e-07
3.55315e-06
3.34928e-07
3.54999e-06
2.94773e-07
2.41308e-07
3.55633e-06
3.75545e-06
-5.99538e-08
3.75102e-06
-1.42413e-07
3.72739e-06
-3.56922e-07
3.74963e-06
3.09452e-07
3.77801e-06
8.06992e-07
3.78637e-06
7.50292e-08
3.79817e-06
-5.85505e-08
3.75316e-06
-8.91765e-07
3.73606e-06
-8.70701e-07
3.702e-06
-6.95518e-07
3.68141e-06
-6.73891e-07
3.66448e-06
-3.59792e-07
3.67607e-06
8.3867e-08
3.67112e-06
5.13492e-08
3.69799e-06
3.19415e-07
3.7021e-06
3.48657e-07
3.70906e-06
2.64254e-07
3.72332e-06
3.20668e-07
3.72151e-06
2.96583e-07
2.36684e-07
3.72614e-06
3.93458e-06
-6.03446e-08
3.93086e-06
-1.38695e-07
3.90666e-06
-3.32721e-07
3.92885e-06
2.87265e-07
3.95803e-06
7.77807e-07
3.96518e-06
6.7884e-08
3.97756e-06
-7.09295e-08
3.93208e-06
-8.46285e-07
3.91411e-06
-8.52737e-07
3.88109e-06
-6.625e-07
3.85856e-06
-6.51353e-07
3.84383e-06
-3.45063e-07
3.85343e-06
7.42628e-08
3.84961e-06
5.51747e-08
3.87499e-06
2.94026e-07
3.88059e-06
3.43063e-07
3.88607e-06
2.58772e-07
3.90138e-06
3.05355e-07
3.90144e-06
2.96524e-07
2.3394e-07
3.90419e-06
4.12224e-06
-6.03316e-08
4.11924e-06
-1.35698e-07
4.09469e-06
-3.0817e-07
4.11653e-06
2.65426e-07
4.1467e-06
7.47634e-07
4.15257e-06
6.20174e-08
4.16538e-06
-8.37414e-08
4.11978e-06
-8.00683e-07
4.10062e-06
-8.33581e-07
4.06895e-06
-6.30825e-07
4.04432e-06
-6.26724e-07
4.03159e-06
-3.32334e-07
4.03966e-06
6.61919e-08
4.03647e-06
5.83646e-08
4.06059e-06
2.69911e-07
4.06765e-06
3.35999e-07
4.07177e-06
2.54655e-07
4.08762e-06
2.89505e-07
4.09003e-06
2.94116e-07
2.32945e-07
4.09102e-06
4.31885e-06
-5.98797e-08
4.31654e-06
-1.33383e-07
4.29189e-06
-2.83523e-07
4.3131e-06
2.44213e-07
4.3444e-06
7.16333e-07
4.349e-06
5.74205e-08
4.362e-06
-9.67438e-08
4.31668e-06
-7.55358e-07
4.29603e-06
-8.12939e-07
4.26594e-06
-6.00731e-07
4.23921e-06
-5.99996e-07
4.2281e-06
-3.21223e-07
4.23511e-06
5.9179e-08
4.23213e-06
6.13466e-08
4.25502e-06
2.4702e-07
4.26366e-06
3.27357e-07
4.26659e-06
2.51734e-07
4.28238e-06
2.73707e-07
4.28746e-06
2.89043e-07
2.33195e-07
4.28721e-06
4.52487e-06
-5.89719e-08
4.52314e-06
-1.31655e-07
4.49867e-06
-2.59052e-07
4.51902e-06
2.23864e-07
4.55152e-06
6.83828e-07
4.55491e-06
5.403e-08
4.56781e-06
-1.09641e-07
4.52317e-06
-7.10717e-07
4.50081e-06
-7.90582e-07
4.47246e-06
-5.72382e-07
4.44376e-06
-5.7129e-07
4.43378e-06
-3.11247e-07
4.44016e-06
5.27952e-08
4.43709e-06
6.4419e-08
4.45864e-06
2.25468e-07
4.46896e-06
3.17041e-07
4.471e-06
2.49695e-07
4.48609e-06
2.58621e-07
4.49398e-06
2.8115e-07
2.33971e-07
4.4932e-06
4.74076e-06
-5.76127e-08
4.73947e-06
-1.30372e-07
4.71545e-06
-2.35032e-07
4.73476e-06
2.04561e-07
4.76845e-06
6.5013e-07
4.77074e-06
5.17402e-08
4.78322e-06
-1.22113e-07
4.73965e-06
-6.67152e-07
4.71544e-06
-7.66369e-07
4.68889e-06
-5.45835e-07
4.65849e-06
-5.40889e-07
4.64911e-06
-3.01866e-07
4.65522e-06
4.66878e-08
4.65191e-06
6.7723e-08
4.6719e-06
2.05476e-07
4.68389e-06
3.05051e-07
4.68554e-06
2.48047e-07
4.6993e-06
2.44865e-07
4.70976e-06
2.70688e-07
2.3426e-07
4.70947e-06
4.96701e-06
-5.58259e-08
4.966e-06
-1.29366e-07
4.94269e-06
-2.11715e-07
4.96082e-06
1.8643e-07
4.99561e-06
6.15342e-07
4.99695e-06
5.0394e-08
5.00867e-06
-1.33834e-07
4.96653e-06
-6.25013e-07
4.94041e-06
-7.40241e-07
4.91563e-06
-5.21062e-07
4.88395e-06
-5.09208e-07
4.87461e-06
-2.92527e-07
4.88073e-06
4.05736e-08
4.87717e-06
7.12789e-08
4.89535e-06
1.87292e-07
4.90899e-06
2.91418e-07
4.91074e-06
2.463e-07
4.92271e-06
2.32886e-07
4.93523e-06
2.58177e-07
2.33187e-07
4.9363e-06
5.20414e-06
-5.3648e-08
5.20324e-06
-1.28471e-07
5.18083e-06
-1.89301e-07
5.19773e-06
1.69534e-07
5.23343e-06
5.79639e-07
5.23403e-06
4.97953e-08
5.24468e-06
-1.44484e-07
5.20426e-06
-5.84593e-07
5.17622e-06
-7.12204e-07
5.15314e-06
-4.97975e-07
5.12066e-06
-4.76735e-07
5.11087e-06
-2.82738e-07
5.1172e-06
3.42427e-08
5.11346e-06
7.50201e-08
5.12962e-06
1.71131e-07
5.14473e-06
2.76314e-07
5.14707e-06
2.43955e-07
5.15715e-06
2.22804e-07
5.17082e-06
2.44506e-07
2.30002e-07
5.17401e-06
5.45266e-06
-5.11209e-08
5.45174e-06
-1.2755e-07
5.43036e-06
-1.67921e-07
5.44602e-06
1.53875e-07
5.48242e-06
5.43243e-07
5.48246e-06
4.9752e-08
5.49178e-06
-1.53801e-07
5.45329e-06
-5.4611e-07
5.42344e-06
-6.8235e-07
5.40187e-06
-4.76405e-07
5.36915e-06
-4.44012e-07
5.35851e-06
-2.72104e-07
5.36513e-06
2.76262e-08
5.36145e-06
7.86995e-08
5.37538e-06
1.57201e-07
5.39165e-06
2.60049e-07
5.395e-06
2.40602e-07
5.40336e-06
2.14439e-07
5.41722e-06
2.30647e-07
2.24337e-07
5.42289e-06
5.71312e-06
-4.82865e-08
5.71209e-06
-1.26519e-07
5.69179e-06
-1.47616e-07
5.70627e-06
1.39394e-07
5.7431e-06
5.06408e-07
5.74276e-06
5.00982e-08
5.75055e-06
-1.61591e-07
5.71415e-06
-5.09708e-07
5.68263e-06
-6.50839e-07
5.66236e-06
-4.56135e-07
5.62992e-06
-4.11568e-07
5.61817e-06
-2.60353e-07
5.62507e-06
2.07285e-08
5.62176e-06
8.20094e-08
5.63339e-06
1.45571e-07
5.65032e-06
2.43119e-07
5.65499e-06
2.35927e-07
5.662e-06
2.07435e-07
5.67521e-06
2.17438e-07
2.1631e-07
5.68323e-06
5.98609e-06
-4.51863e-08
5.98492e-06
-1.25348e-07
5.96565e-06
-1.2834e-07
5.97906e-06
1.25983e-07
6.01608e-06
4.69388e-07
6.01547e-06
5.07036e-08
6.02158e-06
-1.67698e-07
5.98736e-06
-4.75487e-07
5.95444e-06
-6.1792e-07
5.93515e-06
-4.36846e-07
5.90351e-06
-3.79927e-07
5.89048e-06
-2.47323e-07
5.89758e-06
1.36245e-08
5.89497e-06
8.46239e-08
5.90434e-06
1.362e-07
5.92139e-06
2.2607e-07
5.92749e-06
2.29821e-07
5.93365e-06
2.01274e-07
5.94567e-06
2.0542e-07
2.06559e-07
5.95542e-06
6.27216e-06
-4.18603e-08
6.27087e-06
-1.24052e-07
6.25254e-06
-1.10018e-07
6.26498e-06
1.1355e-07
6.30196e-06
4.32399e-07
6.3012e-06
5.14643e-08
6.30548e-06
-1.7197e-07
6.27351e-06
-4.43522e-07
6.23948e-06
-5.83891e-07
6.22084e-06
-4.18202e-07
6.19044e-06
-3.49531e-07
6.17615e-06
-2.33026e-07
6.1832e-06
6.57316e-09
6.18164e-06
8.61804e-08
6.18893e-06
1.28912e-07
6.20549e-06
2.09505e-07
6.21306e-06
2.22253e-07
6.21883e-06
1.95505e-07
6.22949e-06
1.94765e-07
1.95917e-07
6.24013e-06
6.57196e-06
-3.83536e-08
6.57056e-06
-1.22653e-07
6.55315e-06
-9.2606e-08
6.56462e-06
1.02084e-07
6.6014e-06
3.95617e-07
6.60062e-06
5.22413e-08
6.60287e-06
-1.7422e-07
6.57319e-06
-4.13844e-07
6.53843e-06
-5.49126e-07
6.52009e-06
-3.99862e-07
6.49129e-06
-3.20732e-07
6.47581e-06
-2.17546e-07
6.48256e-06
-1.82362e-10
6.48228e-06
8.6464e-08
6.48776e-06
1.23434e-07
6.5034e-06
1.93864e-07
6.51227e-06
2.13377e-07
6.51803e-06
1.8975e-07
6.52749e-06
1.85304e-07
1.85227e-07
6.53818e-06
6.88616e-06
-3.47225e-08
6.88465e-06
-1.21139e-07
6.8682e-06
-7.61653e-08
6.87858e-06
9.17046e-08
6.91502e-06
3.59181e-07
6.91442e-06
5.28416e-08
6.91451e-06
-1.74309e-07
6.887e-06
-3.86336e-07
6.85196e-06
-5.14081e-07
6.83361e-06
-3.81518e-07
6.80659e-06
-2.93712e-07
6.79015e-06
-2.01104e-07
6.79631e-06
-6.33949e-09
6.79738e-06
8.53924e-08
6.80145e-06
1.19361e-07
6.81588e-06
1.79434e-07
6.82577e-06
2.03491e-07
6.83175e-06
1.83769e-07
6.84043e-06
1.76624e-07
1.75154e-07
6.8505e-06
7.21546e-06
-3.10418e-08
7.21372e-06
-1.19405e-07
7.19848e-06
-6.09265e-08
7.20751e-06
8.26734e-08
7.24345e-06
3.23243e-07
7.24332e-06
5.29713e-08
7.24114e-06
-1.7213e-07
7.21561e-06
-3.60805e-07
7.1807e-06
-4.7917e-07
7.16216e-06
-3.62976e-07
7.13698e-06
-2.68532e-07
7.11986e-06
-1.83985e-07
7.12508e-06
-1.15607e-08
7.12749e-06
8.29848e-08
7.13065e-06
1.16196e-07
7.14362e-06
1.66473e-07
7.15425e-06
1.92855e-07
7.16063e-06
1.77388e-07
7.16873e-06
1.68524e-07
1.65745e-07
7.17814e-06
7.56058e-06
-2.73996e-08
7.55843e-06
-1.17248e-07
7.54476e-06
-4.72615e-08
7.55212e-06
7.53183e-08
7.58735e-06
2.8801e-07
7.58802e-06
5.23016e-08
7.58359e-06
-1.67705e-07
7.5597e-06
-3.36909e-07
7.52532e-06
-4.44796e-07
7.50646e-06
-3.44112e-07
7.48312e-06
-2.45187e-07
7.46557e-06
-1.66443e-07
7.46951e-06
-1.54961e-08
7.47318e-06
7.93134e-08
7.47596e-06
1.13418e-07
7.48734e-06
1.55091e-07
7.49844e-06
1.81757e-07
7.50534e-06
1.7049e-07
7.51301e-06
1.60854e-07
1.56859e-07
7.52189e-06
7.92231e-06
-2.38965e-08
7.91945e-06
-1.14391e-07
7.90779e-06
-3.55998e-08
7.91323e-06
6.9881e-08
7.94736e-06
2.53881e-07
7.94919e-06
5.047e-08
7.94266e-06
-1.61182e-07
7.91997e-06
-3.14218e-07
7.88648e-06
-4.11307e-07
7.86727e-06
-3.249e-07
7.84564e-06
-2.23554e-07
7.828e-06
-1.48801e-07
7.83028e-06
-1.7778e-08
7.83507e-06
7.4527e-08
7.83791e-06
1.10577e-07
7.84786e-06
1.45142e-07
7.85907e-06
1.70539e-07
7.86652e-06
1.63045e-07
7.87394e-06
1.53427e-07
1.48406e-07
7.8824e-06
8.30141e-06
-2.06289e-08
8.29757e-06
-1.10552e-07
8.28829e-06
-2.63175e-08
8.29179e-06
6.63871e-08
8.32425e-06
2.21412e-07
8.32746e-06
4.72627e-08
8.31918e-06
-1.529e-07
8.29726e-06
-2.92295e-07
8.26485e-06
-3.789e-07
8.24527e-06
-3.05317e-07
8.22523e-06
-2.03519e-07
8.20777e-06
-1.31342e-07
8.20825e-06
-1.82574e-08
8.21374e-06
6.90365e-08
8.21718e-06
1.07144e-07
8.22596e-06
1.36354e-07
8.23699e-06
1.5951e-07
8.24491e-06
1.55126e-07
8.25226e-06
1.46082e-07
1.4032e-07
8.26034e-06
8.6987e-06
-1.76715e-08
8.6937e-06
-1.0555e-07
8.68695e-06
-1.95658e-08
8.68889e-06
6.44521e-08
8.71886e-06
1.91442e-07
8.72351e-06
4.26064e-08
8.71394e-06
-1.43323e-07
8.69244e-06
-2.70796e-07
8.66109e-06
-3.47556e-07
8.64103e-06
-2.8525e-07
8.6225e-06
-1.84992e-07
8.60562e-06
-1.14464e-07
8.60439e-06
-1.70276e-08
8.61012e-06
6.3305e-08
8.61445e-06
1.02814e-07
8.62247e-06
1.28334e-07
8.63306e-06
1.48922e-07
8.64138e-06
1.46803e-07
8.64871e-06
1.3876e-07
1.32528e-07
8.6565e-06
9.115e-06
-1.50573e-08
9.10884e-06
-9.93867e-08
9.10445e-06
-1.51763e-08
9.10551e-06
6.33938e-08
9.13212e-06
1.64836e-07
9.13794e-06
3.67782e-08
9.12767e-06
-1.33051e-07
9.1064e-06
-2.49525e-07
9.07587e-06
-3.17024e-07
9.05527e-06
-2.64655e-07
9.03825e-06
-1.67968e-07
9.02241e-06
-9.86217e-08
9.01984e-06
-1.44582e-08
9.02536e-06
5.77809e-08
9.03055e-06
9.76279e-08
9.03816e-06
1.20718e-07
9.04824e-06
1.38847e-07
9.05679e-06
1.38256e-07
9.06421e-06
1.31337e-07
1.25033e-07
9.0717e-06
9.55117e-06
-1.27653e-08
9.54407e-06
-9.22933e-08
9.54141e-06
-1.25078e-08
9.54258e-06
6.22248e-08
9.56511e-06
1.42303e-07
9.57129e-06
3.05966e-08
9.56103e-06
-1.22786e-07
9.53997e-06
-2.28466e-07
9.5101e-06
-2.87158e-07
9.48916e-06
-2.43719e-07
9.47357e-06
-1.52369e-07
9.45924e-06
-8.42973e-08
9.45577e-06
-1.09895e-08
9.46076e-06
5.27983e-08
9.46649e-06
9.18928e-08
9.47394e-06
1.13265e-07
9.48348e-06
1.2931e-07
9.49213e-06
1.29603e-07
9.49962e-06
1.23846e-07
1.17721e-07
9.50694e-06
1.00081e-05
-1.07254e-08
1.00005e-05
-8.46765e-08
9.9986e-06
-1.063e-08
1.00008e-05
6.00554e-08
1.00191e-05
1.23958e-07
1.00246e-05
2.51509e-08
1.00146e-05
-1.1278e-07
9.99407e-06
-2.07985e-07
9.96524e-06
-2.58325e-07
9.944e-06
-2.22478e-07
9.92962e-06
-1.37993e-07
9.9171e-06
-7.17789e-08
9.91318e-06
-7.0639e-09
9.91748e-06
4.84921e-08
9.92344e-06
8.59346e-08
9.93074e-06
1.05969e-07
9.93981e-06
1.20241e-07
9.94841e-06
1.21001e-07
9.95596e-06
1.16294e-07
1.10579e-07
9.96311e-06
1.04867e-05
-8.8319e-09
1.04791e-05
-7.7015e-08
1.04771e-05
-8.68898e-09
1.04808e-05
5.6431e-08
1.04957e-05
1.08996e-07
1.04997e-05
2.118e-08
1.04896e-05
-1.02701e-07
1.04699e-05
-1.88267e-07
1.04425e-05
-2.30952e-07
1.04211e-05
-2.01044e-07
1.04077e-05
-1.24561e-07
1.03969e-05
-6.09875e-08
1.0393e-05
-3.1922e-09
1.03965e-05
4.4979e-08
1.04025e-05
7.99148e-08
1.04096e-05
9.88958e-08
1.04183e-05
1.11582e-07
1.04266e-05
1.1263e-07
1.04342e-05
1.08742e-07
1.03532e-07
1.04412e-05
1.09881e-05
-6.96117e-09
1.09809e-05
-6.97181e-08
1.09783e-05
-6.17845e-09
1.09834e-05
5.13871e-08
1.09962e-05
9.61771e-08
1.09983e-05
1.91251e-08
1.09879e-05
-9.23715e-08
1.09689e-05
-1.69209e-07
1.09429e-05
-2.05003e-07
1.09218e-05
-1.79876e-07
1.09089e-05
-1.11699e-07
1.08996e-05
-5.16796e-08
1.08962e-05
2.32194e-10
1.0899e-05
4.21734e-08
1.09048e-05
7.40938e-08
1.09117e-05
9.20068e-08
1.09199e-05
1.03375e-07
1.09279e-05
1.04591e-07
1.09355e-05
1.01181e-07
9.65973e-08
1.09424e-05
1.15134e-05
-4.99579e-09
1.15067e-05
-6.30586e-08
1.15036e-05
-3.0296e-09
1.15095e-05
4.54308e-08
1.15214e-05
8.4359e-08
1.15214e-05
1.90429e-08
1.15107e-05
-8.15797e-08
1.14921e-05
-1.50665e-07
1.14677e-05
-1.80589e-07
1.14472e-05
-1.59332e-07
1.14344e-05
-9.8992e-08
1.14264e-05
-4.36462e-08
1.14235e-05
3.19004e-09
1.14259e-05
3.97745e-08
1.14313e-05
6.86152e-08
1.1438e-05
8.53204e-08
1.14458e-05
9.55775e-08
1.14535e-05
9.69393e-08
1.14609e-05
9.37264e-08
8.98139e-08
1.14677e-05
1.20637e-05
-2.83821e-09
1.20579e-05
-5.72896e-08
1.20542e-05
6.7949e-10
1.20603e-05
3.93311e-08
1.20719e-05
7.27447e-08
1.20706e-05
2.03823e-08
1.20588e-05
-6.97894e-08
1.20408e-05
-1.32652e-07
1.20181e-05
-1.57972e-07
1.19984e-05
-1.39554e-07
1.19858e-05
-8.64059e-08
1.19785e-05
-3.6356e-08
1.1976e-05
5.67777e-09
1.19782e-05
3.75855e-08
1.19834e-05
6.34281e-08
1.19897e-05
7.89614e-08
1.19972e-05
8.80934e-08
1.20045e-05
8.96877e-08
1.20116e-05
8.65678e-08
8.29912e-08
1.20184e-05
1.26402e-05
-4.21952e-10
1.26355e-05
-5.25889e-08
1.26314e-05
4.75007e-09
1.26368e-05
3.38988e-08
1.26486e-05
6.10041e-08
1.26468e-05
2.21695e-08
1.26336e-05
-5.65814e-08
1.26159e-05
-1.15019e-07
1.25952e-05
-1.37183e-07
1.25765e-05
-1.20855e-07
1.25642e-05
-7.41169e-08
1.25571e-05
-2.93045e-08
1.2555e-05
7.80756e-09
1.2557e-05
3.55787e-08
1.2562e-05
5.83845e-08
1.25681e-05
7.28981e-08
1.25752e-05
8.09791e-08
1.25822e-05
8.26649e-08
1.25889e-05
7.99132e-08
7.62323e-08
1.25957e-05
1.32442e-05
2.26503e-09
1.32405e-05
-4.88807e-08
1.32366e-05
8.68175e-09
1.32405e-05
2.9965e-08
1.32524e-05
4.91249e-08
1.32511e-05
2.35344e-08
1.32366e-05
-4.21009e-08
1.32188e-05
-9.72138e-08
1.31997e-05
-1.18108e-07
1.31826e-05
-1.03778e-07
1.31707e-05
-6.2226e-08
1.31638e-05
-2.24196e-08
1.31617e-05
9.9302e-09
1.31636e-05
3.37142e-08
1.31684e-05
5.35303e-08
1.31744e-05
6.69634e-08
1.31811e-05
7.42728e-08
1.31879e-05
7.58703e-08
1.31942e-05
7.36173e-08
6.98412e-08
1.32006e-05
1.38773e-05
5.17273e-09
1.38744e-05
-4.60299e-08
1.38711e-05
1.20208e-08
1.38731e-05
2.79534e-08
1.38845e-05
3.77013e-08
1.38842e-05
2.38677e-08
1.38689e-05
-2.68679e-08
1.38505e-05
-7.8784e-08
1.38329e-05
-1.00551e-07
1.38177e-05
-8.85098e-08
1.38067e-05
-5.12035e-08
1.38e-05
-1.57622e-08
1.37977e-05
1.22174e-08
1.37993e-05
3.21136e-08
1.38039e-05
4.89804e-08
1.38098e-05
6.1075e-08
1.38161e-05
6.78953e-08
1.38227e-05
6.93428e-08
1.38288e-05
6.74987e-08
6.39341e-08
1.38347e-05
1.45406e-05
8.19708e-09
1.45381e-05
-4.35177e-08
1.45359e-05
1.42079e-08
1.45362e-05
2.77356e-08
1.45459e-05
2.8004e-08
1.45465e-05
2.31827e-08
1.45315e-05
-1.1872e-08
1.45128e-05
-6.00525e-08
1.44963e-05
-8.40164e-08
1.44827e-05
-7.49588e-08
1.44732e-05
-4.16546e-08
1.44668e-05
-9.41136e-09
1.44645e-05
1.45785e-08
1.44656e-05
3.09822e-08
1.44697e-05
4.48457e-08
1.44755e-05
5.53308e-08
1.44817e-05
6.16304e-08
1.44879e-05
6.31474e-08
1.4494e-05
6.14482e-08
5.84263e-08
1.44995e-05
1.52358e-05
1.12338e-08
1.52334e-05
-4.10483e-08
1.52332e-05
1.43788e-08
1.52307e-05
3.02286e-08
1.52368e-05
2.18868e-08
1.52384e-05
2.16245e-08
1.52255e-05
1.02847e-09
1.52073e-05
-4.18517e-08
1.51913e-05
-6.80074e-08
1.51793e-05
-6.29395e-08
1.51713e-05
-3.36531e-08
1.51658e-05
-3.97553e-09
1.51634e-05
1.7006e-08
1.51641e-05
3.03097e-08
1.51677e-05
4.12201e-08
1.5173e-05
4.99717e-08
1.51793e-05
5.54185e-08
1.51852e-05
5.71828e-08
1.51911e-05
5.55399e-08
5.31164e-08
1.51964e-05
1.59646e-05
1.3981e-08
1.5965e-05
-4.14193e-08
1.59633e-05
1.60051e-08
1.59565e-05
3.70801e-08
1.59588e-05
1.96085e-08
1.59619e-05
1.85049e-08
1.59526e-05
1.02979e-08
1.59354e-05
-2.46809e-08
1.59198e-05
-5.24113e-08
1.59088e-05
-5.18563e-08
1.59022e-05
-2.70925e-08
1.58981e-05
1.32176e-10
1.58959e-05
1.91841e-08
1.58962e-05
2.99877e-08
1.58993e-05
3.81617e-08
1.59042e-05
4.51092e-08
1.59101e-05
4.94988e-08
1.5916e-05
5.12423e-08
1.59217e-05
4.98568e-08
4.78769e-08
1.59269e-05
1.67278e-05
1.67858e-08
1.67183e-05
-3.19083e-08
1.67191e-05
1.51721e-08
1.67162e-05
4.00299e-08
1.67159e-05
1.98494e-08
1.67201e-05
1.43616e-08
1.67147e-05
1.56578e-08
1.66991e-05
-9.06248e-09
1.66838e-05
-3.71304e-08
1.6673e-05
-4.10775e-08
1.66676e-05
-2.1692e-08
1.66649e-05
2.88264e-09
1.66635e-05
2.0589e-08
1.66636e-05
2.98507e-08
1.66661e-05
3.56507e-08
1.66704e-05
4.08661e-08
1.6676e-05
4.39107e-08
1.66817e-05
4.55218e-08
1.66873e-05
4.42768e-08
4.26867e-08
1.66924e-05
1.75281e-05
1.90681e-08
1.75221e-05
-2.58833e-08
1.75198e-05
1.74298e-08
1.75155e-05
4.43392e-08
1.75119e-05
2.34032e-08
1.75148e-05
1.14733e-08
1.75129e-05
1.75352e-08
1.75e-05
3.92789e-09
1.7485e-05
-2.21891e-08
1.74742e-05
-3.02506e-08
1.74693e-05
-1.68197e-08
1.74677e-05
4.47131e-09
1.74673e-05
2.09629e-08
1.74677e-05
2.94914e-08
1.74698e-05
3.35619e-08
1.74735e-05
3.71507e-08
1.74785e-05
3.88911e-08
1.7484e-05
4.00078e-08
1.74894e-05
3.89052e-08
3.75986e-08
1.74945e-05
1.83664e-05
2.10472e-08
1.83578e-05
-1.73552e-08
1.83567e-05
1.852e-08
1.8354e-05
4.71207e-08
1.83484e-05
2.89957e-08
1.83484e-05
1.14495e-08
1.83488e-05
1.7183e-08
1.83391e-05
1.35777e-08
1.83252e-05
-8.26586e-09
1.83143e-05
-1.93276e-08
1.83093e-05
-1.18959e-08
1.83084e-05
5.38705e-09
1.83091e-05
2.02875e-08
1.831e-05
2.85893e-08
1.83119e-05
3.16114e-08
1.83152e-05
3.38674e-08
1.83196e-05
3.44931e-08
1.83248e-05
3.48472e-08
1.833e-05
3.37254e-08
3.26981e-08
1.83349e-05
1.92449e-05
2.25626e-08
1.92366e-05