/*--------------------------------*- C++ -*----------------------------------*\
| =========                 |                                                 |
| \\      /  F ield         | OpenFOAM: The Open Source CFD Toolbox           |
|  \\    /   O peration     | Version:  v1906                                 |
|   \\  /    A nd           | Web:      www.OpenFOAM.com                      |
|    \\/     M anipulation  |                                                 |
\*---------------------------------------------------------------------------*/
FoamFile
{
    version     2.0;
    format      ascii;
    class       volVectorField;
    location    "7";
    object      U;
}
// * * * * * * * * * * * * * * * * * * * * * * * * * * * * * * * * * * * * * //

dimensions      [0 1 -1 0 0 0 0];


internalField   nonuniform List<vector> 
9600
(
(0.905026 -0.00198084 0)
(1.03155 -0.00120422 0)
(0.978544 -0.00660257 0)
(1.04485 0.00891753 0)
(0.994596 0.0164157 0)
(0.989896 0.00168745 0)
(0.9325 -0.000704051 0)
(0.979106 -0.0335955 0)
(0.916695 -0.0219357 0)
(1.01431 -0.0190226 0)
(1.01761 -0.0160969 0)
(1.02946 -0.00971101 0)
(1.0198 0.0261161 0)
(1.06825 -0.00617222 0)
(0.968778 0.0440509 0)
(1.09457 -0.00263463 0)
(0.919582 0.0321487 0)
(1.09786 -0.00578376 0)
(0.878846 0.0188442 0)
(1.09724 -0.0151554 0)
(0.915233 -0.00157391 0)
(1.02564 -0.0017325 0)
(0.983919 -0.0067886 0)
(1.04223 0.00875304 0)
(0.999021 0.0167103 0)
(0.987609 0.00249404 0)
(0.943885 -0.000690465 0)
(0.969802 -0.0332331 0)
(0.924309 -0.0225411 0)
(0.997754 -0.0205769 0)
(1.01715 -0.0166248 0)
(1.02114 -0.00956595 0)
(1.02522 0.0251712 0)
(1.05617 -0.00463138 0)
(0.986667 0.0430343 0)
(1.06198 -0.000665598 0)
(0.967469 0.0315233 0)
(1.03468 -0.00495951 0)
(0.974533 0.0202982 0)
(0.996909 -0.0165465 0)
(0.932786 -0.00122361 0)
(1.01503 -0.00217583 0)
(0.991824 -0.0069571 0)
(1.0365 0.00864769 0)
(1.00535 0.0172473 0)
(0.987635 0.00304516 0)
(0.955181 -0.0005702 0)
(0.970391 -0.0329259 0)
(0.936199 -0.0229363 0)
(0.984065 -0.0217121 0)
(1.0151 -0.0169729 0)
(1.01423 -0.00965723 0)
(1.0263 0.0243254 0)
(1.04766 -0.00374621 0)
(1.00141 0.0421266 0)
(1.04808 0.000346465 0)
(1.00016 0.0306684 0)
(1.031 -0.00357598 0)
(1.01398 0.0181789 0)
(1.01938 -0.0110442 0)
(0.953493 -0.000928286 0)
(1.00356 -0.00252666 0)
(0.9988 -0.00715526 0)
(1.02901 0.00859093 0)
(1.00934 0.0176754 0)
(0.989386 0.00354506 0)
(0.966145 -0.000427509 0)
(0.972789 -0.0326177 0)
(0.945614 -0.0231353 0)
(0.97544 -0.0226721 0)
(1.00973 -0.0174972 0)
(1.00924 -0.00985092 0)
(1.02403 0.023686 0)
(1.03903 -0.00319398 0)
(1.01099 0.0418316 0)
(1.04119 0.000669761 0)
(1.0194 0.0307372 0)
(1.03471 -0.00364861 0)
(1.02972 0.0180367 0)
(1.02993 -0.00907608 0)
(0.972736 -0.000679464 0)
(0.995495 -0.00279832 0)
(1.00284 -0.00737311 0)
(1.02068 0.00852944 0)
(1.00924 0.0179785 0)
(0.991696 0.00398314 0)
(0.976293 -0.000303724 0)
(0.977653 -0.032229 0)
(0.952983 -0.0231931 0)
(0.971396 -0.0234557 0)
(1.00248 -0.0180989 0)
(1.00379 -0.0100197 0)
(1.02014 0.023002 0)
(1.03268 -0.00262899 0)
(1.01499 0.0411366 0)
(1.04133 0.0013461 0)
(1.02975 0.0298858 0)
(1.04144 -0.00275166 0)
(1.03708 0.017474 0)
(1.03618 -0.00690042 0)
(0.987291 -0.000496268 0)
(0.992458 -0.00297673 0)
(1.00402 -0.00756453 0)
(1.01171 0.00849893 0)
(1.00612 0.0181951 0)
(0.994118 0.00431106 0)
(0.986315 -0.000205872 0)
(0.982677 -0.031787 0)
(0.958981 -0.0231597 0)
(0.970412 -0.0240613 0)
(0.995448 -0.0186532 0)
(0.997201 -0.0102587 0)
(1.01577 0.0222765 0)
(1.02788 -0.00227543 0)
(1.0179 0.0402536 0)
(1.04237 0.00166944 0)
(1.03715 0.0287385 0)
(1.04581 -0.00184233 0)
(1.04169 0.0163858 0)
(1.03839 -0.00455948 0)
(0.996298 -0.000384582 0)
(0.993112 -0.0030719 0)
(1.00339 -0.00768188 0)
(1.00259 0.00851584 0)
(1.00236 0.0183072 0)
(0.997033 0.00449304 0)
(0.996532 -0.000136252 0)
(0.987305 -0.0312641 0)
(0.964445 -0.0230521 0)
(0.971365 -0.0244922 0)
(0.9899 -0.0191182 0)
(0.990645 -0.0105444 0)
(1.0115 0.0214333 0)
(1.02428 -0.00204112 0)
(1.02094 0.039151 0)
(1.04418 0.00200375 0)
(1.04287 0.0275448 0)
(1.04894 -0.000754942 0)
(1.04461 0.0154214 0)
(1.03925 -0.00192011 0)
(1.00079 -0.000331415 0)
(0.995092 -0.00310708 0)
(1.00174 -0.00770421 0)
(0.994609 0.00854984 0)
(1.00028 0.0182905 0)
(1.0009 0.00451903 0)
(1.00676 -7.48993e-05 0)
(0.991442 -0.0306561 0)
(0.969755 -0.0229008 0)
(0.973403 -0.0247718 0)
(0.986043 -0.0194835 0)
(0.985394 -0.0108588 0)
(1.00831 0.020474 0)
(1.02194 -0.00195119 0)
(1.02448 0.0378185 0)
(1.04607 0.00236272 0)
(1.04733 0.0262426 0)
(1.05056 0.000503839 0)
(1.04574 0.014543 0)
(1.03871 0.000711442 0)
(1.00253 -0.000315079 0)
(0.996808 -0.0031008 0)
(0.999408 -0.00764187 0)
(0.989123 0.00855832 0)
(1.00108 0.0181422 0)
(1.00562 0.0044096 0)
(1.01621 -1.31745e-07 0)
(0.995283 -0.0299531 0)
(0.97501 -0.0227226 0)
(0.975861 -0.0249169 0)
(0.98342 -0.0197593 0)
(0.981923 -0.0112038 0)
(1.00707 0.0193932 0)
(1.02111 -0.00199502 0)
(1.02847 0.0362901 0)
(1.04774 0.00278497 0)
(1.05027 0.0248618 0)
(1.05066 0.00196986 0)
(1.04495 0.0137474 0)
(1.03677 0.0033119 0)
(1.00297 -0.000316653 0)
(0.997858 -0.00306038 0)
(0.996658 -0.00752571 0)
(0.986595 0.00850032 0)
(1.00437 0.0178779 0)
(1.01044 0.0042075 0)
(1.02376 0.000100965 0)
(0.998972 -0.029161 0)
(0.980107 -0.0225224 0)
(0.97827 -0.0249239 0)
(0.981425 -0.0199663 0)
(0.979794 -0.0116122 0)
(1.00779 0.0181737 0)
(1.02141 -0.00212116 0)
(1.03243 0.0346166 0)
(1.04862 0.00330007 0)
(1.05116 0.0234912 0)
(1.04893 0.00363481 0)
(1.04215 0.0130666 0)
(1.03333 0.00588159 0)
(1.00298 -0.000325983 0)
(0.998471 -0.00298715 0)
(0.994007 -0.00738614 0)
(0.986397 0.00834686 0)
(1.00852 0.0175264 0)
(1.01433 0.00395956 0)
(1.0284 0.000222925 0)
(1.00248 -0.0283009 0)
(0.98479 -0.0222969 0)
(0.980405 -0.0247809 0)
(0.97972 -0.0201145 0)
(0.978079 -0.0121226 0)
(1.00929 0.016815 0)
(1.02154 -0.00229186 0)
(1.0351 0.0328367 0)
(1.04775 0.00399225 0)
(1.04933 0.0221901 0)
(1.04505 0.00547167 0)
(1.03747 0.0125252 0)
(1.02852 0.00830705 0)
(1.00289 -0.000339219 0)
(0.998891 -0.00288613 0)
(0.992069 -0.0072411 0)
(0.987351 0.00810081 0)
(1.01172 0.0171194 0)
(1.01664 0.00370908 0)
(1.02986 0.000347073 0)
(1.00565 -0.0274119 0)
(0.988727 -0.0220399 0)
(0.982227 -0.0244901 0)
(0.978397 -0.0201853 0)
(0.976036 -0.012718 0)
(1.00962 0.0153369 0)
(1.01988 -0.00245663 0)
(1.03472 0.0310034 0)
(1.04414 0.00489328 0)
(1.04435 0.0209937 0)
(1.03889 0.00740873 0)
(1.03124 0.01214 0)
(1.0227 0.0104311 0)
(1.00282 -0.000355662 0)
(0.999194 -0.00276631 0)
(0.99118 -0.00709624 0)
(0.988454 0.00779047 0)
(1.01298 0.0166932 0)
(1.01734 0.00348258 0)
(1.02874 0.000451083 0)
(1.00827 -0.0265346 0)
(0.991679 -0.0217482 0)
(0.983763 -0.0240688 0)
(0.977773 -0.0201626 0)
(0.97359 -0.0133172 0)
(1.00718 0.013789 0)
(1.01546 -0.00255689 0)
(1.03007 0.0291758 0)
(1.03735 0.00594804 0)
(1.03645 0.0198957 0)
(1.03085 0.009319 0)
(1.02406 0.0119037 0)
(1.01646 0.0122005 0)
(1.00278 -0.000375156 0)
(0.999377 -0.00263783 0)
(0.991242 -0.00695105 0)
(0.989228 0.00745424 0)
(1.01242 0.0162714 0)
(1.01688 0.00328016 0)
(1.02616 0.000515832 0)
(1.0102 -0.0256949 0)
(0.993649 -0.0214284 0)
(0.985015 -0.0235536 0)
(0.977996 -0.0200451 0)
(0.97123 -0.0138206 0)
(1.00183 0.0122563 0)
(1.00861 -0.00255688 0)
(1.02146 0.0273663 0)
(1.02803 0.00709615 0)
(1.02674 0.0188487 0)
(1.0219 0.0111009 0)
(1.01677 0.0117853 0)
(1.01047 0.0135713 0)
(1.00275 -0.000396266 0)
(0.999466 -0.00251051 0)
(0.991881 -0.00680258 0)
(0.989636 0.00712677 0)
(1.01079 0.0158538 0)
(1.01583 0.00309448 0)
(1.02323 0.000533521 0)
(1.01144 -0.0249005 0)
(0.994872 -0.0210906 0)
(0.985985 -0.0229855 0)
(0.978872 -0.0198486 0)
(0.969502 -0.0141332 0)
(0.994851 0.0108183 0)
(1.00073 -0.0024321 0)
(1.01073 0.0255803 0)
(1.01773 0.00824293 0)
(1.01682 0.0178348 0)
(1.01322 0.0126307 0)
(1.01015 0.0117462 0)
(1.00528 0.0144976 0)
(1.00271 -0.000418393 0)
(0.999509 -0.0023894 0)
(0.99271 -0.00664534 0)
(0.989825 0.00682097 0)
(1.00888 0.0154433 0)
(1.01461 0.00291927 0)
(1.0206 0.000508532 0)
(1.01209 -0.0241449 0)
(0.995643 -0.0207417 0)
(0.986705 -0.0223896 0)
(0.980013 -0.0196019 0)
(0.968604 -0.0142025 0)
(0.988018 0.00952512 0)
(0.993399 -0.00219625 0)
(1.00023 0.0238346 0)
(1.00811 0.00929649 0)
(1.0081 0.0168423 0)
(1.00577 0.0138505 0)
(1.00474 0.0118075 0)
(1.00119 0.0150057 0)
(1.00265 -0.000441089 0)
(0.999543 -0.00227654 0)
(0.993487 -0.00647639 0)
(0.989945 0.0065379 0)
(1.00717 0.0150432 0)
(1.01344 0.00274547 0)
(1.01851 0.000448297 0)
(1.0123 -0.0234149 0)
(0.996177 -0.0203885 0)
(0.987235 -0.0217739 0)
(0.981094 -0.0193236 0)
(0.968394 -0.0140462 0)
(0.98254 0.00838334 0)
(0.987608 -0.00183815 0)
(0.991605 0.0221377 0)
(1.00025 0.0102193 0)
(1.00135 0.0158611 0)
(0.999997 0.0147699 0)
(1.00068 0.0119404 0)
(0.998235 0.0151746 0)
(1.00258 -0.000463772 0)
(0.999578 -0.00217245 0)
(0.994108 -0.00629486 0)
(0.990084 0.00627293 0)
(1.00582 0.0146518 0)
(1.01243 0.00256819 0)
(1.01689 0.000360191 0)
(1.01222 -0.0226957 0)
(0.996578 -0.020038 0)
(0.987632 -0.0211346 0)
(0.981976 -0.019027 0)
(0.968619 -0.0137092 0)
(0.978761 0.00737233 0)
(0.983569 -0.00138941 0)
(0.98542 0.0205224 0)
(0.99444 0.0109859 0)
(0.99663 0.0149364 0)
(0.995887 0.0154008 0)
(0.997853 0.0121084 0)
(0.996278 0.0150749 0)
(1.00248 -0.000486468 0)
(0.999612 -0.00207581 0)
(0.994558 -0.00609977 0)
(0.99028 0.00601914 0)
(1.00484 0.0142666 0)
(1.0116 0.00238598 0)
(1.01563 0.000249762 0)
(1.01195 -0.0219784 0)
(0.996883 -0.0196938 0)
(0.98793 -0.0204687 0)
(0.982658 -0.0187182 0)
(0.969089 -0.0132441 0)
(0.976449 0.00647074 0)
(0.981036 -0.00090819 0)
(0.981438 0.0190038 0)
(0.990445 0.011594 0)
(0.993588 0.0140879 0)
(0.993161 0.0157663 0)
(0.995983 0.0123119 0)
(0.995104 0.0148013 0)
(1.00236 -0.000508134 0)
(0.99964 -0.00198679 0)
(0.994859 -0.00589079 0)
(0.990537 0.00576937 0)
(1.00415 0.0138856 0)
(1.01094 0.00220065 0)
(1.01461 0.000122112 0)
(1.01157 -0.0212567 0)
(0.997103 -0.0193562 0)
(0.988152 -0.0197786 0)
(0.98319 -0.0183949 0)
(0.969707 -0.0127006 0)
(0.975205 0.00566075 0)
(0.979631 -0.000417258 0)
(0.97913 0.0175801 0)
(0.987848 0.0120504 0)
(0.991785 0.0133164 0)
(0.991482 0.0159117 0)
(0.994806 0.012529 0)
(0.994501 0.0144223 0)
(1.00224 -0.00052851 0)
(0.999661 -0.00190415 0)
(0.995051 -0.00566891 0)
(0.990841 0.00551663 0)
(1.00367 0.013508 0)
(1.0104 0.00201535 0)
(1.01376 -1.84405e-05 0)
(1.01111 -0.0205239 0)
(0.99725 -0.0190267 0)
(0.988316 -0.0190605 0)
(0.98362 -0.0180606 0)
(0.970432 -0.012106 0)
(0.974677 0.00493333 0)
(0.979016 4.89412e-05 0)
(0.977985 0.0162561 0)
(0.98625 0.0123664 0)
(0.990826 0.01264 0)
(0.990548 0.0158742 0)
(0.994088 0.0127478 0)
(0.994284 0.0139693 0)
(1.00213 -0.000547759 0)
(0.999671 -0.00182655 0)
(0.995175 -0.00543482 0)
(0.991173 0.00525715 0)
(1.00334 0.0131314 0)
(1.00995 0.00183287 0)
(1.01302 -0.000171348 0)
(1.01061 -0.0197743 0)
(0.997338 -0.0187053 0)
(0.988441 -0.0183207 0)
(0.983985 -0.0177135 0)
(0.97124 -0.0114965 0)
(0.974611 0.00429355 0)
(0.978931 0.000458063 0)
(0.977608 0.0150245 0)
(0.985333 0.0125836 0)
(0.990409 0.01204 0)
(0.990124 0.0156823 0)
(0.993657 0.0129674 0)
(0.994305 0.013494 0)
(1.00203 -0.000564572 0)
(0.999666 -0.00175557 0)
(0.995273 -0.00518844 0)
(0.991513 0.00498914 0)
(1.0031 0.0127523 0)
(1.00955 0.00165865 0)
(1.01236 -0.000336109 0)
(1.01007 -0.019007 0)
(0.997383 -0.0183869 0)
(0.988544 -0.0175723 0)
(0.984313 -0.0173487 0)
(0.972115 -0.0108995 0)
(0.974837 0.00372755 0)
(0.979188 0.000798434 0)
(0.977721 0.0138852 0)
(0.984857 0.0126964 0)
(0.990315 0.0115275 0)
(0.990035 0.015382 0)
(0.993388 0.0131924 0)
(0.994456 0.0130358 0)
(1.00194 -0.000579067 0)
(0.999641 -0.00169083 0)
(0.995378 -0.00493084 0)
(0.991848 0.00471216 0)
(1.0029 0.0123707 0)
(1.00918 0.00149174 0)
(1.01175 -0.000510257 0)
(1.00951 -0.0182234 0)
(0.997401 -0.0180681 0)
(0.988637 -0.0168172 0)
(0.984624 -0.0169552 0)
(0.97304 -0.0103367 0)
(0.975244 0.00323512 0)
(0.979652 0.00107095 0)
(0.978136 0.0128391 0)
(0.984654 0.0127125 0)
(0.990399 0.0110881 0)
(0.99016 0.0149808 0)
(0.993203 0.0134043 0)
(0.994654 0.0126217 0)
(1.00188 -0.00059126 0)
(0.999592 -0.00163245 0)
(0.995513 -0.00466203 0)
(0.99217 0.00442802 0)
(1.00272 0.011982 0)
(1.00881 0.0013422 0)
(1.01118 -0.000695376 0)
(1.00896 -0.0174222 0)
(0.997411 -0.0177461 0)
(0.988732 -0.0160638 0)
(0.98493 -0.0165263 0)
(0.973998 -0.00983158 0)
(0.975762 0.00283043 0)
(0.980229 0.00128377 0)
(0.978732 0.0118693 0)
(0.98461 0.0126604 0)
(0.990569 0.0107033 0)
(0.990419 0.0144801 0)
(0.993063 0.0135762 0)
(0.994851 0.0122606 0)
(1.00184 -0.000600165 0)
(0.999519 -0.00158138 0)
(0.995687 -0.00438329 0)
(0.99248 0.00413966 0)
(1.00255 0.0115848 0)
(1.00845 0.00120749 0)
(1.01065 -0.000892147 0)
(1.00841 -0.0166053 0)
(0.99743 -0.0174181 0)
(0.988834 -0.0153196 0)
(0.985235 -0.0160626 0)
(0.974975 -0.00937802 0)
(0.976347 0.00249077 0)
(0.980852 0.00145667 0)
(0.979436 0.0109496 0)
(0.984654 0.0125495 0)
(0.990768 0.0103934 0)
(0.990762 0.0139077 0)
(0.992955 0.0137068 0)
(0.99501 0.0119743 0)
(1.0018 -0.000605813 0)
(0.999425 -0.0015376 0)
(0.995896 -0.00409859 0)
(0.99278 0.0038514 0)
(1.00238 0.0111778 0)
(1.00809 0.00108732 0)
(1.01014 -0.00109669 0)
(1.0079 -0.0157808 0)
(0.997472 -0.0170739 0)
(0.98895 -0.014595 0)
(0.985543 -0.0155521 0)
(0.975955 -0.00898189 0)
(0.97697 0.00220485 0)
(0.981474 0.00158513 0)
(0.980202 0.0100824 0)
(0.984748 0.0123824 0)
(0.990963 0.0101502 0)
(0.991157 0.01327 0)
(0.992881 0.013767 0)
(0.995108 0.0117904 0)
(1.00177 -0.000607722 0)
(0.999315 -0.00150162 0)
(0.996128 -0.00380702 0)
(0.993077 0.00356501 0)
(1.00221 0.0107568 0)
(1.00775 0.000991586 0)
(1.00966 -0.00130955 0)
(1.00741 -0.0149531 0)
(0.997542 -0.0167049 0)
(0.989085 -0.0139 0)
(0.985854 -0.0149927 0)
(0.976927 -0.00864006 0)
(0.977615 0.00196736 0)
(0.982069 0.00168508 0)
(0.981001 0.00926953 0)
(0.984873 0.0121582 0)
(0.991134 0.00995896 0)
(0.991583 0.0125956 0)
(0.992854 0.013727 0)
(0.995133 0.0117276 0)
(1.00174 -0.000604839 0)
(0.999198 -0.00147402 0)
(0.996366 -0.00351192 0)
(0.993375 0.0032854 0)
(1.00205 0.0103202 0)
(1.00741 0.00091426 0)
(1.00918 -0.00152679 0)
(1.00694 -0.0141285 0)
(0.997642 -0.0163106 0)
(0.98924 -0.0132357 0)
(0.986172 -0.0143856 0)
(0.977889 -0.00834059 0)
(0.978273 0.00175764 0)
(0.982625 0.00178067 0)
(0.981815 0.00849025 0)
(0.985024 0.0118767 0)
(0.991272 0.00983328 0)
(0.992022 0.0119039 0)
(0.992888 0.0135577 0)
(0.995088 0.0117487 0)
(1.00171 -0.000597717 0)
(0.999086 -0.00145286 0)
(0.996594 -0.00322071 0)
(0.993677 0.00301786 0)
(1.0019 0.00986772 0)
(1.00707 0.000856618 0)
(1.00871 -0.00174347 0)
(1.00649 -0.0133128 0)
(0.997766 -0.0158835 0)
(0.989419 -0.01261 0)
(0.986496 -0.0137253 0)
(0.978839 -0.00808067 0)
(0.978946 0.00156934 0)
(0.98314 0.00187656 0)
(0.98263 0.00774412 0)
(0.985213 0.0115444 0)
(0.991368 0.00975561 0)
(0.992455 0.0112233 0)
(0.992992 0.0132408 0)
(0.994983 0.0118089 0)
(1.00167 -0.000585986 0)
(0.998986 -0.00143732 0)
(0.996804 -0.0029324 0)
(0.993987 0.00276456 0)
(1.00175 0.00939775 0)
(1.00673 0.000815037 0)
(1.00824 -0.00195492 0)
(1.00604 -0.0125098 0)
(0.997906 -0.0154213 0)
(0.989624 -0.0120239 0)
(0.986828 -0.0130229 0)
(0.979782 -0.00783914 0)
(0.979637 0.00139831 0)
(0.983621 0.00197955 0)
(0.983439 0.00704507 0)
(0.985449 0.0111524 0)
(0.991425 0.00969752 0)
(0.992867 0.0106024 0)
(0.993171 0.0127934 0)
(0.994848 0.0118655 0)
(1.00162 -0.000569416 0)
(0.998903 -0.00142527 0)
(0.996993 -0.00265192 0)
(0.994306 0.00252606 0)
(1.00161 0.00891252 0)
(1.00638 0.000787208 0)
(1.00777 -0.0021541 0)
(1.0056 -0.0117292 0)
(0.99805 -0.0149217 0)
(0.989856 -0.0114763 0)
(0.987167 -0.0122904 0)
(0.980721 -0.00759794 0)
(0.980353 0.00122668 0)
(0.984081 0.00209118 0)
(0.984238 0.00640601 0)
(0.985745 0.0106942 0)
(0.991454 0.0096535 0)
(0.993247 0.0100618 0)
(0.99342 0.0122297 0)
(0.99471 0.0118617 0)
(1.00157 -0.000549706 0)
(0.998841 -0.00141401 0)
(0.997161 -0.0023816 0)
(0.994633 0.00230091 0)
(1.00149 0.00841628 0)
(1.006 0.000770424 0)
(1.00731 -0.00234099 0)
(1.00515 -0.0109782 0)
(0.998191 -0.0143828 0)
(0.990115 -0.0109649 0)
(0.987512 -0.0115369 0)
(0.981658 -0.00735544 0)
(0.9811 0.00104874 0)
(0.984531 0.00220844 0)
(0.985023 0.00583562 0)
(0.986111 0.0101713 0)
(0.991474 0.00959236 0)
(0.99358 0.00961018 0)
(0.99373 0.0115797 0)
(0.994609 0.0117596 0)
(1.00152 -0.000525525 0)
(0.998798 -0.00140434 0)
(0.997313 -0.00212282 0)
(0.994965 0.00208993 0)
(1.00137 0.00791115 0)
(1.00561 0.000763526 0)
(1.00684 -0.00250958 0)
(1.00469 -0.01026 0)
(0.998322 -0.0138067 0)
(0.990401 -0.0104905 0)
(0.987862 -0.0107708 0)
(0.982588 -0.0070988 0)
(0.981882 0.000868728 0)
(0.984983 0.00232972 0)
(0.985787 0.0053395 0)
(0.986547 0.00958998 0)
(0.991504 0.00949172 0)
(0.993863 0.00923943 0)
(0.994087 0.010921 0)
(0.994577 0.0115224 0)
(1.00146 -0.000498634 0)
(0.998771 -0.00139249 0)
(0.997453 -0.00187536 0)
(0.995299 0.00189316 0)
(1.00127 0.00739557 0)
(1.00521 0.000767799 0)
(1.00638 -0.00265225 0)
(1.00424 -0.00957916 0)
(0.998439 -0.013196 0)
(0.990712 -0.0100469 0)
(0.988218 -0.0100056 0)
(0.983505 -0.0068088 0)
(0.982699 0.000675302 0)
(0.985442 0.00244321 0)
(0.986525 0.00492989 0)
(0.987049 0.00898495 0)
(0.991564 0.00933441 0)
(0.9941 0.00894232 0)
(0.994467 0.0102884 0)
(0.994628 0.0111395 0)
(1.00141 -0.000468971 0)
(0.998757 -0.00137832 0)
(0.997584 -0.00163995 0)
(0.995629 0.00171126 0)
(1.00118 0.00687632 0)
(1.00479 0.000775864 0)
(1.00593 -0.00276715 0)
(1.0038 -0.00893629 0)
(0.998542 -0.0125559 0)
(0.991047 -0.00962216 0)
(0.98858 -0.00925606 0)
(0.984401 -0.00649099 0)
(0.983546 0.000473101 0)
(0.985917 0.0025373 0)
(0.987233 0.00459539 0)
(0.987604 0.00836907 0)
(0.991668 0.00911757 0)
(0.994296 0.00868695 0)
(0.994843 0.00970589 0)
(0.99477 0.0106425 0)
(1.00135 -0.000436709 0)
(0.998753 -0.00136326 0)
(0.997711 -0.00141597 0)
(0.995951 0.00154101 0)
(1.0011 0.00635681 0)
(1.00437 0.000784593 0)
(1.00549 -0.00285812 0)
(1.00337 -0.00833453 0)
(0.99863 -0.0118853 0)
(0.991402 -0.00921829 0)
(0.988949 -0.00852874 0)
(0.98527 -0.00614257 0)
(0.984418 0.000268223 0)
(0.98641 0.00260688 0)
(0.987907 0.00433673 0)
(0.988203 0.00776142 0)
(0.991824 0.00883969 0)
(0.994465 0.00844922 0)
(0.995201 0.00921193 0)
(0.994985 0.0100899 0)
(1.00129 -0.000403312 0)
(0.998758 -0.00134617 0)
(0.997833 -0.00120215 0)
(0.996263 0.00138258 0)
(1.00103 0.0058333 0)
(1.00396 0.000798612 0)
(1.00507 -0.00292065 0)
(1.00296 -0.00778049 0)
(0.998706 -0.0111921 0)
(0.991774 -0.00881876 0)
(0.98933 -0.00783812 0)
(0.986104 -0.00575806 0)
(0.985305 6.77082e-05 0)
(0.986929 0.00263483 0)
(0.988546 0.00414064 0)
(0.988825 0.00718299 0)
(0.992035 0.00850134 0)
(0.994625 0.00821325 0)
(0.995529 0.00877209 0)
(0.995248 0.00953472 0)
(1.00123 -0.000366574 0)
(0.99877 -0.00133252 0)
(0.997953 -0.000997584 0)
(0.996561 0.001241 0)
(1.00098 0.00531356 0)
(1.00354 0.000814361 0)
(1.00465 -0.00294086 0)
(1.00258 -0.00727349 0)
(0.998773 -0.0104957 0)
(0.992161 -0.00841936 0)
(0.989724 -0.00718598 0)
(0.986904 -0.00534594 0)
(0.9862 -0.000108704 0)
(0.987474 0.00261772 0)
(0.989153 0.00399532 0)
(0.98946 0.00664932 0)
(0.992301 0.00813229 0)
(0.994782 0.00796082 0)
(0.995827 0.00836448 0)
(0.995541 0.00902878 0)
(1.00117 -0.000329338 0)
(0.998789 -0.00131733 0)
(0.998072 -0.000808297 0)
(0.996842 0.00111791 0)
(1.00094 0.00479744 0)
(1.00314 0.000825517 0)
(1.00425 -0.00291444 0)
(1.00222 -0.00680632 0)
(0.998833 -0.00980807 0)
(0.992562 -0.00801253 0)
(0.990136 -0.00657049 0)
(0.987667 -0.00491474 0)
(0.987093 -0.000261222 0)
(0.988049 0.00255261 0)
(0.989732 0.00388704 0)
(0.990095 0.00616794 0)
(0.992612 0.00773521 0)
(0.994946 0.00769175 0)
(0.996107 0.00798663 0)
(0.995842 0.00855951 0)
(1.00111 -0.000291857 0)
(0.998814 -0.00129842 0)
(0.99819 -0.000634975 0)
(0.997107 0.00101359 0)
(1.00091 0.00428848 0)
(1.00275 0.000817204 0)
(1.00386 -0.0028439 0)
(1.00188 -0.00636715 0)
(0.99889 -0.00912694 0)
(0.992974 -0.0076001 0)
(0.990566 -0.00600018 0)
(0.988395 -0.0044693 0)
(0.987975 -0.000392546 0)
(0.988654 0.00244532 0)
(0.990292 0.00379342 0)
(0.990721 0.00574188 0)
(0.992966 0.00730335 0)
(0.995125 0.00740699 0)
(0.996367 0.00762705 0)
(0.996144 0.00810492 0)
(1.00105 -0.000254951 0)
(0.998845 -0.00127439 0)
(0.998308 -0.000481026 0)
(0.997352 0.000935259 0)
(1.00088 0.00379556 0)
(1.00238 0.000796329 0)
(1.00349 -0.00273515 0)
(1.00158 -0.00594511 0)
(0.998946 -0.00846511 0)
(0.993392 -0.00719276 0)
(0.991019 -0.00547076 0)
(0.989089 -0.00401278 0)
(0.988839 -0.000483138 0)
(0.989293 0.00231069 0)
(0.99084 0.00370017 0)
(0.991328 0.00537145 0)
(0.993353 0.00686038 0)
(0.995327 0.00710012 0)
(0.996615 0.00728129 0)
(0.996445 0.00767335 0)
(1.001 -0.000220932 0)
(0.998881 -0.00123762 0)
(0.998427 -0.000356951 0)
(0.997579 0.000883272 0)
(1.00087 0.00332691 0)
(1.00203 0.000759661 0)
(1.00312 -0.0025958 0)
(1.00129 -0.00552934 0)
(0.999 -0.0078287 0)
(0.993817 -0.00678147 0)
(0.991494 -0.0049758 0)
(0.989755 -0.00355925 0)
(0.989677 -0.00051644 0)
(0.989958 0.00214517 0)
(0.991387 0.00358854 0)
(0.991915 0.00504204 0)
(0.993764 0.00642646 0)
(0.995554 0.0067706 0)
(0.996854 0.0069434 0)
(0.996742 0.00726509 0)
(1.00094 -0.000188961 0)
(0.998921 -0.00119057 0)
(0.998547 -0.000263063 0)
(0.997787 0.000855883 0)
(1.00086 0.00288653 0)
(1.00171 0.000692855 0)
(1.00278 -0.00244161 0)
(1.00103 -0.00511813 0)
(0.999053 -0.00720653 0)
(0.994246 -0.00637033 0)
(0.991991 -0.00452671 0)
(0.990396 -0.00311444 0)
(0.990481 -0.000504064 0)
(0.990642 0.00197246 0)
(0.99194 0.00345524 0)
(0.992484 0.00474209 0)
(0.994191 0.00600929 0)
(0.995808 0.00641997 0)
(0.997093 0.00660417 0)
(0.997034 0.00687833 0)
(1.00088 -0.000161443 0)
(0.998964 -0.00112641 0)
(0.998668 -0.000201628 0)
(0.997976 0.000841537 0)
(1.00085 0.00248657 0)
(1.00141 0.000604265 0)
(1.00245 -0.00227823 0)
(1.00079 -0.00471513 0)
(0.999107 -0.00659246 0)
(0.994674 -0.00594707 0)
(0.992512 -0.00412622 0)
(0.99102 -0.0026911 0)
(0.991248 -0.000443925 0)
(0.991336 0.00180391 0)
(0.992501 0.00328825 0)
(0.99304 0.00445626 0)
(0.994628 0.00561135 0)
(0.996087 0.00605303 0)
(0.997339 0.0062534 0)
(0.997325 0.00649538 0)
(1.00082 -0.000137791 0)
(0.999007 -0.0010492 0)
(0.998788 -0.000163382 0)
(0.998148 0.000825553 0)
(1.00084 0.00214903 0)
(1.00114 0.000509133 0)
(1.00215 -0.00211726 0)
(1.00058 -0.00431577 0)
(0.999161 -0.00598555 0)
(0.995096 -0.00550541 0)
(0.99305 -0.00375948 0)
(0.991633 -0.00230942 0)
(0.991975 -0.000352695 0)
(0.992024 0.00165021 0)
(0.993072 0.00310539 0)
(0.99359 0.00418112 0)
(0.995072 0.00522625 0)
(0.996387 0.00568522 0)
(0.997594 0.00590311 0)
(0.997619 0.00611213 0)
(1.00077 -0.000116607 0)
(0.999049 -0.00096689 0)
(0.998908 -0.000138637 0)
(0.998308 0.000803173 0)
(1.00083 0.00186868 0)
(1.0009 0.000417486 0)
(1.00187 -0.00196699 0)
(1.00039 -0.00392925 0)
(0.999218 -0.00539327 0)
(0.995508 -0.00504979 0)
(0.993601 -0.00342134 0)
(0.99224 -0.00196836 0)
(0.992667 -0.000248844 0)
(0.992704 0.00152408 0)
(0.993647 0.00291748 0)
(0.99413 0.0039154 0)
(0.99552 0.00484992 0)
(0.996709 0.0053202 0)
(0.997857 0.00555948 0)
(0.997917 0.00573522 0)
(1.00071 -9.82132e-05 0)
(0.999091 -0.000879335 0)
(0.999024 -0.00011791 0)
(0.998455 0.000761981 0)
(1.00082 0.0016395 0)
(1.00067 0.000340614 0)
(1.00161 -0.00181704 0)
(1.00024 -0.00356813 0)
(0.999281 -0.00482029 0)
(0.995907 -0.00458324 0)
(0.994157 -0.00310347 0)
(0.992843 -0.00167841 0)
(0.993325 -0.000136564 0)
(0.993367 0.00141309 0)
(0.994222 0.00272544 0)
(0.994661 0.00366389 0)
(0.995969 0.00450198 0)
(0.997053 0.00495229 0)
(0.998132 0.00521607 0)
(0.99821 0.00538193 0)
(1.00066 -7.99853e-05 0)
(0.99913 -0.000795883 0)
(0.999136 -9.13184e-05 0)
(0.998595 0.000697472 0)
(1.0008 0.00144785 0)
(1.00046 0.000297041 0)
(1.00138 -0.00165867 0)
(1.00011 -0.003234 0)
(0.999353 -0.00427434 0)
(0.996289 -0.00411051 0)
(0.994707 -0.0027938 0)
(0.993443 -0.00143818 0)
(0.993956 -3.17575e-05 0)
(0.994008 0.0013194 0)
(0.994796 0.00253299 0)
(0.995187 0.00341575 0)
(0.99641 0.00417814 0)
(0.997407 0.0045898 0)
(0.998427 0.00485752 0)
(0.9985 0.00504368 0)
(1.00061 -6.11193e-05 0)
(0.999169 -0.000720573 0)
(0.99924 -5.66608e-05 0)
(0.998725 0.000620885 0)
(1.00079 0.00127444 0)
(1.00027 0.000290322 0)
(1.00117 -0.00148309 0)
(1.00001 -0.00291497 0)
(0.99944 -0.00377344 0)
(0.996656 -0.00363881 0)
(0.995244 -0.00248862 0)
(0.994035 -0.00122677 0)
(0.994564 5.29925e-05 0)
(0.994626 0.00124607 0)
(0.995363 0.00235239 0)
(0.995708 0.00317445 0)
(0.996847 0.0038756 0)
(0.997764 0.00425755 0)
(0.998737 0.00449024 0)
(0.998799 0.00470168 0)
(1.00056 -4.11878e-05 0)
(0.999207 -0.000651461 0)
(0.999337 -1.60641e-05 0)
(0.998846 0.000540638 0)
(1.00079 0.00111088 0)
(1.00011 0.000306709 0)
(1.00097 -0.00128878 0)
(0.999926 -0.00259645 0)
(0.99954 -0.00331933 0)
(0.99701 -0.00318194 0)
(0.995762 -0.00218101 0)
(0.994612 -0.00103443 0)
(0.995151 0.00012065 0)
(0.995225 0.001175 0)
(0.995919 0.00218208 0)
(0.996224 0.00294398 0)
(0.99728 0.00358391 0)
(0.998112 0.00395623 0)
(0.999051 0.00414273 0)
(0.999115 0.00434889 0)
(1.00051 -1.81578e-05 0)
(0.999245 -0.000594694 0)
(0.999425 3.39672e-05 0)
(0.998956 0.000462557 0)
(1.00079 0.000943136 0)
(0.999963 0.000332899 0)
(1.00079 -0.00106871 0)
(0.999861 -0.00228399 0)
(0.999652 -0.00290686 0)
(0.997356 -0.00276115 0)
(0.996258 -0.00186703 0)
(0.995168 -0.000846837 0)
(0.995713 0.000185867 0)
(0.995801 0.00110236 0)
(0.996465 0.00200954 0)
(0.996731 0.0027258 0)
(0.997716 0.00329494 0)
(0.998462 0.00366345 0)
(0.999354 0.00383445 0)
(0.999441 0.00399129 0)
(1.00046 8.26181e-06 0)
(0.999286 -0.000551899 0)
(0.999506 8.66267e-05 0)
(0.999052 0.000402676 0)
(1.00081 0.000769999 0)
(0.999853 0.000358243 0)
(1.00063 -0.00081921 0)
(0.999804 -0.00196349 0)
(0.999772 -0.00253681 0)
(0.997697 -0.00238738 0)
(0.996738 -0.00156754 0)
(0.995701 -0.000661801 0)
(0.996247 0.000244308 0)
(0.996349 0.00103871 0)
(0.997 0.00183959 0)
(0.997228 0.00251635 0)
(0.998143 0.0030321 0)
(0.998819 0.00337016 0)
(0.999647 0.00355293 0)
(0.999758 0.00365747 0)
(1.00041 3.60898e-05 0)
(0.999328 -0.000520204 0)
(0.999584 0.000132188 0)
(0.999134 0.000368136 0)
(1.00084 0.000602119 0)
(0.999783 0.000371449 0)
(1.00049 -0.000555672 0)
(0.99975 -0.00161842 0)
(0.999891 -0.00218997 0)
(0.998034 -0.00205081 0)
(0.997202 -0.00129698 0)
(0.996209 -0.000475142 0)
(0.996752 0.000304746 0)
(0.996869 0.000986796 0)
(0.997518 0.00167637 0)
(0.997721 0.00229336 0)
(0.998562 0.00278017 0)
(0.999177 0.00308176 0)
(0.999937 0.00326813 0)
(1.00006 0.00335543 0)
(1.00037 7.06656e-05 0)
(0.999372 -0.000489942 0)
(0.999662 0.000160106 0)
(0.999201 0.00035364 0)
(1.00087 0.00045057 0)
(0.999755 0.000363158 0)
(1.00038 -0.00029945 0)
(0.999696 -0.00126526 0)
(1 -0.00185288 0)
(0.998363 -0.00176464 0)
(0.997658 -0.00106091 0)
(0.996698 -0.000300311 0)
(0.997226 0.00037677 0)
(0.997356 0.000950456 0)
(0.998009 0.00153329 0)
(0.998204 0.0020753 0)
(0.998977 0.00253106 0)
(0.999532 0.00281388 0)
(1.00023 0.00298634 0)
(1.00034 0.00308499 0)
(1.00033 9.15778e-05 0)
(0.999415 -0.000454283 0)
(0.99974 0.000190343 0)
(0.999256 0.000365999 0)
(1.00091 0.00032732 0)
(0.999771 0.000339893 0)
(1.00031 -6.72356e-05 0)
(0.999646 -0.000907602 0)
(1.0001 -0.00151665 0)
(0.998683 -0.00150689 0)
(0.998109 -0.000868932 0)
(0.997173 -0.000154643 0)
(0.997676 0.000447324 0)
(0.997812 0.000922711 0)
(0.998473 0.00140361 0)
(0.998671 0.00187019 0)
(0.999391 0.00227801 0)
(0.999885 0.00255668 0)
(1.00053 0.00270605 0)
(1.00062 0.00282097 0)
(1.00029 0.000134005 0)
(0.999465 -0.000466137 0)
(0.999825 0.000174004 0)
(0.999302 0.0004369 0)
(1.00095 0.000279738 0)
(0.999829 0.000311826 0)
(1.00029 0.000118491 0)
(0.999607 -0.000570144 0)
(1.00018 -0.00119271 0)
(0.998982 -0.00125398 0)
(0.998552 -0.000715779 0)
(0.997642 -3.36446e-05 0)
(0.998104 0.0005144 0)
(0.998235 0.000916649 0)
(0.998905 0.00129875 0)
(0.999116 0.00169045 0)
(0.9998 0.00203407 0)
(1.00024 0.00229961 0)
(1.00083 0.00243334 0)
(1.00089 0.00255179 0)
(1.00026 0.000157723 0)
(0.999507 -0.000410246 0)
(0.999936 0.000177088 0)
(0.999364 0.000506828 0)
(1.00098 0.000267304 0)
(0.999912 0.000247589 0)
(1.00031 0.000235047 0)
(0.999583 -0.000272614 0)
(1.00025 -0.000874638 0)
(0.999257 -0.00101671 0)
(0.998981 -0.000585476 0)
(0.998108 4.60565e-05 0)
(0.998522 0.000563081 0)
(0.998632 0.000914346 0)
(0.999304 0.00121693 0)
(0.99953 0.00152845 0)
(1.00019 0.0018054 0)
(1.00059 0.00204483 0)
(1.00113 0.00216963 0)
(1.00118 0.00227953 0)
(1.00023 0.000174954 0)
(0.999554 -0.000308119 0)
(1.00004 0.000201113 0)
(0.999412 0.000551932 0)
(1.00099 0.000293914 0)
(1.00001 0.00018436 0)
(1.00038 0.000284829 0)
(0.999591 -2.31966e-05 0)
(1.00031 -0.000559418 0)
(0.999501 -0.000781534 0)
(0.999388 -0.000467408 0)
(0.998569 9.54097e-05 0)
(0.998934 0.000586229 0)
(0.999009 0.000906933 0)
(0.999669 0.00114917 0)
(0.999907 0.00139227 0)
(1.00056 0.00159963 0)
(1.00093 0.00180298 0)
(1.00143 0.00191785 0)
(1.00147 0.00201301 0)
(1.0002 0.000208732 0)
(0.999589 -0.000241207 0)
(1.00014 0.000203348 0)
(0.999477 0.000597442 0)
(1.00099 0.000372193 0)
(1.00011 0.00016124 0)
(1.00049 0.000289147 0)
(0.99964 0.000175217 0)
(1.00036 -0.000271309 0)
(0.99971 -0.000529152 0)
(0.999764 -0.000349121 0)
(0.999019 0.000128049 0)
(0.999345 0.000576527 0)
(0.999373 0.00088991 0)
(1.00001 0.00108032 0)
(1.00025 0.00127799 0)
(1.00089 0.00141997 0)
(1.00125 0.00157232 0)
(1.00172 0.00167053 0)
(1.00174 0.00175765 0)
(1.00018 0.000220713 0)
(0.999624 -0.000146781 0)
(1.00025 0.000226568 0)
(0.999548 0.000623445 0)
(1.00099 0.000460327 0)
(1.0002 0.000188948 0)
(1.00064 0.000273727 0)
(0.999732 0.000318055 0)
(1.00042 -2.35429e-05 0)
(0.999888 -0.000281724 0)
(1.00009 -0.000226879 0)
(0.999442 0.000144309 0)
(0.99975 0.000540348 0)
(0.999729 0.000847208 0)
(1.00033 0.00101333 0)
(1.00057 0.0011677 0)
(1.00119 0.00126857 0)
(1.00155 0.00136833 0)
(1.002 0.00143041 0)
(1.002 0.0015241 0)
(1.00016 0.000228636 0)
(0.999651 -3.57154e-05 0)
(1.00034 0.000259923 0)
(0.999631 0.000632671 0)