/*--------------------------------*- C++ -*----------------------------------*\
| =========                 |                                                 |
| \\      /  F ield         | OpenFOAM: The Open Source CFD Toolbox           |
|  \\    /   O peration     | Version:  v1812                                 |
|   \\  /    A nd           | Web:      www.OpenFOAM.com                      |
|    \\/     M anipulation  |                                                 |
\*---------------------------------------------------------------------------*/
FoamFile
{
    version     2.0;
    format      ascii;
    class       volScalarField;
    location    "10.3";
    object      p;
}
// * * * * * * * * * * * * * * * * * * * * * * * * * * * * * * * * * * * * * //

dimensions      [0 2 -2 0 0 0 0];


internalField   nonuniform List<scalar> 
9600
(
1.04107e-10
-0.00438873
-0.000696424
0.00225379
-0.00216351
-0.00109623
-0.00447023
-0.00577508
-0.00660649
-0.0069378
-0.00840155
-0.00981957
-0.0104528
-0.0109482
-0.0122219
-0.0143253
-0.0164249
-0.0171315
-0.0182585
-0.0186222
2.96148e-06
-0.00438404
-0.000770943
0.00223036
-0.002137
-0.00131127
-0.00447397
-0.00575486
-0.00663168
-0.00691419
-0.00839483
-0.00983189
-0.0104504
-0.0109937
-0.012211
-0.014383
-0.0163999
-0.0171482
-0.0182465
-0.0186877
7.97724e-06
-0.00437893
-0.000810113
0.00220112
-0.00209268
-0.00141989
-0.00446454
-0.0057237
-0.00665871
-0.00688163
-0.00839778
-0.00985383
-0.010452
-0.0110496
-0.0121978
-0.0144534
-0.0163497
-0.0171796
-0.0182313
-0.0187791
1.12924e-05
-0.00437368
-0.000852907
0.00216717
-0.00206371
-0.00153313
-0.00444111
-0.0056932
-0.00668699
-0.0068643
-0.00840852
-0.00987961
-0.0104607
-0.011113
-0.0121917
-0.0145212
-0.0163032
-0.0172049
-0.0182274
-0.0188771
1.20551e-05
-0.0043681
-0.000900087
0.00212561
-0.00205321
-0.00164385
-0.00440163
-0.00566948
-0.0067232
-0.00686224
-0.00842039
-0.0099103
-0.0104762
-0.0111835
-0.0121865
-0.0145883
-0.0162613
-0.0172176
-0.0182453
-0.0189589
1.05025e-05
-0.00436233
-0.000951157
0.00207457
-0.00205508
-0.00174309
-0.00434862
-0.00565933
-0.00676963
-0.00686885
-0.00843155
-0.00994587
-0.0104966
-0.0112565
-0.0121793
-0.0146559
-0.0162154
-0.0172256
-0.018281
-0.0190133
6.83976e-06
-0.00435656
-0.00100515
0.00201312
-0.00206686
-0.00182924
-0.00428899
-0.00566561
-0.00682514
-0.00687959
-0.00844239
-0.0099836
-0.0105185
-0.0113292
-0.0121738
-0.0147199
-0.0161688
-0.017232
-0.0183261
-0.0190516
1.29671e-06
-0.00435081
-0.00106109
0.00194089
-0.00208757
-0.00190584
-0.00422978
-0.00568576
-0.00688715
-0.00689207
-0.00845283
-0.010022
-0.0105394
-0.0114015
-0.0121721
-0.0147787
-0.0161293
-0.0172321
-0.0183802
-0.0190855
-5.70099e-06
-0.00434495
-0.00111848
0.00185816
-0.00211566
-0.00197808
-0.00417458
-0.00571525
-0.0069534
-0.006905
-0.00846315
-0.0100618
-0.0105585
-0.0114744
-0.0121746
-0.0148328
-0.0161007
-0.017223
-0.0184471
-0.0191187
-1.36801e-05
-0.00433874
-0.00117727
0.00176567
-0.00214918
-0.00205024
-0.00412405
-0.00574974
-0.00702266
-0.00691796
-0.00847398
-0.0101041
-0.0105762
-0.0115487
-0.0121817
-0.0148821
-0.0160848
-0.017205
-0.0185264
-0.0191519
-2.22813e-05
-0.00433224
-0.0012377
0.00166426
-0.00218627
-0.00212465
-0.00407748
-0.0057864
-0.00709466
-0.00693109
-0.00848583
-0.0101498
-0.0105938
-0.0116243
-0.0121938
-0.0149256
-0.0160836
-0.0171782
-0.0186146
-0.0191886
-3.13061e-05
-0.00432564
-0.00130017
0.00155475
-0.00222539
-0.0022021
-0.00403406
-0.00582367
-0.00716954
-0.00694459
-0.00849881
-0.0101997
-0.0106121
-0.0117001
-0.0122115
-0.0149619
-0.0160983
-0.0171432
-0.0187071
-0.0192338
-4.07055e-05
-0.00431922
-0.00136502
0.001438
-0.0022654
-0.00228278
-0.00399348
-0.00586071
-0.00724757
-0.00695868
-0.00851296
-0.0102544
-0.0106318
-0.0117751
-0.0122356
-0.01499
-0.0161296
-0.0171019
-0.0187988
-0.0192913
-5.05263e-05
-0.00431324
-0.00143252
0.00131493
-0.00230556
-0.00236686
-0.00395568
-0.00589701
-0.00732906
-0.00697352
-0.00852814
-0.0103138
-0.0106534
-0.0118478
-0.0122672
-0.0150092
-0.0161769
-0.0170577
-0.018884
-0.0193638
-6.08752e-05
-0.00430788
-0.00150283
0.00118643
-0.0023456
-0.00245451
-0.00392104
-0.00593226
-0.00741432
-0.00698927
-0.00854407
-0.0103779
-0.0106775
-0.011917
-0.0123076
-0.0150198
-0.0162382
-0.0170149
-0.0189575
-0.019452
-7.19125e-05
-0.00430327
-0.00157605
0.00105316
-0.00238551
-0.00254584
-0.00389007
-0.00596613
-0.00750359
-0.00700607
-0.00856048
-0.0104463
-0.0107047
-0.0119816
-0.0123575
-0.015023
-0.0163113
-0.0169773
-0.0190145
-0.0195554
-8.38502e-05
-0.00429951
-0.00165226
0.000915575
-0.00242539
-0.00264084
-0.00386347
-0.00599827
-0.00759701
-0.0070241
-0.00857718
-0.0105188
-0.0107355
-0.0120409
-0.012417
-0.0150202
-0.0163932
-0.0169487
-0.0190523
-0.019672
-9.69331e-05
-0.00429662
-0.0017316
0.000773961
-0.00246544
-0.00273938
-0.00384208
-0.00602825
-0.00769466
-0.00704361
-0.00859379
-0.0105951
-0.0107703
-0.0120949
-0.0124855
-0.0150128
-0.0164816
-0.0169325
-0.019069
-0.0197985
-0.000111418
-0.00429462
-0.00181423
0.000628613
-0.00250594
-0.00284124
-0.00382669
-0.00605566
-0.00779657
-0.00706495
-0.00860981
-0.0106755
-0.0108094
-0.0121437
-0.0125621
-0.0150025
-0.0165743
-0.0169305
-0.0190631
-0.019931
-0.000127565
-0.00429344
-0.00190033
0.000479847
-0.00254722
-0.00294611
-0.00381805
-0.00608017
-0.00790261
-0.00708867
-0.00862465
-0.01076
-0.0108529
-0.0121873
-0.0126463
-0.0149905
-0.016669
-0.0169441
-0.0190338
-0.0200647
-0.000145633
-0.00429297
-0.00199012
0.000327971
-0.00258964
-0.00305363
-0.00381685
-0.00610156
-0.00801254
-0.00711556
-0.00863769
-0.0108488
-0.0109007
-0.0122262
-0.0127381
-0.0149772
-0.0167637
-0.0169762
-0.0189811
-0.0201931
-0.00016591
-0.00429303
-0.00208384
0.00017327
-0.00263357
-0.00316341
-0.00382381
-0.00611968
-0.00812601
-0.00714661
-0.00864809
-0.0109424
-0.010953
-0.0122603
-0.0128378
-0.0149623
-0.0168561
-0.0170302
-0.0189061
-0.0203069
-0.000188719
-0.00429348
-0.00218179
1.57172e-05
-0.00267941
-0.00327494
-0.00383969
-0.00613456
-0.00824246
-0.0071832
-0.00865449
-0.0110413
-0.0110102
-0.0122886
-0.0129462
-0.0149464
-0.0169421
-0.0171093
-0.018813
-0.0203946
-0.000214424
-0.00429381
-0.0022843
-0.000143884
-0.00272755
-0.00338773
-0.00386519
-0.00614644
-0.00836112
-0.00722687
-0.00865562
-0.0111455
-0.0110736
-0.0123096
-0.0130639
-0.0149316
-0.017016
-0.0172151
-0.0187103
-0.0204437
-0.000243434
-0.00429386
-0.0023917
-0.000305609
-0.00277845
-0.00350142
-0.00390071
-0.00615571
-0.00848097
-0.00727938
-0.00865045
-0.0112543
-0.0111448
-0.0123219
-0.013191
-0.0149218
-0.0170716
-0.0173467
-0.0186103
-0.0204424
-0.000276202
-0.00429327
-0.00250437
-0.000469195
-0.00283264
-0.00361575
-0.00394647
-0.00616292
-0.00860075
-0.00734277
-0.00863816
-0.0113667
-0.011226
-0.0123237
-0.0133262
-0.0149221
-0.0171028
-0.0174989
-0.0185286
-0.0203841
-0.000313252
-0.00429167
-0.00262267
-0.000634437
-0.00289045
-0.0037305
-0.00400266
-0.0061689
-0.00871873
-0.007419
-0.00861878
-0.0114807
-0.0113199
-0.0123137
-0.0134668
-0.0149394
-0.0171052
-0.0176613
-0.0184826
-0.0202735
-0.000355135
-0.00428865
-0.00274697
-0.000801174
-0.00295219
-0.00384564
-0.00406916
-0.00617478
-0.00883306
-0.00750959
-0.00859301
-0.0115936
-0.0114296
-0.0122914
-0.0136078
-0.014981
-0.0170784
-0.0178195
-0.0184858
-0.0201278
-0.000402457
-0.00428376
-0.00287757
-0.000969321
-0.00301805
-0.00396129
-0.00414545
-0.00618196
-0.00894196
-0.00761557
-0.00856231
-0.011702
-0.0115581
-0.0122581
-0.0137427
-0.0150537
-0.0170285
-0.0179561
-0.0185408
-0.0199727
-0.000455906
-0.00427653
-0.00301473
-0.0011389
-0.00308803
-0.00407791
-0.00423064
-0.006192
-0.00904416
-0.00773746
-0.00852888
-0.011802
-0.0117078
-0.0122172
-0.0138636
-0.0151612
-0.0169662
-0.0180538
-0.0186369
-0.0198408
-0.00051617
-0.0042665
-0.00315863
-0.00130997
-0.00316199
-0.00419615
-0.00432358
-0.00620638
-0.0091393
-0.00787518
-0.0084953
-0.0118897
-0.0118802
-0.0121741
-0.0139618
-0.0153028
-0.0169047
-0.0181001
-0.0187552
-0.0197622
-0.000584011
-0.00425322
-0.00330929
-0.00148288
-0.00323928
-0.00431703
-0.00442298
-0.00622611
-0.00922719
-0.00802823
-0.0084649
-0.0119616
-0.0120748
-0.0121354
-0.01403
-0.0154734
-0.016859
-0.0180921
-0.018872
-0.0197501
-0.000660246
-0.00423628
-0.00346652
-0.00165821
-0.00331893
-0.00444199
-0.0045278
-0.00625151
-0.00930804
-0.00819552
-0.00844099
-0.0120149
-0.0122906
-0.0121087
-0.0140621
-0.0156647
-0.0168445
-0.0180362
-0.0189609
-0.0197952
-0.00074564
-0.00421538
-0.00362991
-0.00183678
-0.00339976
-0.00457241
-0.00463794
-0.00628248
-0.00938246
-0.00837521
-0.00842608
-0.0120478
-0.0125254
-0.0121026
-0.0140543
-0.015866
-0.0168741
-0.017946
-0.0189989
-0.0198716
-0.000840936
-0.00419028
-0.00379887
-0.00201957
-0.00348027
-0.00470946
-0.0047537
-0.00631829
-0.00945141
-0.00856566
-0.00842268
-0.0120587
-0.0127751
-0.0121265
-0.0140062
-0.0160625
-0.0169553
-0.0178393
-0.0189758
-0.0199501
-0.000946926
-0.00416098
-0.00397224
-0.002208
-0.00355894
-0.00485349
-0.00487619
-0.00635793
-0.00951587
-0.00876612
-0.00843346
-0.0120465
-0.0130339
-0.0121891
-0.0139214
-0.016238
-0.0170906
-0.0177359
-0.0188922
-0.0200027
-0.00106432
-0.00412774
-0.00414827
-0.00240391
-0.00363421
-0.00500385
-0.00500793
-0.00640005
-0.00957602
-0.00897592
-0.00846113
-0.0120115
-0.013295
-0.0122974
-0.0138077
-0.0163748
-0.0172772
-0.0176573
-0.0187539
-0.0200098
-0.00119373
-0.00409102
-0.00432494
-0.00260928
-0.00370508
-0.00515933
-0.0051517
-0.00644311
-0.00963067
-0.00919498
-0.0085092
-0.0119546
-0.01355
-0.0124566
-0.013679
-0.0164544
-0.0175038
-0.0176276
-0.0185712
-0.019957
-0.00133563
-0.00405181
-0.00449956
-0.00282604
-0.00377172
-0.0053174
-0.00531059
-0.00648692
-0.00967772
-0.00942336
-0.00858194
-0.0118769
-0.0137899
-0.0126697
-0.0135532
-0.016461
-0.0177483
-0.0176708
-0.0183654
-0.0198299
-0.00149029
-0.00401155
-0.00466888
-0.00305617
-0.00383536
-0.00547434
-0.00548778
-0.006533
-0.00971365
-0.00966021
-0.00868392
-0.0117808
-0.0140047
-0.0129348
-0.0134507
-0.0163888
-0.0179811
-0.017799
-0.0181718
-0.0196214
-0.00165786
-0.00397203
-0.00482917
-0.00330126
-0.00389842
-0.00562577
-0.00568571
-0.00658408
-0.00973455
-0.00990306
-0.00881975
-0.0116712
-0.0141845
-0.0132445
-0.0133914
-0.0162453
-0.0181699
-0.0180027
-0.0180337
-0.0193468
-0.00183823
-0.0039356
-0.00497653
-0.00356191
-0.0039645
-0.00576671
-0.00590551
-0.00664476
-0.00973676
-0.0101471
-0.00899453
-0.0115561
-0.0143187
-0.0135867
-0.0133938
-0.016049
-0.0182857
-0.0182537
-0.0179854
-0.0190435
-0.00203096
-0.00390502
-0.00510743
-0.00383779
-0.0040383
-0.00589196
-0.00614605
-0.00672191
-0.00971776
-0.0103865
-0.00921282
-0.0114459
-0.014398
-0.0139456
-0.0134719
-0.015824
-0.0183091
-0.0185182
-0.0180379
-0.0187605
-0.00223534
-0.00388315
-0.00521901
-0.00412754
-0.00412556
-0.00599684
-0.0064035
-0.00682468
-0.00967873
-0.0106127
-0.00947504
-0.0113535
-0.014417
-0.0143024
-0.0136315
-0.0155993
-0.0182335
-0.0187606
-0.0181793
-0.0185428
-0.00245038
-0.00387296
-0.00530918
-0.00442856
-0.0042328
-0.00607897
-0.00667194
-0.00696265
-0.00962555
-0.0108145
-0.00977495
-0.011294
-0.014378
-0.014635
-0.0138657
-0.0154072
-0.018068
-0.0189468
-0.0183849
-0.0184167
-0.00267473
-0.00387734
-0.00537727
-0.00473665
-0.00436672
-0.00613892
-0.00694125
-0.00714258
-0.00956754
-0.0109814
-0.0101017
-0.0112808
-0.0142906
-0.0149214
-0.0141565
-0.0152772
-0.0178376
-0.0190488
-0.0186235
-0.0183887
-0.00290658
-0.00389891
-0.0054246
-0.00504563
-0.00453367
-0.0061799
-0.00719791
-0.00736508
-0.00951905
-0.0111079
-0.0104407
-0.0113227
-0.014172
-0.0151456
-0.01448
-0.0152265
-0.0175765
-0.0190528
-0.0188586
-0.0184522
-0.00314384
-0.00394017
-0.00545387
-0.00534851
-0.00473827
-0.00620961
-0.00742952
-0.00762467
-0.00949609
-0.0111947
-0.0107755
-0.0114208
-0.0140414
-0.0153003
-0.0148113
-0.015257
-0.0173216
-0.0189658
-0.0190524
-0.0185871
-0.00338397
-0.00400332
-0.00546983
-0.00563769
-0.00498149
-0.00624058
-0.00762764
-0.00790942
-0.00951187
-0.0112496
-0.0110913
-0.0115686
-0.0139181
-0.0153873
-0.0151273
-0.0153594
-0.0171038
-0.018812
-0.0191754
-0.0187595
-0.00362438
-0.00409003
-0.00547875
-0.00590547
-0.00526072
-0.00628821
-0.0077895
-0.00820305
-0.00957175
-0.0112831
-0.0113773
-0.0117549
-0.0138194
-0.0154163
-0.0154082
-0.0155163
-0.0169427
-0.0186215
-0.0192176
-0.0189293
-0.00386291
-0.00420143
-0.00548784
-0.00614537
-0.00557006
-0.00636664
-0.00791835
-0.00849032
-0.00967371
-0.0113079
-0.0116279
-0.0119668
-0.0137565
-0.0154024
-0.0156394
-0.0157061
-0.0168459
-0.0184241
-0.0191905
-0.019062
-0.00409764
-0.00433722
-0.00550543
-0.00635406
-0.00589982
-0.00648501
-0.00802025
-0.00875939
-0.00981221
-0.0113366
-0.0118431
-0.0121915
-0.0137337
-0.0153627
-0.0158161
-0.0159069
-0.0168094
-0.0182424
-0.0191162
-0.0191424
-0.00432757
-0.00449551
-0.00553849
-0.00653157
-0.00623903
-0.00664883
-0.00810855
-0.00900212
-0.00997566
-0.0113758
-0.0120246
-0.0124164
-0.0137494
-0.015313
-0.0159425
-0.0161015
-0.0168219
-0.0180884
-0.0190136
-0.0191743
-0.00455223
-0.00467372
-0.00559189
-0.00667929
-0.00657447
-0.00685825
-0.00820357
-0.00921897
-0.0101535
-0.011431
-0.0121771
-0.0126311
-0.013798
-0.0152658
-0.0160246
-0.0162746
-0.0168686
-0.0179647
-0.018895
-0.0191671
-0.00477126
-0.00486812
-0.00566957
-0.00680373
-0.00689353
-0.00710832
-0.00831856
-0.00941107
-0.0103362
-0.0115026
-0.0123068
-0.01283
-0.0138745
-0.0152339
-0.016074
-0.0164181
-0.0169374
-0.0178759
-0.0187717
-0.0191295
-0.00498702
-0.00507572
-0.00577311
-0.00691249
-0.00719019
-0.00738821
-0.00845927
-0.00958453
-0.0105168
-0.0115876
-0.0124175
-0.0130079
-0.0139686
-0.0152227
-0.0161041
-0.0165304
-0.0170138
-0.017821
-0.0186531
-0.0190657
-0.00519859
-0.00529596
-0.00590294
-0.00701414
-0.00746372
-0.00768643
-0.00862805
-0.00974707
-0.0106927
-0.0116858
-0.0125156
-0.0131618
-0.0140695
-0.0152292
-0.0161259
-0.0166177
-0.0170836
-0.0177882
-0.0185457
-0.0189819
-0.00540397
-0.0055056
-0.00605473
-0.00713755
-0.00773013
-0.00799438
-0.00881559
-0.00990027
-0.0108585
-0.0117946
-0.0126083
-0.0132935
-0.0141704
-0.0152514
-0.0161469
-0.0166911
-0.0171484
-0.017771
-0.0184564
-0.0188922
-0.00561065
-0.00572893
-0.00622869
-0.00727112
-0.00797695
-0.0082971
-0.00901845
-0.0100494
-0.011016
-0.0119137
-0.0127018
-0.0134049
-0.0142615
-0.0152814
-0.0161651
-0.0167512
-0.0172103
-0.0177639
-0.0183803
-0.0188011
-0.00581668
-0.00595079
-0.00642598
-0.00741619
-0.00820348
-0.00858996
-0.00923487
-0.0101982
-0.0111659
-0.0120427
-0.0128024
-0.0135034
-0.0143395
-0.0153154
-0.0161837
-0.0167986
-0.0172713
-0.0177713
-0.0183168
-0.0187126
-0.00602613
-0.00617942
-0.00663464
-0.00756816
-0.00841244
-0.00887088
-0.0094627
-0.0103529
-0.0113124
-0.01218
-0.0129148
-0.0135991
-0.0144063
-0.0153446
-0.016203
-0.0168368
-0.017325
-0.0177913
-0.0182671
-0.0186277
-0.00624252
-0.0064127
-0.00685177
-0.00772797
-0.00860926
-0.00914026
-0.00970062
-0.0105157
-0.0114513
-0.0123151
-0.0130328
-0.0136941
-0.0144652
-0.0153609
-0.0162137
-0.0168678
-0.0173675
-0.0178176
-0.0182358
-0.0185497
-0.00646357
-0.0066541
-0.00707665
-0.00789632
-0.00879816
-0.00939686
-0.0099427
-0.0106852
-0.0115815
-0.0124399
-0.0131524
-0.0137944
-0.0145244
-0.0153706
-0.0162094
-0.0168891
-0.0174024
-0.0178449
-0.0182258
-0.0184883
-0.00668458
-0.0068817
-0.00731227
-0.00808885
-0.00898578
-0.00963965
-0.0101841
-0.0108614
-0.0117078
-0.0125537
-0.0132697
-0.0139003
-0.0145885
-0.0153824
-0.016191
-0.0168882
-0.0174234
-0.017863
-0.0182246
-0.0184441
-0.00691058
-0.00711694
-0.00755323
-0.0082918
-0.00917228
-0.0098672
-0.0104207
-0.0110435
-0.0118329
-0.0126553
-0.0133748
-0.0140028
-0.0146567
-0.0154015
-0.0161734
-0.0168698
-0.0174275
-0.0178691
-0.0182191
-0.0184117
-0.0071427
-0.00735411
-0.00779586
-0.00850322
-0.00935858
-0.0100795
-0.0106474
-0.0112307
-0.011961
-0.0127485
-0.013466
-0.0140956
-0.0147221
-0.0154211
-0.0161586
-0.0168455
-0.017418
-0.0178665
-0.0182077
-0.018386
-0.00738036
-0.00759638
-0.0080378
-0.00871915
-0.00954584
-0.0102798
-0.0108637
-0.0114203
-0.0120951
-0.0128398
-0.0135467
-0.0141768
-0.0147829
-0.0154359
-0.0161342
-0.0168108
-0.0173925
-0.0178527
-0.0181927
-0.0183658
-0.00762104
-0.00783498
-0.00827923
-0.00894187
-0.00973792
-0.0104728
-0.0110706
-0.0116092
-0.0122322
-0.0129277
-0.0136157
-0.0142427
-0.0148354
-0.015451
-0.0161009
-0.0167577
-0.0173459
-0.017818
-0.0181636
-0.0183373
-0.00786633
-0.00807714
-0.008519
-0.00916785
-0.0099371
-0.0106615
-0.0112629
-0.0117893
-0.0123689
-0.013011
-0.0136718
-0.0142908
-0.0148702
-0.015461
-0.0160665
-0.0166878
-0.0172761
-0.0177595
-0.0181149
-0.0182953
-0.00811593
-0.00832673
-0.00875768
-0.00939304
-0.0101388
-0.0108474
-0.0114434
-0.0119577
-0.0125031
-0.0130957
-0.0137213
-0.014324
-0.0148835
-0.0154517
-0.0160273
-0.0166061
-0.0171769
-0.0176667
-0.0180329
-0.0182257
-0.00836499
-0.00856946
-0.00899696
-0.0096207
-0.0103435
-0.0110313
-0.0116191
-0.0121202
-0.0126316
-0.0131784
-0.0137628
-0.01434
-0.0148766
-0.015414
-0.0159663
-0.016511
-0.017052
-0.0175389
-0.0179089
-0.018111
-0.00861656
-0.00881826
-0.00923537
-0.00984442
-0.0105475
-0.0112126
-0.011788
-0.0122783
-0.0127577
-0.0132568
-0.0137944
-0.0143334
-0.0148416
-0.0153425
-0.0158676
-0.0163881
-0.0168984
-0.0173774
-0.0177517
-0.01796
-0.00887137
-0.00907071
-0.00947424
-0.0100648
-0.0107481
-0.0113903
-0.0119516
-0.0124315
-0.012884
-0.0133383
-0.013821
-0.0143009
-0.0147626
-0.0152199
-0.0157058
-0.016205
-0.0166932
-0.0171648
-0.0175505
-0.0177817
-0.00912493
-0.0093205
-0.00971577
-0.0102875
-0.0109448
-0.0115589
-0.0121092
-0.0125864
-0.0130297
-0.0134471
-0.0138547
-0.0142433
-0.014625
-0.0150057
-0.0154055
-0.0158313
-0.0162674
-0.0167228
-0.0171711
-0.0175383
-0.00937575
-0.00956927
-0.00995821
-0.0105105
-0.0111366
-0.0117175
-0.0122435
-0.0127376
-0.0132335
-0.0136903
-0.0140439
-0.0143131
-0.0145859
-0.0148818
-0.0151768
-0.0154359
-0.0156121
-0.0156849
-0.0156875
-0.015693
-0.00963556
-0.00981111
-0.0101821
-0.0107103
-0.0113204
-0.0118735
-0.0123268
-0.0127252
-0.0131271
-0.0135289
-0.0139221
-0.0142731
-0.0145802
-0.0148406
-0.015051
-0.015205
-0.0153019
-0.0153888
-0.015519
-0.0157441
-0.00994102
-0.010136
-0.0104093
-0.0108187
-0.0113349
-0.0118467
-0.0123229
-0.0127447
-0.0131572
-0.0135819
-0.0139939
-0.014365
-0.0146845
-0.014927
-0.0151106
-0.0152382
-0.0152954
-0.0152869
-0.0152534
-0.0152852
-0.0100878
-0.0102069
-0.0104908
-0.0109152
-0.0114158
-0.0119083
-0.0123807
-0.0128053
-0.0132064
-0.0136075
-0.0139816
-0.0142852
-0.0145508
-0.0147872
-0.0150324
-0.0153457
-0.0157566
-0.0162617
-0.016813
-0.0173269
-0.010343
-0.0104916
-0.0106942
-0.0110174
-0.0114514
-0.0119213
-0.0123945
-0.0128295
-0.0132474
-0.0136499
-0.0140382
-0.0143709
-0.0146357
-0.0148477
-0.0149864
-0.0150549
-0.0150609
-0.0150311
-0.0150251
-0.015129
-0.0105001
-0.0106243
-0.0107937
-0.0110746
-0.0114732
-0.0119276
-0.0124042
-0.0128489
-0.0132857
-0.0137071
-0.0140962
-0.0144275
-0.0146749
-0.0148493
-0.014965
-0.0150453
-0.0151343
-0.0152584
-0.0154527
-0.0157632
-0.0188627
-0.0209119
-0.0256516
-0.0292413
-0.0295895
-0.0281282
-0.0263274
-0.0248061
-0.0238956
-0.0236332
-0.023746
-0.0239214
-0.0239377
-0.0236795
-0.0232747
-0.0230083
-0.0229417
-0.0228987
-0.0227996
-0.0226887
-0.0225492
-0.0223634
-0.0221835
-0.022068
-0.0219987
-0.0219207
-0.0218535
-0.021854
-0.0218769
-0.0218477
-0.0218021
-0.0218238
-0.0219085
-0.0219766
-0.0220052
-0.022087
-0.0222896
-0.0225171
-0.0226415
-0.022675
-0.0227035
-0.0227436
-0.0227867
-0.0228047
-0.0228203
-0.0228581
-0.0228901
-0.0229327
-0.0230675
-0.0232711
-0.0234441
-0.0235298
-0.0235726
-0.023607
-0.0236515
-0.0237333
-0.0238547
-0.0239793
-0.0240753
-0.0241561
-0.0242396
-0.0243545
-0.0244605
-0.0245377
-0.0246432
-0.0247507
-0.0248307
-0.0248993
-0.0250002
-0.0250921
-0.0251863
-0.0252813
-0.0253556
-0.025422
-0.0254978
-0.0255899
-0.0256708
-0.025754
-0.0258378
-0.0259744
-0.0260977
-0.0262169
-0.0262994
-0.0263882
-0.0264692
-0.0265898
-0.026724
-0.0268485
-0.0269701
-0.0270605
-0.0272139
-0.0273003
-0.0274192
-0.0275511
-0.0276542
-0.0277729
-0.0278568
-0.0278789
-0.0278126
-0.027768
-0.0190271
-0.0209656
-0.0255413
-0.0291111
-0.0295176
-0.028092
-0.0263024
-0.0247862
-0.0238796
-0.0236202
-0.0237359
-0.023914
-0.0239326
-0.0236757
-0.0232712
-0.0230049
-0.0229386
-0.0228961
-0.0227971
-0.0226864
-0.0225471
-0.0223614
-0.0221815
-0.0220661
-0.021997
-0.0219191
-0.0218518
-0.0218523
-0.0218754
-0.0218464
-0.0218007
-0.0218224
-0.0219072
-0.0219754
-0.0220041
-0.0220858
-0.0222884
-0.0225162
-0.0226406
-0.0226742
-0.0227026
-0.0227428
-0.0227859
-0.022804
-0.0228196
-0.0228575
-0.0228896
-0.0229322
-0.023067
-0.0232707
-0.0234437
-0.0235295
-0.0235723
-0.0236066
-0.0236511
-0.023733
-0.0238543
-0.023979
-0.0240751
-0.0241558
-0.0242393
-0.0243542
-0.0244602
-0.0245375
-0.0246429
-0.0247505
-0.0248305
-0.0248991
-0.025
-0.0250919
-0.0251861
-0.0252811
-0.0253554
-0.0254218
-0.0254976
-0.0255898
-0.0256706
-0.0257538
-0.0258377
-0.0259743
-0.0260975
-0.0262167
-0.0262993
-0.0263881
-0.0264691
-0.0265897
-0.0267239
-0.0268484
-0.02697
-0.0270604
-0.0272138
-0.0273002
-0.0274191
-0.027551
-0.0276541
-0.0277728
-0.0278567
-0.0278788
-0.0278125
-0.0277679
-0.0193076
-0.0210548
-0.0253245
-0.0288516
-0.0293877
-0.0280451
-0.0262802
-0.0247692
-0.0238649
-0.0236074
-0.0237239
-0.0239029
-0.0239236
-0.0236692
-0.0232666
-0.0230014
-0.0229358
-0.0228935
-0.0227948
-0.0226844
-0.0225453
-0.0223597
-0.0221797
-0.0220644
-0.0219954
-0.0219176
-0.0218503
-0.0218509
-0.0218742
-0.0218451
-0.0217994
-0.0218211
-0.0219061
-0.0219744
-0.022003
-0.0220847
-0.0222874
-0.0225154
-0.0226399
-0.0226735
-0.0227019
-0.0227421
-0.0227853
-0.0228034
-0.0228191
-0.022857
-0.0228891
-0.0229316
-0.0230664
-0.0232703
-0.0234434
-0.0235292
-0.0235719
-0.0236063
-0.0236508
-0.0237326
-0.023854
-0.0239787
-0.0240748
-0.0241556
-0.024239
-0.024354
-0.02446
-0.0245372
-0.0246427
-0.0247503
-0.0248303
-0.0248989
-0.0249998
-0.0250917
-0.025186
-0.025281
-0.0253553
-0.0254217
-0.0254974
-0.0255896
-0.0256705
-0.0257537
-0.0258375
-0.0259742
-0.0260974
-0.0262166
-0.0262992
-0.026388
-0.026469
-0.0265896
-0.0267238
-0.0268483
-0.0269699
-0.0270603
-0.0272137
-0.0273001
-0.027419
-0.0275509
-0.027654
-0.0277727
-0.0278567
-0.0278787
-0.0278124
-0.0277677
-0.0195855
-0.0211149
-0.0250324
-0.0285096
-0.0292072
-0.0279823
-0.0262525
-0.0247483
-0.0238476
-0.023593
-0.0237094
-0.0238864
-0.0239069
-0.0236558
-0.023258
-0.0229961
-0.0229317
-0.0228897
-0.0227913
-0.0226818
-0.0225433
-0.0223577
-0.0221776
-0.0220625
-0.0219938
-0.0219163
-0.021849
-0.0218495
-0.0218728
-0.0218439
-0.0217982
-0.0218199
-0.0219049
-0.0219732
-0.0220018
-0.0220835
-0.0222864
-0.0225146
-0.0226393
-0.0226728
-0.0227011
-0.0227414
-0.0227846
-0.0228028
-0.0228185
-0.0228564
-0.0228885
-0.022931
-0.0230659
-0.0232698
-0.0234431
-0.0235289
-0.0235716
-0.023606
-0.0236504
-0.0237323
-0.0238537
-0.0239785
-0.0240746
-0.0241554
-0.0242388
-0.0243538
-0.0244598
-0.024537
-0.0246425
-0.0247501
-0.0248301
-0.0248987
-0.0249996
-0.0250916
-0.0251858
-0.0252808
-0.0253551
-0.0254215
-0.0254973
-0.0255895
-0.0256703
-0.0257535
-0.0258374
-0.025974
-0.0260973
-0.0262165
-0.0262991
-0.0263879
-0.0264689
-0.0265895
-0.0267237
-0.0268482
-0.0269698
-0.0270602
-0.0272137
-0.0273
-0.0274189
-0.0275508
-0.0276539
-0.0277726
-0.0278566
-0.0278787
-0.0278123
-0.0277675
-0.0198262
-0.0211624
-0.0247287
-0.0281453
-0.0290073
-0.0279123
-0.0262227
-0.0247248
-0.0238278
-0.0235768
-0.0236921
-0.0238637
-0.023881
-0.0236339
-0.0232441
-0.0229879
-0.022925
-0.022883
-0.0227856
-0.0226777
-0.0225405
-0.0223554
-0.0221752
-0.02206
-0.0219918
-0.021915
-0.0218479
-0.0218481
-0.0218712
-0.0218426
-0.0217972
-0.0218188
-0.0219035
-0.0219718
-0.0220005
-0.0220823
-0.0222853
-0.0225136
-0.0226384
-0.0226719
-0.0227003
-0.0227404
-0.0227837
-0.022802
-0.0228178
-0.0228557
-0.0228878
-0.0229302
-0.0230652
-0.0232694
-0.0234427
-0.0235285
-0.0235712
-0.0236056
-0.02365
-0.0237319
-0.0238534
-0.0239782
-0.0240743
-0.0241551
-0.0242385
-0.0243535
-0.0244596
-0.0245368
-0.0246423
-0.0247499
-0.02483
-0.0248985
-0.0249994
-0.0250914
-0.0251856
-0.0252807
-0.025355
-0.0254213
-0.0254971
-0.0255893
-0.0256702
-0.0257534
-0.0258372
-0.0259739
-0.0260972
-0.0262164
-0.026299
-0.0263877
-0.0264687
-0.0265893
-0.0267236
-0.0268481
-0.0269697
-0.0270601
-0.0272136
-0.0273
-0.0274188
-0.0275508
-0.0276538
-0.0277726
-0.0278566
-0.0278786
-0.0278123
-0.0277672
-0.0200433
-0.0212316
-0.02444
-0.0277726
-0.0287934
-0.0278369
-0.0261921
-0.0247002
-0.0238061
-0.023559
-0.0236728
-0.0238368
-0.0238484
-0.0236054
-0.0232259
-0.0229772
-0.0229154
-0.0228728
-0.0227766
-0.0226712
-0.0225363
-0.0223524
-0.0221723
-0.0220568
-0.0219893
-0.0219137
-0.0218472
-0.0218468
-0.0218694
-0.0218412
-0.0217965
-0.0218179
-0.0219019
-0.02197
-0.021999
-0.022081
-0.0222838
-0.0225122
-0.0226372
-0.022671
-0.0226993
-0.0227393
-0.0227826
-0.0228011
-0.0228169
-0.0228549
-0.0228868
-0.0229292
-0.0230643
-0.0232687
-0.0234423
-0.0235281
-0.0235708
-0.023605
-0.0236495
-0.0237314
-0.023853
-0.0239779
-0.024074
-0.0241547
-0.0242382
-0.0243532
-0.0244594
-0.0245365
-0.0246421
-0.0247497
-0.0248297
-0.0248983
-0.0249992
-0.0250912
-0.0251854
-0.0252805
-0.0253548
-0.0254211
-0.0254969
-0.0255892
-0.02567
-0.0257532
-0.025837
-0.0259737
-0.026097
-0.0262163
-0.0262989
-0.0263876
-0.0264686
-0.0265892
-0.0267235
-0.026848
-0.0269696
-0.02706
-0.0272135
-0.0272999
-0.0274187
-0.0275507
-0.0276538
-0.0277725
-0.0278565
-0.0278787
-0.0278123
-0.0277669
-0.02025
-0.021328
-0.0241645
-0.0273874
-0.0285622
-0.0277545
-0.0261611
-0.024675
-0.0237823
-0.0235391
-0.0236518
-0.0238076
-0.0238125
-0.0235734
-0.0232056
-0.022965
-0.0229037
-0.0228593
-0.0227641
-0.0226619
-0.0225303
-0.0223485
-0.0221688
-0.0220531
-0.0219861
-0.0219122
-0.0218467
-0.0218456
-0.0218673
-0.0218399
-0.0217964
-0.0218175
-0.0219002
-0.0219679
-0.0219976
-0.0220799
-0.0222822
-0.02251
-0.0226354
-0.0226697
-0.0226981
-0.0227379
-0.0227812
-0.0228001
-0.0228161
-0.0228539
-0.0228857
-0.0229281
-0.0230633
-0.0232679
-0.0234417
-0.0235276
-0.0235702
-0.0236044
-0.0236488
-0.0237308
-0.0238525
-0.0239774
-0.0240735
-0.0241543
-0.0242378
-0.0243528
-0.024459
-0.0245362
-0.0246418
-0.0247495
-0.0248295
-0.024898
-0.024999
-0.025091
-0.0251852
-0.0252803
-0.0253546
-0.0254209
-0.0254967
-0.025589
-0.0256699
-0.025753
-0.0258368
-0.0259735
-0.0260969
-0.0262161
-0.0262987
-0.0263874
-0.0264684
-0.026589
-0.0267234
-0.0268479
-0.0269695
-0.0270599
-0.0272134
-0.0272998
-0.0274186
-0.0275506
-0.0276537
-0.0277725
-0.0278565
-0.0278788
-0.0278125
-0.0277665
-0.0204421
-0.0214396
-0.0238974
-0.0269884
-0.0283128
-0.0276647
-0.0261299
-0.0246495
-0.0237563
-0.0235167
-0.023629
-0.023777
-0.0237748
-0.0235396
-0.0231842
-0.0229523
-0.0228909
-0.0228438
-0.0227491
-0.0226502
-0.0225224
-0.0223434
-0.0221647
-0.0220488
-0.0219825
-0.0219106
-0.0218461
-0.0218441
-0.021865
-0.0218387
-0.0217968
-0.0218176
-0.0218985
-0.0219656
-0.0219964
-0.0220792
-0.0222805
-0.0225073
-0.0226329
-0.0226679
-0.0226964
-0.0227359
-0.0227794
-0.0227989
-0.0228152
-0.0228528
-0.0228844
-0.0229268
-0.0230621
-0.0232668
-0.0234408
-0.0235269
-0.0235694
-0.0236036
-0.0236481
-0.0237301
-0.0238518
-0.0239768
-0.024073
-0.0241538
-0.0242372
-0.0243523
-0.0244586
-0.0245358
-0.0246414
-0.0247492
-0.0248292
-0.0248977
-0.0249987
-0.0250908
-0.025185
-0.0252802
-0.0253544
-0.0254207
-0.0254965
-0.0255888
-0.0256697
-0.0257528
-0.0258366
-0.0259734
-0.0260967
-0.026216
-0.0262986
-0.0263873
-0.0264682
-0.0265888
-0.0267232
-0.0268477
-0.0269694
-0.0270597
-0.0272133
-0.0272997
-0.0274185
-0.0275505
-0.0276536
-0.0277725
-0.0278565
-0.0278789
-0.0278128
-0.0277661
-0.0206091
-0.0215596
-0.0236438
-0.0265793
-0.0280449
-0.0275657
-0.0260977
-0.024624
-0.0237281
-0.0234915
-0.0236045
-0.0237453
-0.0237359
-0.0235043
-0.0231617
-0.0229389
-0.0228774
-0.0228271
-0.0227326
-0.0226369
-0.022513
-0.0223371
-0.0221598
-0.022044
-0.0219786
-0.0219088
-0.0218454
-0.0218423
-0.0218622
-0.0218375
-0.0217977
-0.021818
-0.0218967
-0.0219632
-0.0219955
-0.0220792
-0.0222791
-0.0225043
-0.0226298
-0.0226655
-0.0226941
-0.022733
-0.0227768
-0.0227974
-0.0228144
-0.0228518
-0.0228831
-0.0229256
-0.0230609
-0.0232656
-0.0234397
-0.0235259
-0.0235685
-0.0236026
-0.0236471
-0.0237293
-0.023851
-0.023976
-0.0240722
-0.0241531
-0.0242365
-0.0243516
-0.024458
-0.0245353
-0.024641
-0.0247487
-0.0248288
-0.0248974
-0.0249984
-0.0250905
-0.0251847
-0.02528
-0.0253542
-0.0254205
-0.0254963
-0.0255886
-0.0256695
-0.0257526
-0.0258364
-0.0259732
-0.0260966
-0.0262158
-0.0262984
-0.0263871
-0.026468
-0.0265887
-0.026723
-0.0268476
-0.0269693
-0.0270596
-0.0272131
-0.0272995
-0.0274184
-0.0275504
-0.0276536
-0.0277725
-0.0278565
-0.0278793
-0.0278134
-0.0277657
-0.0207441
-0.0216863
-0.0234114
-0.0261635
-0.0277563
-0.0274547
-0.0260635
-0.0245987
-0.0236981
-0.0234635
-0.023578
-0.0237126
-0.0236959
-0.0234676
-0.0231378
-0.0229247
-0.0228633
-0.0228097
-0.0227149
-0.0226223
-0.0225024
-0.0223298
-0.0221543
-0.022039
-0.0219745
-0.0219068
-0.0218445
-0.02184
-0.0218591
-0.0218363
-0.0217989
-0.0218188
-0.021895
-0.0219607
-0.0219949
-0.0220798
-0.0222782
-0.0225014
-0.0226266
-0.0226628
-0.0226911
-0.0227293
-0.0227733
-0.0227953
-0.0228135
-0.0228509
-0.0228821
-0.0229248
-0.02306
-0.0232643
-0.0234384
-0.0235248
-0.0235673
-0.0236013
-0.0236461
-0.0237284
-0.0238501
-0.023975
-0.0240713
-0.0241523
-0.0242357
-0.0243507
-0.0244572
-0.0245347
-0.0246405
-0.0247482
-0.0248283
-0.024897
-0.0249981
-0.0250901
-0.0251844
-0.0252797
-0.025354
-0.0254202
-0.025496
-0.0255884
-0.0256692
-0.0257524
-0.0258361
-0.025973
-0.0260964
-0.0262156
-0.0262982
-0.0263869
-0.0264678
-0.0265884
-0.0267229
-0.0268474
-0.0269691
-0.0270594
-0.027213
-0.0272994
-0.0274182
-0.0275503
-0.0276535
-0.0277726
-0.0278564
-0.0278797
-0.0278142
-0.0277653
-0.0208437
-0.0218165
-0.0232057
-0.0257437
-0.0274452
-0.0273292
-0.0260262
-0.0245739
-0.0236667
-0.0234326
-0.0235494