/*--------------------------------*- C++ -*----------------------------------*\
| =========                 |                                                 |
| \\      /  F ield         | OpenFOAM: The Open Source CFD Toolbox           |
|  \\    /   O peration     | Version:  v1906                                 |
|   \\  /    A nd           | Web:      www.OpenFOAM.com                      |
|    \\/     M anipulation  |                                                 |
\*---------------------------------------------------------------------------*/
FoamFile
{
    version     2.0;
    format      ascii;
    class       surfaceScalarField;
    location    "10.3";
    object      phi;
}
// * * * * * * * * * * * * * * * * * * * * * * * * * * * * * * * * * * * * * //

dimensions      [0 3 -1 0 0 0 0];
oriented        oriented;


internalField   nonuniform List<scalar> 
19000
(
1.20195e-06
1.05085e-06
1.21262e-06
1.5996e-07
1.14818e-06
1.84334e-08
1.09256e-06
-7.90956e-07
1.2401e-06
2.02631e-06
1.08161e-06
6.09103e-08
1.08825e-06
-4.5594e-07
1.13828e-06
8.1044e-07
1.09924e-06
-7.84228e-08
1.17346e-06
5.87435e-07
1.16614e-06
2.87163e-07
1.14805e-06
4.68156e-07
1.15086e-06
5.46115e-07
1.12006e-06
7.27062e-08
1.14616e-06
6.19544e-07
1.10395e-06
1.87812e-07
1.12937e-06
4.6242e-07
1.11169e-06
4.22162e-07
1.10895e-06
3.52799e-07
3.40633e-07
1.10023e-06
1.25389e-06
1.02122e-06
1.26827e-06
1.4558e-07
1.20088e-06
8.58266e-08
1.14315e-06
-7.3323e-07
1.29665e-06
1.8728e-06
1.13325e-06
2.24313e-07
1.14316e-06
-4.65853e-07
1.20038e-06
7.53218e-07
1.15782e-06
-3.58532e-08
1.23673e-06
5.08525e-07
1.22655e-06
2.97335e-07
1.21115e-06
4.83557e-07
1.20742e-06
5.4985e-07
1.18009e-06
1.00037e-07
1.19319e-06
6.06439e-07
1.1704e-06
2.10603e-07
1.16637e-06
4.66451e-07
1.18592e-06
4.0261e-07
1.14334e-06
3.9538e-07
3.02608e-07
1.18137e-06
1.30732e-06
9.9669e-07
1.32425e-06
1.28646e-07
1.25743e-06
1.52644e-07
1.19461e-06
-6.70407e-07
1.34927e-06
1.71815e-06
1.19843e-06
3.75149e-07
1.20144e-06
-4.68857e-07
1.27315e-06
6.81508e-07
1.22411e-06
1.31794e-08
1.3036e-06
4.29035e-07
1.29132e-06
3.09614e-07
1.28411e-06
4.90771e-07
1.26902e-06
5.64936e-07
1.24973e-06
1.19327e-07
1.25076e-06
6.05414e-07
1.24229e-06
2.19071e-07
1.22507e-06
4.83677e-07
1.24453e-06
3.83145e-07
1.21937e-06
4.20545e-07
3.01372e-07
1.2206e-06
1.36153e-06
9.79267e-07
1.38297e-06
1.07201e-07
1.31897e-06
2.16647e-07
1.24941e-06
-6.00849e-07
1.39912e-06
1.56843e-06
1.27916e-06
4.95111e-07
1.26518e-06
-4.54881e-07
1.34926e-06
5.9743e-07
1.29492e-06
6.75236e-08
1.36437e-06
3.59579e-07
1.35525e-06
3.18737e-07
1.35461e-06
4.91412e-07
1.33313e-06
5.86418e-07
1.31797e-06
1.34482e-07
1.31695e-06
6.06435e-07
1.31221e-06
2.23816e-07
1.29921e-06
4.9667e-07
1.30522e-06
3.7714e-07
1.29917e-06
4.26598e-07
3.14449e-07
1.28609e-06
1.41767e-06
9.69949e-07
1.44455e-06
8.03254e-08
1.38633e-06
2.74864e-07
1.31065e-06
-5.25168e-07
1.44659e-06
1.4325e-06
1.37155e-06
5.70142e-07
1.334e-06
-4.17324e-07
1.41885e-06
5.12573e-07
1.36786e-06
1.18522e-07
1.41631e-06
3.11126e-07
1.41559e-06
3.19457e-07
1.41876e-06
4.88239e-07
1.39737e-06
6.07812e-07
1.38217e-06
1.49674e-07
1.38285e-06
6.05757e-07
1.37702e-06
2.29649e-07
1.37207e-06
5.01616e-07
1.36914e-06
3.80076e-07
1.37011e-06
4.25624e-07
3.29109e-07
1.35545e-06
1.47744e-06
9.68188e-07
1.50855e-06
4.92162e-08
1.45941e-06
3.24002e-07
1.38111e-06
-4.46865e-07
1.49452e-06
1.31909e-06
1.4665e-06
5.9816e-07
1.40837e-06
-3.59195e-07
1.47981e-06
4.41138e-07
1.4417e-06
1.56626e-07
1.46621e-06
2.86617e-07
1.47339e-06
3.12281e-07
1.47975e-06
4.81879e-07
1.46309e-06
6.2447e-07
1.44612e-06
1.66647e-07
1.44634e-06
6.05537e-07
1.43814e-06
2.37846e-07
1.43805e-06
5.01709e-07
1.43136e-06
3.8676e-07
1.43488e-06
4.22103e-07
3.42467e-07
1.42153e-06
1.54261e-06
9.71792e-07
1.57481e-06
1.70188e-08
1.53741e-06
3.61399e-07
1.4614e-06
-3.70856e-07
1.54719e-06
1.23329e-06
1.55697e-06
5.88382e-07
1.48921e-06
-2.91436e-07
1.53869e-06
3.91667e-07
1.51635e-06
1.78964e-07
1.52248e-06
2.80479e-07
1.5329e-06
3.01866e-07
1.54223e-06
4.72547e-07
1.53287e-06
6.33833e-07
1.51453e-06
1.84987e-07
1.51201e-06
6.0806e-07
1.50068e-06
2.49167e-07
1.50181e-06
5.00587e-07
1.49371e-06
3.94852e-07
1.49967e-06
4.16146e-07
3.53273e-07
1.48887e-06
1.61432e-06
9.77596e-07
1.64376e-06
-1.24133e-08
1.61908e-06
3.86073e-07
1.54972e-06
-3.01495e-07
1.60834e-06
1.17468e-06
1.64186e-06
5.5486e-07
1.57571e-06
-2.25289e-07
1.60277e-06
3.64605e-07
1.59237e-06
1.89362e-07
1.58901e-06
2.83839e-07
1.59865e-06
2.92231e-07
1.60963e-06
4.61562e-07
1.60763e-06
6.3584e-07
1.58946e-06
2.03152e-07
1.58439e-06
6.1313e-07
1.5698e-06
2.63763e-07
1.57033e-06
5.00056e-07
1.56154e-06
4.03642e-07
1.57034e-06
4.07348e-07
3.6075e-07
1.56286e-06
1.6926e-06
9.82568e-07
1.71622e-06
-3.6033e-08
1.70307e-06
3.99224e-07
1.64319e-06
-2.41611e-07
1.67977e-06
1.1381e-06
1.72381e-06
5.10811e-07
1.6652e-06
-1.66678e-07
1.67523e-06
3.5458e-07
1.67127e-06
1.93325e-07
1.66535e-06
2.89759e-07
1.67266e-06
2.84914e-07
1.6835e-06
4.50727e-07
1.68676e-06
6.32576e-07
1.67016e-06
2.19757e-07
1.66458e-06
6.18703e-07
1.64771e-06
2.8064e-07
1.64799e-06
4.99774e-07
1.63877e-06
4.12861e-07
1.65013e-06
3.95986e-07
3.6486e-07
1.64602e-06
1.77661e-06
9.84678e-07
1.79311e-06
-5.25314e-08
1.78853e-06
4.03804e-07
1.73947e-06
-1.92548e-07
1.76124e-06
1.11633e-06
1.80597e-06
4.66078e-07
1.75552e-06
-1.16229e-07
1.75585e-06
3.54245e-07
1.75481e-06
1.94369e-07
1.74952e-06
2.95053e-07
1.75443e-06
2.79999e-07
1.76381e-06
4.41352e-07
1.76959e-06
6.26792e-07
1.7551e-06
2.34248e-07
1.75128e-06
6.22526e-07
1.73379e-06
2.98132e-07
1.73545e-06
4.98112e-07
1.72625e-06
4.22062e-07
1.73936e-06
3.82871e-07
3.66059e-07
1.73816e-06
1.86533e-06
9.83096e-07
1.8751e-06
-6.22983e-08
1.87549e-06
4.03415e-07
1.83737e-06
-1.54435e-07
1.85108e-06
1.10263e-06
1.89052e-06
4.26632e-07
1.84656e-06
-7.22641e-08
1.8433e-06
3.57508e-07
1.84391e-06
1.93757e-07
1.83984e-06
2.99118e-07
1.84262e-06
2.77221e-07
1.85001e-06
4.33962e-07
1.8562e-06
6.20601e-07
1.84368e-06
2.46774e-07
1.84307e-06
6.23129e-07
1.82641e-06
3.14797e-07
1.8311e-06
4.93425e-07
1.82257e-06
4.30589e-07
1.83643e-06
3.69013e-07
3.64852e-07
1.83764e-06
1.95808e-06
9.77857e-07
1.96245e-06
-6.66656e-08
1.96469e-06
4.01175e-07
1.93657e-06
-1.26315e-07
1.94712e-06
1.09207e-06
1.97884e-06
3.94918e-07
1.93973e-06
-3.31602e-08
1.93627e-06
3.60973e-07
1.93825e-06
1.91775e-07
1.93515e-06
3.02218e-07
1.93619e-06
2.76184e-07
1.94173e-06
4.28424e-07
1.94726e-06
6.15065e-07
1.93623e-06
2.57808e-07
1.93943e-06
6.19924e-07
1.92431e-06
3.2992e-07
1.93282e-06
4.84913e-07
1.92556e-06
4.37853e-07
1.93908e-06
3.55488e-07
3.61596e-07
1.94234e-06
2.05467e-06
9.69372e-07
2.05505e-06
-6.70399e-08
2.05717e-06
3.9905e-07
2.03715e-06
-1.06294e-07
2.0475e-06
1.08173e-06
2.07174e-06
3.70678e-07
2.03647e-06
2.10675e-09
2.03381e-06
3.63638e-07
2.037e-06
1.88582e-07
2.03458e-06
3.04632e-07
2.03442e-06
2.76344e-07
2.03867e-06
4.24175e-07
2.04334e-06
6.10395e-07
2.03328e-06
2.67875e-07
2.04026e-06
6.12942e-07
2.02675e-06
3.43428e-07
2.03886e-06
4.72807e-07
2.03322e-06
4.43486e-07
2.04533e-06
3.43382e-07
3.56515e-07
2.05041e-06
2.15526e-06
9.58112e-07
2.15264e-06
-6.44174e-08
2.1539e-06
3.97785e-07
2.13956e-06
-9.19555e-08
2.15113e-06
1.07016e-06
2.16961e-06
3.52198e-07
2.13744e-06
3.42723e-08
2.13532e-06
3.65763e-07
2.13959e-06
1.84309e-07
2.1376e-06
3.06622e-07
2.13675e-06
2.77198e-07
2.14038e-06
4.20545e-07
2.14445e-06
6.06317e-07
2.13491e-06
2.77418e-07
2.14528e-06
6.02576e-07
2.13316e-06
3.55547e-07
2.1479e-06
4.58065e-07
2.14408e-06
4.47307e-07
2.15391e-06
3.33548e-07
3.49781e-07
2.16065e-06
2.26007e-06
9.4453e-07
2.25505e-06
-5.93979e-08
2.25557e-06
3.97266e-07
2.2446e-06
-8.09879e-08
2.25789e-06
1.05688e-06
2.27242e-06
3.37663e-07
2.24281e-06
6.38849e-08
2.24074e-06
3.67837e-07
2.24605e-06
1.78997e-07
2.2441e-06
3.08568e-07
2.24279e-06
2.78505e-07
2.24632e-06
4.17017e-07
2.25025e-06
6.02389e-07
2.24092e-06
2.86751e-07
2.25406e-06
5.89431e-07
2.2431e-06
3.66504e-07
2.25924e-06
4.41929e-07
2.25736e-06
4.49185e-07
2.26451e-06
3.264e-07
3.41599e-07
2.27269e-06
2.3693e-06
9.29106e-07
2.36237e-06
-5.24645e-08
2.36263e-06
3.97006e-07
2.35331e-06
-7.16744e-08
2.3683e-06
1.04188e-06
2.37994e-06
3.26023e-07
2.35281e-06
9.10209e-08
2.35055e-06
3.70095e-07
2.35676e-06
1.72784e-07
2.35437e-06
3.10962e-07
2.3526e-06
2.8027e-07
2.35633e-06
4.1329e-07
2.36053e-06
5.98189e-07
2.35126e-06
2.96027e-07
2.36643e-06
5.74253e-07
2.35654e-06
3.76401e-07
2.3729e-06
4.25562e-07
2.37305e-06
4.49035e-07
2.37757e-06
3.21879e-07
3.32263e-07
2.38691e-06
2.48314e-06
9.12366e-07
2.47485e-06
-4.4176e-08
2.47539e-06
3.96469e-07
2.46662e-06
-6.29115e-08
2.48308e-06
1.02543e-06
2.49209e-06
3.1701e-07
2.46795e-06
1.15162e-07
2.46547e-06
3.72573e-07
2.47212e-06
1.66131e-07
2.46883e-06
3.14252e-07
2.46656e-06
2.82547e-07
2.4707e-06
4.09142e-07
2.4755e-06
5.93393e-07
2.46631e-06
3.05219e-07
2.48274e-06
5.57818e-07
2.47387e-06
3.85275e-07
2.48955e-06
4.09881e-07
2.4917e-06
4.46891e-07
2.49391e-06
3.19662e-07
3.22165e-07
2.50401e-06
2.60186e-06
8.94803e-07
2.59279e-06
-3.51051e-08
2.59408e-06
3.95171e-07
2.58505e-06
-5.38797e-08
2.60269e-06
1.00779e-06
2.60912e-06
3.10579e-07
2.5887e-06
1.35587e-07
2.58592e-06
3.75348e-07
2.59233e-06
1.59724e-07
2.58788e-06
3.18703e-07
2.58511e-06
2.85312e-07
2.58995e-06
4.04307e-07
2.59553e-06
5.87809e-07
2.5866e-06
3.14147e-07
2.60361e-06
5.40809e-07
2.59569e-06
3.93195e-07
2.61005e-06
3.95521e-07
2.614e-06
4.42941e-07
2.6143e-06
3.19369e-07
3.1176e-07
2.6247e-06
2.72587e-06
8.76765e-07
2.7164e-06
-2.56371e-08
2.7189e-06
3.92673e-07
2.7088e-06
-4.37805e-08
2.72745e-06
9.89138e-07
2.73159e-06
3.06442e-07
2.71523e-06
1.5194e-07
2.71189e-06
3.78691e-07
2.71752e-06
1.54098e-07
2.7119e-06
3.24322e-07
2.70867e-06
2.88535e-07
2.71448e-06
3.98503e-07
2.72089e-06
5.81401e-07
2.71246e-06
3.22574e-07
2.72953e-06
5.23734e-07
2.72246e-06
4.00265e-07
2.73515e-06
3.8283e-07
2.74058e-06
4.37514e-07
2.73935e-06
3.20603e-07
3.0152e-07
2.74959e-06
2.85565e-06
8.5838e-07
2.84587e-06
-1.58553e-08
2.84995e-06
3.88591e-07
2.83805e-06
-3.18772e-08
2.85769e-06
9.69503e-07
2.86005e-06
3.04081e-07
2.84753e-06
1.64455e-07
2.84321e-06
3.8301e-07
2.84793e-06
1.49377e-07
2.84141e-06
3.30847e-07
2.83763e-06
2.92318e-07
2.84458e-06
3.91553e-07
2.85171e-06
5.74264e-07
2.84396e-06
3.30322e-07
2.86081e-06
5.06886e-07
2.85448e-06
4.06595e-07
2.86541e-06
3.71905e-07
2.87204e-06
4.30884e-07
2.86961e-06
3.23033e-07
2.91844e-07
2.87929e-06
2.99169e-06
8.39589e-07
2.98143e-06
-5.59396e-09
2.98737e-06
3.82649e-07
2.97318e-06
-1.76886e-08
2.9939e-06
9.48786e-07
2.9949e-06
3.03074e-07
2.98564e-06
1.73722e-07
2.97999e-06
3.88661e-07
2.98401e-06
1.45356e-07
2.97706e-06
3.37792e-07
2.97246e-06
2.96919e-07
2.98057e-06
3.83445e-07
2.98826e-06
5.66574e-07
2.98123e-06
3.37354e-07
2.99777e-06
4.90346e-07
2.9921e-06
4.12261e-07
3.00134e-06
3.62662e-07
3.00905e-06
4.23175e-07
3.00577e-06
3.26318e-07
2.83124e-07
3.01449e-06
3.13437e-06
8.20231e-07
3.12335e-06
5.42407e-09
3.1313e-06
3.74696e-07
3.11469e-06
-1.07603e-09
3.13666e-06
9.26814e-07
3.13644e-06
3.03297e-07
3.1298e-06
1.80356e-07
3.12267e-06
3.95797e-07
3.12624e-06
1.41785e-07
3.11948e-06
3.44554e-07
3.11375e-06
3.02641e-07
3.1229e-06
3.74302e-07
3.13096e-06
5.58509e-07
3.12454e-06
3.43773e-07
3.14083e-06
4.74062e-07
3.13581e-06
4.17282e-07
3.14348e-06
3.54983e-07
3.15233e-06
4.14325e-07
3.14853e-06
3.30126e-07
2.75744e-07
3.15591e-06
3.28403e-06
8.00114e-07
3.27197e-06
1.748e-08
3.28198e-06
3.64683e-07
3.26306e-06
1.78468e-08
3.28647e-06
9.03406e-07
3.28488e-06
3.04881e-07
3.28042e-06
1.84825e-07
3.27188e-06
4.0433e-07
3.27508e-06
1.38585e-07
3.26912e-06
3.50514e-07
3.26205e-06
3.09714e-07
3.27203e-06
3.64319e-07
3.2804e-06
5.50143e-07
3.27434e-06
3.49832e-07
3.2905e-06
4.57904e-07
3.28619e-06
4.21587e-07
3.29231e-06
3.48864e-07
3.30249e-06
4.04141e-07
3.29856e-06
3.34062e-07
2.70139e-07
3.30416e-06
3.44098e-06
7.79063e-07
3.42764e-06
3.08187e-08
3.43972e-06
3.52604e-07
3.4187e-06
3.88644e-08
3.44367e-06
8.78443e-07
3.44054e-06
3.08005e-07
3.43789e-06
1.87482e-07
3.42824e-06
4.13972e-07
3.43094e-06
1.35895e-07
3.42632e-06
3.55127e-07
3.41778e-06
3.18259e-07
3.42838e-06
3.53719e-07
3.43711e-06
5.41415e-07
3.43106e-06
3.55879e-07
3.4472e-06
4.41762e-07
3.44383e-06
4.24958e-07
3.44823e-06
3.44462e-07
3.45985e-06
3.92522e-07
3.45637e-06
3.37543e-07
2.66718e-07
3.45979e-06
3.60555e-06
7.56926e-07
3.59072e-06
4.56505e-08
3.60485e-06
3.38471e-07
3.58196e-06
6.17553e-08
3.6085e-06
8.51905e-07
3.60378e-06
3.12723e-07
3.6026e-06
1.88663e-07
3.59227e-06
4.243e-07
3.59415e-06
1.34013e-07
3.59133e-06
3.57949e-07
3.5813e-06
3.28284e-07
3.59225e-06
3.42771e-07
3.60155e-06
5.32119e-07
3.59511e-06
3.62319e-07
3.61129e-06
4.25581e-07
3.60918e-06
4.27069e-07
3.61166e-06
3.41983e-07
3.62453e-06
3.79646e-07
3.62232e-06
3.39759e-07
2.65728e-07
3.62331e-06
3.77807e-06
7.33566e-07
3.76156e-06
6.21586e-08
3.77771e-06
3.2232e-07
3.75316e-06
8.63041e-08
3.78117e-06
8.23896e-07
3.77498e-06
3.18915e-07
3.7749e-06
1.8874e-07
3.7644e-06
4.34802e-07
3.7651e-06
1.33316e-07
3.76437e-06
3.58674e-07
3.75298e-06
3.39677e-07
3.76391e-06
3.31844e-07
3.77409e-06
5.21934e-07
3.7669e-06
3.69513e-07
3.78302e-06
4.0946e-07
3.7826e-06
4.27485e-07
3.783e-06
3.41584e-07
3.79666e-06
3.65984e-07
3.79651e-06
3.39908e-07
2.66973e-07
3.79527e-06
3.95889e-06
7.08866e-07
3.94055e-06
8.04936e-08
3.95865e-06
3.04226e-07
3.93268e-06
1.12271e-07
3.96193e-06
7.94647e-07
3.95457e-06
3.26275e-07
3.95516e-06
1.88145e-07
3.94505e-06
4.44918e-07
3.94418e-06
1.34183e-07
3.94572e-06
3.57137e-07
3.93319e-06
3.52203e-07
3.94361e-06
3.21423e-07
3.95507e-06
5.10474e-07
3.9469e-06
3.77678e-07
3.96263e-06
3.93732e-07
3.96441e-06
4.2571e-07
3.96281e-06
3.43183e-07
3.97642e-06
3.52371e-07
3.97902e-06
3.37313e-07
2.6978e-07
3.97621e-06
4.14838e-06
6.82733e-07
4.12812e-06
1.00753e-07
4.14802e-06
2.84332e-07
4.12093e-06
1.39361e-07
4.15107e-06
7.64503e-07
4.14299e-06
3.34363e-07
4.14377e-06
1.8736e-07
4.13461e-06
4.54083e-07
4.13185e-06
1.36942e-07
4.13565e-06
3.53336e-07
4.12234e-06
3.65511e-07
4.1317e-06
3.12061e-07
4.14478e-06
4.97402e-07
4.13565e-06
3.86809e-07
4.15046e-06
3.78922e-07
4.15482e-06
4.21349e-07
4.15165e-06
3.46353e-07
4.16416e-06
3.39857e-07
4.16981e-06
3.31663e-07
2.73028e-07
4.16656e-06
4.34693e-06
6.55106e-07
4.32472e-06
1.22959e-07
4.3462e-06
2.62856e-07
4.31836e-06
1.67201e-07
4.34897e-06
7.33895e-07
4.34069e-06
3.42639e-07
4.34115e-06
1.86905e-07
4.33346e-06
4.61768e-07
4.32859e-06
1.41815e-07
4.33449e-06
3.4743e-07
4.32086e-06
3.79143e-07
4.32862e-06
3.04303e-07
4.34348e-06
4.8254e-07
4.33371e-06
3.96583e-07
4.34688e-06
3.65752e-07
4.35407e-06
4.1416e-07
4.35001e-06
3.50414e-07
4.36052e-06
3.29344e-07
4.36894e-06
3.23236e-07
2.75436e-07
4.36654e-06
4.5549e-06
6.25975e-07
4.53083e-06
1.47036e-07
4.5536e-06
2.40087e-07
4.52544e-06
1.95353e-07
4.55602e-06
7.03317e-07
4.54815e-06
3.50509e-07
4.54774e-06
1.87312e-07
4.54197e-06
4.67544e-07
4.53491e-06
1.48873e-07
4.5426e-06
3.39736e-07
4.52918e-06
3.92562e-07
4.53485e-06
2.98641e-07
4.55151e-06
4.6588e-07
4.54162e-06
4.06474e-07
4.55238e-06
3.54987e-07
4.56242e-06
4.04119e-07
4.55832e-06
3.54517e-07
4.56626e-06
3.214e-07
4.57656e-06
3.12936e-07
2.75791e-07
4.57621e-06
4.77271e-06
5.95384e-07
4.74693e-06
1.72813e-07
4.77064e-06
2.16377e-07
4.74268e-06
2.23316e-07
4.77266e-06
6.73335e-07
4.76586e-06
3.57313e-07
4.76407e-06
1.89102e-07
4.76047e-06
4.71137e-07
4.75132e-06
1.5803e-07
4.76037e-06
3.30687e-07
4.74773e-06
4.05195e-07
4.75093e-06
2.95448e-07
4.76922e-06
4.47587e-07
4.75987e-06
4.15824e-07
4.76767e-06
3.47187e-07
4.78016e-06
3.91627e-07
4.77701e-06
3.57673e-07
4.78219e-06
3.16214e-07
4.79318e-06
3.01945e-07
2.73424e-07
4.79555e-06
5.00075e-06
5.63429e-07
4.97354e-06
2.0003e-07
4.9978e-06
1.92116e-07
4.97058e-06
2.50534e-07
4.99935e-06
6.44565e-07
4.99431e-06
3.62352e-07
4.99066e-06
1.92748e-07
4.98931e-06
4.72484e-07
4.97834e-06
1.69006e-07
4.98824e-06
3.2079e-07
4.97693e-06
4.16497e-07
4.97746e-06
2.94921e-07
4.99702e-06
4.28027e-07
4.98896e-06
4.23882e-07
4.99346e-06
3.42686e-07
5.00774e-06
3.77352e-07
5.00643e-06
3.58978e-07
5.0091e-06
3.13548e-07
5.01951e-06
2.91536e-07
2.68361e-07
5.02457e-06
5.23949e-06
5.30256e-07
5.21116e-06
2.28362e-07
5.23553e-06
1.67741e-07
5.20968e-06
2.76385e-07
5.23656e-06
6.17692e-07
5.23391e-06
3.64995e-07
5.22813e-06
1.98529e-07
5.22885e-06
4.7177e-07
5.21651e-06
1.81337e-07
5.22671e-06
3.10599e-07
5.21721e-06
4.2599e-07
5.21505e-06
2.97082e-07
5.23537e-06
4.0771e-07
5.22935e-06
4.29901e-07
5.23045e-06
3.41587e-07
5.24572e-06
3.62086e-07
5.24691e-06
3.57787e-07
5.2476e-06
3.12851e-07
5.25655e-06
2.82589e-07
2.61397e-07
5.26351e-06
5.4894e-06
4.96047e-07
5.46033e-06
2.57433e-07
5.48433e-06
1.43735e-07
5.46055e-06
3.00167e-07
5.48482e-06
5.93425e-07
5.48496e-06
3.64851e-07
5.47712e-06
2.06371e-07
5.47947e-06
4.69416e-07
5.46636e-06
1.94454e-07
5.47634e-06
3.00613e-07
5.46902e-06
4.33311e-07
5.46432e-06
3.01782e-07
5.48478e-06
3.87252e-07
5.48147e-06
4.33209e-07
5.47936e-06
3.43695e-07
5.49469e-06
3.4676e-07
5.49877e-06
3.53702e-07
5.49823e-06
3.13393e-07
5.50518e-06
2.75644e-07
2.53549e-07
5.51302e-06
5.75099e-06
4.61012e-07
5.7216e-06
2.86821e-07
5.74468e-06
1.2066e-07
5.72378e-06
3.21063e-07
5.7447e-06
5.7251e-07
5.74781e-06
3.6174e-07
5.73831e-06
2.15873e-07
5.74168e-06
4.66038e-07
5.72836e-06
2.07774e-07
5.73776e-06
2.91217e-07
5.7328e-06
4.38266e-07
5.72589e-06
3.08696e-07
5.7458e-06
3.67346e-07
5.74575e-06
4.33252e-07
5.74095e-06
3.485e-07
5.7552e-06
3.32512e-07
5.76244e-06
3.46459e-07
5.76142e-06
3.14411e-07
5.76624e-06
2.70827e-07
2.45765e-07
5.77402e-06
6.02482e-06
4.25388e-07
5.99558e-06
3.1606e-07
6.01706e-06
9.91761e-08
6e-06
3.38124e-07
6.01686e-06
5.55647e-07
6.02282e-06
3.55781e-07
6.01235e-06
2.26342e-07
6.01605e-06
4.62342e-07
6.00304e-06
2.20785e-07
6.0116e-06
2.82657e-07
6.00906e-06
4.40807e-07
6.00035e-06
3.17404e-07
6.01903e-06
3.48668e-07
6.02258e-06
4.29702e-07
6.01591e-06
3.55171e-07
6.02786e-06
3.2056e-07
6.03826e-06
3.36055e-07
6.03768e-06
3.14995e-07
6.04038e-06
2.68129e-07
2.38692e-07
6.04745e-06
6.31144e-06
3.89438e-07
6.28287e-06
3.44633e-07
6.302e-06
8.00459e-08
6.28981e-06
3.50312e-07
6.30208e-06
5.43376e-07
6.31044e-06
3.47424e-07
6.29991e-06
2.36867e-07
6.30328e-06
4.58975e-07
6.29082e-06
2.3324e-07
6.29855e-06
2.7493e-07
6.29835e-06
4.41011e-07
6.28826e-06
3.27492e-07
6.30515e-06
3.31777e-07
6.31235e-06
4.22506e-07
6.30483e-06
3.62689e-07
6.31355e-06
3.11839e-07
6.32655e-06
3.23059e-07
6.32751e-06
3.14036e-07
6.32824e-06
2.67395e-07
2.32779e-07
6.33415e-06
6.61146e-06
3.53451e-07
6.58412e-06
3.71968e-07
6.60003e-06
6.4138e-08
6.59368e-06
3.56662e-07
6.60119e-06
5.3586e-07
6.61115e-06
3.37467e-07
6.60157e-06
2.46444e-07
6.6041e-06
4.56449e-07
6.59224e-06
2.45098e-07
6.59928e-06
2.67887e-07
6.60125e-06
4.39043e-07
6.59023e-06
3.38516e-07
6.60484e-06
3.17168e-07
6.61547e-06
4.11878e-07
6.60825e-06
3.69908e-07
6.61325e-06
3.06836e-07
6.62769e-06
3.08614e-07
6.63125e-06
3.10481e-07
6.63058e-06
2.6806e-07
2.2851e-07
6.63485e-06
6.92549e-06
3.17748e-07
6.90002e-06
3.97442e-07
6.9118e-06
5.23548e-08
6.91195e-06
3.56511e-07
6.91509e-06
5.32727e-07
6.92556e-06
3.26991e-07
6.91798e-06
2.54025e-07
6.91933e-06
4.55097e-07
6.90787e-06
2.56561e-07
6.91443e-06
2.61331e-07
6.91842e-06
4.35047e-07
6.90688e-06
3.50061e-07
6.91883e-06
3.05218e-07
6.93244e-06
3.98265e-07
6.92658e-06
3.75766e-07
6.92795e-06
3.05469e-07
6.94234e-06
2.94222e-07
6.94915e-06
3.03671e-07
6.94808e-06
2.69133e-07
2.26225e-07
6.95036e-06
7.25421e-06
2.82676e-07
7.23126e-06
4.2039e-07
7.23814e-06
4.54752e-08
7.24493e-06
3.49725e-07
7.2446e-06
5.33058e-07
7.25437e-06
3.17214e-07
7.24968e-06
2.58716e-07
7.24985e-06
4.54929e-07
7.23836e-06
2.6805e-07
7.24454e-06
2.55155e-07
7.25056e-06
4.29027e-07
7.23889e-06
3.6173e-07
7.24778e-06
2.96325e-07
7.26383e-06
3.82216e-07
7.26026e-06
3.79333e-07
7.25851e-06
3.07225e-07
7.2714e-06
2.81325e-07
7.2814e-06
2.93677e-07
7.28125e-06
2.69284e-07
2.25841e-07
7.28163e-06
7.5983e-06
2.48602e-07
7.57854e-06
4.4015e-07
7.58001e-06
4.40075e-08
7.59298e-06
3.36751e-07
7.59056e-06
5.35477e-07
7.5983e-06
3.09482e-07
7.5971e-06
2.59908e-07
7.59653e-06
4.55507e-07
7.58443e-06
2.80147e-07
7.5902e-06
2.4938e-07
7.59832e-06
4.20913e-07
7.58693e-06
3.73121e-07
7.59248e-06
2.90775e-07
7.61021e-06
3.64479e-07
7.60967e-06
3.79874e-07
7.60571e-06
3.11187e-07
7.61599e-06
2.71046e-07
7.62836e-06
2.81303e-07
7.63034e-06
2.67311e-07
2.26642e-07
7.62954e-06
7.95851e-06
2.15908e-07
7.94257e-06
4.56084e-07
7.93846e-06
4.81216e-08
7.95667e-06
3.1854e-07
7.95378e-06
5.38365e-07
7.95813e-06
3.05133e-07
7.96067e-06
2.57365e-07
7.96018e-06
4.56002e-07
7.94693e-06
2.93388e-07
7.95202e-06
2.44295e-07
7.96226e-06
4.10668e-07
7.95169e-06
3.83693e-07
7.9537e-06
2.88769e-07
7.9722e-06
3.45981e-07
7.97523e-06
3.76842e-07
7.97025e-06
3.16167e-07
7.97725e-06
2.64041e-07
7.99079e-06
2.6777e-07
7.99555e-06
2.62545e-07
2.27533e-07
7.99466e-06
8.33561e-06
1.84979e-07
8.32409e-06
4.67605e-07
8.31454e-06
5.76735e-08
8.33665e-06
2.96425e-07
8.33507e-06
5.39945e-07
8.33493e-06
3.05279e-07
8.34089e-06
2.51397e-07
8.34155e-06
4.55346e-07
8.32681e-06
3.08132e-07
8.3306e-06
2.40499e-07
8.34289e-06
3.98382e-07
8.33385e-06
3.92726e-07
8.3323e-06
2.90323e-07
8.35049e-06
3.27791e-07
8.35743e-06
3.69899e-07
8.35276e-06
3.20839e-07
8.35641e-06
2.60393e-07
8.36976e-06
2.54419e-07
8.37725e-06
2.55053e-07
2.27423e-07
8.37736e-06
8.73045e-06
1.56194e-07
8.72386e-06
4.7419e-07
8.70929e-06
7.22435e-08
8.73378e-06
2.71937e-07
8.73513e-06
5.38599e-07
8.72987e-06
3.10538e-07
8.73831e-06
2.4295e-07
8.74128e-06
4.52377e-07
8.72503e-06
3.24383e-07
8.72658e-06
2.38953e-07
8.7407e-06
3.84263e-07
8.73399e-06
3.99434e-07
8.72936e-06
2.94954e-07
8.74603e-06
3.11118e-07
8.7569e-06
3.59029e-07
8.75385e-06
3.23888e-07
8.75463e-06
2.59616e-07
8.76645e-06
2.42594e-07
8.77615e-06
2.4536e-07
2.25564e-07
8.77801e-06
9.14391e-06
1.29906e-07
9.1427e-06
4.75395e-07
9.12373e-06
9.12141e-08
9.14899e-06
2.46675e-07
9.15453e-06
5.33061e-07
9.1441e-06
3.20973e-07
9.15356e-06
2.33492e-07
9.15976e-06
4.4617e-07
9.14259e-06
3.41558e-07
9.14078e-06
2.4076e-07
9.15649e-06
3.68551e-07
9.15293e-06
4.02994e-07
9.14615e-06
3.01737e-07
9.16012e-06
2.97151e-07
9.17432e-06
3.4483e-07
9.17402e-06
3.24179e-07
9.17292e-06
2.60725e-07
9.18223e-06
2.33277e-07
9.19325e-06
2.34342e-07
2.2167e-07
9.19715e-06
9.57694e-06
1.0643e-07
9.58147e-06
4.70866e-07
9.55887e-06
1.13809e-07
9.58322e-06
2.22326e-07
9.59386e-06
5.22421e-07
9.57854e-06
3.36288e-07
9.58714e-06
2.24896e-07
9.59732e-06
4.35993e-07
9.58045e-06
3.58429e-07
9.57468e-06
2.46521e-07
9.59141e-06
3.51821e-07
9.59177e-06
4.02637e-07
9.584e-06
3.09508e-07
9.5944e-06
2.86753e-07
9.61069e-06
3.28537e-07
9.61379e-06
3.21077e-07
9.61206e-06
2.62456e-07
9.61848e-06
2.26864e-07
9.62967e-06
2.23153e-07
2.1574e-07
9.6356e-06
1.00305e-05
8.60175e-08
1.0041e-05
4.60374e-07
1.00156e-05
1.39207e-07
1.00374e-05
2.00547e-07
1.00536e-05
5.06264e-07
1.00347e-05
3.55142e-07
1.00397e-05
2.19948e-07
1.00543e-05
4.21348e-07
1.00398e-05
3.72932e-07
1.00302e-05
2.56175e-07
1.00466e-05
3.35364e-07
1.00513e-05
3.97986e-07
1.00438e-05
3.16971e-07
1.00505e-05
2.80008e-07
1.00673e-05
3.11746e-07
1.00738e-05
3.1461e-07
1.00727e-05
2.636e-07
1.00765e-05
2.23051e-07
1.00867e-05
2.12952e-07
2.08088e-07
1.00943e-05
1.05058e-05
6.88351e-08
1.05222e-05
4.44019e-07
1.0495e-05
1.66349e-07
1.05127e-05
1.82922e-07
1.05345e-05
4.84435e-07
1.05146e-05
3.75081e-07
1.05132e-05
2.21325e-07
1.05318e-05
4.02761e-07
1.05215e-05
3.83237e-07
1.05089e-05
2.68709e-07
1.05235e-05
3.20832e-07
1.05321e-05
3.89324e-07
1.05262e-05
3.22878e-07
1.05297e-05
2.76485e-07
1.05456e-05
2.95867e-07
1.0555e-05
3.0525e-07
1.05552e-05
2.63334e-07
1.05574e-05
2.20917e-07
1.05657e-05
2.04616e-07
1.9945e-07
1.05743e-05
1.10039e-05
5.49285e-08
1.10256e-05
4.22392e-07
1.09981e-05
1.93781e-07
1.10102e-05
1.7088e-07
1.10374e-05
4.5716e-07
1.1019e-05
3.9356e-07
1.10112e-05
2.29073e-07
1.10311e-05
3.82857e-07
1.10259e-05
3.88439e-07
1.10121e-05
2.82554e-07
1.10236e-05
3.09349e-07
1.10353e-05
3.77617e-07
1.10318e-05
3.26327e-07
1.1033e-05
2.75257e-07
1.10469e-05
2.81959e-07
1.10584e-05
2.93801e-07
1.10605e-05
2.61222e-07
1.10619e-05
2.19473e-07
1.10683e-05
1.9828e-07
1.90864e-07
1.10769e-05
1.15261e-05
4.42093e-08
1.15519e-05
3.96554e-07
1.1526e-05
2.19737e-07
1.15315e-05
1.65393e-07
1.15632e-05
4.25418e-07
1.15483e-05
4.08436e-07
1.15355e-05
2.41884e-07
1.1554e-05
3.64377e-07
1.1554e-05
3.88466e-07
1.15403e-05
2.96197e-07
1.15484e-05
3.01289e-07
1.15619e-05
3.64099e-07
1.15613e-05
3.26886e-07
1.15613e-05
2.75262e-07
1.15728e-05
2.70447e-07
1.15853e-05
2.81335e-07
1.15894e-05
2.57118e-07
1.15909e-05
2.17986e-07
1.15957e-05
1.93453e-07
1.83198e-07
1.16034e-05
1.20736e-05
3.64357e-08
1.21023e-05
3.67885e-07
1.20795e-05
2.42478e-07
1.20785e-05
1.66466e-07
1.21127e-05
3.91163e-07
1.21032e-05
4.17904e-07
1.20868e-05
2.58312e-07
1.21021e-05
3.49095e-07
1.21066e-05
3.83974e-07
1.20944e-05
3.0837e-07
1.20993e-05
2.96428e-07
1.21134e-05
3.50013e-07
1.21157e-05
3.24559e-07
1.21155e-05
2.75489e-07
1.21246e-05
2.61257e-07
1.21371e-05
2.68862e-07
1.21431e-05
2.51121e-07
1.2145e-05
2.16058e-07
1.2149e-05
1.89511e-07
1.76693e-07
1.21555e-05
1.26478e-05
3.12363e-08
1.26779e-05
3.37792e-07
1.26597e-05
2.6063e-07
1.26529e-05
1.73336e-07
1.26871e-05
3.56962e-07
1.26843e-05
4.20622e-07
1.2666e-05
2.76686e-07
1.26771e-05
3.37917e-07
1.26849e-05
3.76211e-07
1.26752e-05
3.18091e-07
1.26775e-05
2.94139e-07
1.26911e-05
3.36388e-07
1.2696e-05
3.19691e-07
1.26963e-05
2.75139e-07
1.27035e-05
2.5407e-07
1.27154e-05
2.57008e-07
1.27228e-05
2.43647e-07
1.27255e-05
2.13346e-07
1.2729e-05
1.86039e-07
1.71158e-07
1.27346e-05
1.325e-05
2.81522e-08
1.32802e-05
3.07629e-07
1.32676e-05
2.73181e-07
1.32561e-05
1.84883e-07
1.32879e-05
3.25145e-07
1.32921e-05
4.16406e-07
1.32739e-05
2.94887e-07
1.32806e-05
3.31239e-07
1.32902e-05
3.6663e-07
1.32836e-05
3.24709e-07
1.32842e-05
2.93506e-07
1.32967e-05
3.23906e-07
1.33035e-05
3.12841e-07
1.33049e-05
2.73745e-07
1.33107e-05
2.48297e-07
1.33215e-05
2.46203e-07
1.33299e-05
2.35228e-07
1.33336e-05
2.09652e-07
1.33369e-05
1.82797e-07
1.66265e-07
1.33417e-05
1.38816e-05
2.66869e-08
1.39109e-05
2.78382e-07
1.39042e-05
2.79878e-07
1.38894e-05
1.99699e-07
1.39168e-05
2.97725e-07
1.39275e-05
4.05716e-07
1.39114e-05
3.10968e-07
1.39138e-05
3.28861e-07
1.39239e-05
3.56503e-07
1.39205e-05
3.2814e-07
1.39205e-05
2.93507e-07
1.39314e-05
3.12932e-07
1.39397e-05
3.04603e-07
1.39423e-05
2.71078e-07
1.39474e-05
2.43273e-07
1.39569e-05
2.36644e-07
1.39658e-05
2.26344e-07
1.39705e-05
2.04936e-07
1.39738e-05
1.79522e-07
1.61789e-07
1.39783e-05
1.45441e-05
2.6295e-08
1.45712e-05
2.51217e-07
1.45689e-05
2.82192e-07
1.45535e-05
2.15071e-07
1.45757e-05
2.75544e-07
1.45914e-05
3.9006e-07
1.45787e-05
3.23683e-07
1.45781e-05
3.29428e-07
1.45879e-05
3.4673e-07
1.45875e-05
3.28491e-07
1.45877e-05
2.93359e-07
1.45971e-05
3.03491e-07
1.46061e-05
2.95642e-07
1.461e-05
2.67175e-07
1.46146e-05
2.386e-07
1.46231e-05
2.28194e-07
1.46319e-05
2.17527e-07
1.46376e-05
1.99244e-07
1.46412e-05
1.75965e-07
1.57665e-07
1.46453e-05
1.52385e-05
2.66871e-08
1.52575e-05
2.32204e-07
1.52618e-05
2.77874e-07
1.52501e-05
2.26775e-07
1.52678e-05
2.57829e-07
1.52842e-05
3.73689e-07
1.52759e-05
3.31979e-07
1.52744e-05
3.30975e-07
1.52834e-05
3.37704e-07
1.52857e-05
3.26196e-07
1.52866e-05
2.92463e-07
1.52949e-05
2.95144e-07
1.53042e-05
2.86399e-07
1.53093e-05
2.62065e-07
1.5314e-05
2.33904e-07
1.53216e-05
2.20541e-07
1.53301e-05
2.09042e-07
1.53365e-05
1.92848e-07
1.53405e-05
1.71946e-07
1.53766e-07
1.53444e-05
1.59673e-05
2.67469e-08
1.59972e-05
2.02247e-07
1.60117e-05
2.63423e-07
1.59936e-05
2.4481e-07
1.59942e-05
2.57274e-07
1.60067e-05
3.61194e-07
1.60048e-05
3.33826e-07
1.60045e-05
3.31274e-07
1.60129e-05
3.29341e-07
1.60171e-05
3.22e-07
1.60189e-05
2.90632e-07
1.60263e-05
2.8782e-07
1.60355e-05
2.77148e-07
1.60415e-05
2.56105e-07
1.60463e-05
2.29061e-07
1.60534e-05
2.13495e-07
1.60614e-05
2.01016e-07
1.60681e-05
1.86117e-07
1.60727e-05
1.67348e-07
1.49826e-07
1.60767e-05
1.67295e-05
2.78678e-08
1.67377e-05
1.93992e-07
1.67482e-05
2.52916e-07
1.67416e-05
2.51426e-07
1.67486e-05
2.5025e-07
1.67659e-05
3.4394e-07
1.67687e-05
3.31028e-07
1.67694e-05
3.30526e-07
1.67773e-05
3.21463e-07
1.67829e-05
3.16446e-07
1.67859e-05
2.87564e-07
1.67929e-05
2.8088e-07
1.68021e-05
2.6797e-07
1.68088e-05
2.4934e-07
1.68141e-05
2.23748e-07
1.68208e-05
2.06839e-07
1.68284e-05
1.93382e-07
1.68352e-05
1.79337e-07
1.68403e-05
1.62253e-07
1.45648e-07
1.68445e-05
1.75297e-05
2.85424e-08
1.75481e-05
1.75606e-07
1.75545e-05
2.46504e-07
1.75439e-05
2.61973e-07
1.75464e-05
2.47749e-07
1.75622e-05
3.28197e-07
1.75688e-05
3.24419e-07
1.75713e-05
3.28055e-07
1.75788e-05
3.1393e-07
1.75853e-05
3.09898e-07
1.75895e-05
2.83394e-07
1.75962e-05
2.74202e-07
1.76049e-05
2.59238e-07
1.76123e-05
2.41947e-07
1.7618e-05
2.18012e-07
1.76244e-05
2.00444e-07
1.76317e-05
1.86111e-07
1.76385e-05
1.72581e-07
1.76438e-05
1.56902e-07
1.41101e-07
1.76484e-05
1.83672e-05
2.96446e-08
1.83732e-05
1.69601e-07
1.83851e-05
2.34669e-07
1.83826e-05
2.64472e-07
1.83849e-05
2.45471e-07
1.83985e-05
3.14512e-07
1.84067e-05
3.16286e-07
1.84107e-05
3.24002e-07
1.84182e-05
3.06482e-07
1.84254e-05
3.0265e-07
1.84308e-05
2.78061e-07
1.84377e-05
2.67219e-07
1.84461e-05
2.50843e-07
1.84539e-05
2.34172e-07
1.84604e-05
2.11571e-07
1.84667e-05
1.94086e-07
1.84737e-05
1.79163e-07
1.84805e-05
1.65746e-07
1.84859e-05
1.5147e-07
1.36197e-07
1.84908e-05
1.92457e-05
3.03492e-08
1.92527e-05
1.62539e-07
1.92621e-05
2.2529e-07
1.92617e-05
2.6494e-07
1.92638e-05
2.43347e-07
1.92756e-05
3.0267e-07
1.92849e-05
3.0706e-07
1.92906e-05
3.18266e-07
1.92981e-05
2.98971e-07
1.9306e-05
2.94725e-07
1.93125e-05
2.71541e-07
1.93196e-05
2.60169e-07
1.93278e-05
2.42596e-07
1.93357e-05
2.26342e-07
1.93426e-05
2.04663e-07
1.93491e-05
1.87586e-07
1.93557e-05
1.72549e-07
1.93626e-05
1.58833e-07
1.93682e-05
1.45832e-07
1.31291e-07
1.93731e-05
2.01658e-05
3.09098e-08
2.01679e-05