/*--------------------------------*- C++ -*----------------------------------*\
| =========                 |                                                 |
| \\      /  F ield         | OpenFOAM: The Open Source CFD Toolbox           |
|  \\    /   O peration     | Version:  v1906                                 |
|   \\  /    A nd           | Web:      www.OpenFOAM.com                      |
|    \\/     M anipulation  |                                                 |
\*---------------------------------------------------------------------------*/
FoamFile
{
    version     2.0;
    format      ascii;
    class       volVectorField;
    location    "10.3";
    object      U;
}
// * * * * * * * * * * * * * * * * * * * * * * * * * * * * * * * * * * * * * //

dimensions      [0 1 -1 0 0 0 0];


internalField   nonuniform List<vector> 
9600
(
(0.848572 0.0107336 0)
(1.18799 0.0018483 0)
(0.903609 -0.000320361 0)
(1.0548 -0.0107589 0)
(0.82358 0.0298574 0)
(1.28967 -0.000831411 0)
(0.583838 -0.00758029 0)
(1.25498 0.0152525 0)
(0.716116 -0.00212431 0)
(1.14732 0.0135962 0)
(0.872057 0.00669748 0)
(1.11271 0.0115484 0)
(0.861168 0.0152412 0)
(1.09993 0.00152026 0)
(0.827481 0.0209022 0)
(1.1188 0.00573728 0)
(0.788942 0.0183136 0)
(1.12299 0.0178662 0)
(0.79108 0.0155318 0)
(1.09249 0.0178477 0)
(0.852618 0.0104783 0)
(1.1782 0.00166807 0)
(0.90774 0.000667323 0)
(1.04882 -0.00986916 0)
(0.82572 0.0278789 0)
(1.27941 0.00244189 0)
(0.594591 -0.00760959 0)
(1.24613 0.0143411 0)
(0.736983 -0.00118896 0)
(1.13934 0.0121556 0)
(0.890301 0.00675136 0)
(1.10396 0.0121703 0)
(0.884336 0.0151906 0)
(1.08012 0.00261456 0)
(0.857665 0.0202216 0)
(1.08002 0.00706604 0)
(0.843785 0.0182631 0)
(1.05071 0.0171643 0)
(0.893599 0.0178048 0)
(0.97056 0.0150487 0)
(0.861861 0.0101395 0)
(1.15973 0.00150552 0)
(0.917938 0.00144944 0)
(1.0381 -0.00909046 0)
(0.830833 0.0252957 0)
(1.26098 0.00470275 0)
(0.627675 -0.00790863 0)
(1.22116 0.0131026 0)
(0.78294 -0.000231173 0)
(1.11367 0.01013 0)
(0.92527 0.00707255 0)
(1.08115 0.0125827 0)
(0.927813 0.0154236 0)
(1.04594 0.00339519 0)
(0.908978 0.0198007 0)
(1.03332 0.00779964 0)
(0.911062 0.0184172 0)
(0.992566 0.0165331 0)
(0.951124 0.0191833 0)
(0.948509 0.0145549 0)
(0.876182 0.00989584 0)
(1.1345 0.00130539 0)
(0.934766 0.00222038 0)
(1.0246 -0.00825705 0)
(0.840001 0.0230324 0)
(1.23191 0.00680496 0)
(0.687564 -0.00783181 0)
(1.17514 0.011702 0)
(0.847032 0.000807467 0)
(1.07246 0.008365 0)
(0.960714 0.00742371 0)
(1.05187 0.0125722 0)
(0.967686 0.0159511 0)
(1.01418 0.00379874 0)
(0.950383 0.0198792 0)
(1.00409 0.00792293 0)
(0.953435 0.0190564 0)
(0.975256 0.0161702 0)
(0.969779 0.0195026 0)
(0.961139 0.0154593 0)
(0.89444 0.00976206 0)
(1.1053 0.00103869 0)
(0.95563 0.00294883 0)
(1.01121 -0.00730511 0)
(0.854432 0.0210352 0)
(1.19242 0.00833138 0)
(0.766182 -0.00735509 0)
(1.11422 0.0101165 0)
(0.909987 0.0019059 0)
(1.02974 0.00704172 0)
(0.981674 0.00752353 0)
(1.02671 0.0124515 0)
(0.989946 0.0165678 0)
(0.994395 0.00421831 0)
(0.970287 0.0199495 0)
(0.989481 0.00803392 0)
(0.970216 0.0195757 0)
(0.973864 0.0160154 0)
(0.974067 0.0196114 0)
(0.968596 0.0163954 0)
(0.914675 0.00971333 0)
(1.07604 0.000710417 0)
(0.976158 0.00359425 0)
(1.0011 -0.00628876 0)
(0.873961 0.0192681 0)
(1.14707 0.00911398 0)
(0.845877 -0.00648692 0)
(1.05471 0.00860018 0)
(0.955807 0.00281116 0)
(0.998685 0.00625451 0)
(0.986906 0.00739552 0)
(1.00922 0.0123403 0)
(0.997089 0.0171205 0)
(0.986415 0.00475793 0)
(0.974942 0.0199103 0)
(0.981442 0.00833173 0)
(0.972057 0.0196534 0)
(0.972014 0.0161747 0)
(0.972461 0.0196146 0)
(0.968729 0.01706 0)
(0.934584 0.00972904 0)
(1.05073 0.000353457 0)
(0.992406 0.00411461 0)
(0.996271 -0.00527642 0)
(0.896222 0.0178546 0)
(1.10346 0.00922022 0)
(0.911107 -0.00539233 0)
(1.01143 0.00743328 0)
(0.980979 0.00337865 0)
(0.982653 0.00597885 0)
(0.984362 0.0071754 0)
(0.998147 0.0121699 0)
(0.996971 0.0175102 0)
(0.986311 0.00534041 0)
(0.974235 0.019945 0)
(0.977421 0.00870994 0)
(0.968655 0.019555 0)
(0.968288 0.0165371 0)
(0.96916 0.0193855 0)
(0.966856 0.0175902 0)
(0.952222 0.00978419 0)
(1.03185 4.50018e-06 0)
(1.00252 0.00448395 0)
(0.996523 -0.0043265 0)
(0.917983 0.0168534 0)
(1.06838 0.00883823 0)
(0.955686 -0.00426968 0)
(0.988423 0.00673273 0)
(0.991074 0.00366543 0)
(0.977513 0.00602129 0)
(0.981582 0.00694435 0)
(0.99192 0.0119189 0)
(0.995164 0.0176799 0)
(0.989716 0.00590676 0)
(0.974208 0.020088 0)
(0.977202 0.00916343 0)
(0.96636 0.0195087 0)
(0.96591 0.0169245 0)
(0.967769 0.0189868 0)
(0.966976 0.0180438 0)
(0.966492 0.00984658 0)
(1.01972 -0.000294086 0)
(1.00705 0.00470451 0)
(0.999645 -0.00348334 0)
(0.937183 0.0162129 0)
(1.04462 0.0081946 0)
(0.981471 -0.00323871 0)
(0.98052 0.00643618 0)
(0.993851 0.0037941 0)
(0.977989 0.00616784 0)
(0.98149 0.0067476 0)
(0.989407 0.011638 0)
(0.993958 0.0176506 0)
(0.993366 0.00642252 0)
(0.976309 0.0202778 0)
(0.979913 0.00972766 0)
(0.967721 0.0195081 0)
(0.96707 0.0173185 0)
(0.970085 0.0184908 0)
(0.970535 0.0183534 0)
(0.977199 0.0098881 0)
(1.01296 -0.000512036 0)
(1.00803 0.00480268 0)
(1.00292 -0.00277553 0)
(0.953491 0.0158338 0)
(1.03089 0.00747259 0)
(0.993918 -0.0023344 0)
(0.98036 0.0063906 0)
(0.994852 0.00384714 0)
(0.98086 0.00630502 0)
(0.983722 0.00660666 0)
(0.98942 0.0113776 0)
(0.993761 0.0175042 0)
(0.995836 0.00687685 0)
(0.979728 0.0204489 0)
(0.984048 0.0103626 0)
(0.972394 0.0194785 0)
(0.971763 0.0177356 0)
(0.975852 0.017907 0)
(0.97705 0.0184878 0)
(0.984755 0.00989359 0)
(1.00964 -0.000650083 0)
(1.00758 0.00481901 0)
(1.00462 -0.00221447 0)
(0.967337 0.01561 0)
(1.02391 0.00680746 0)
(0.998676 -0.00155094 0)
(0.982989 0.00645221 0)
(0.996365 0.00385741 0)
(0.984648 0.00640856 0)
(0.987102 0.00651872 0)
(0.990861 0.0111625 0)
(0.994405 0.0173278 0)
(0.997184 0.00727364 0)
(0.983543 0.0205342 0)
(0.988455 0.0109964 0)
(0.978884 0.0193506 0)
(0.978677 0.0181402 0)
(0.983655 0.0172637 0)
(0.985154 0.0184752 0)
(0.989813 0.00985996 0)
(1.00824 -0.000721052 0)
(1.00699 0.00479566 0)
(1.00448 -0.00179283 0)
(0.978885 0.0154571 0)
(1.02059 0.00626211 0)
(0.999956 -0.000861365 0)
(0.986241 0.00653132 0)
(0.998511 0.00383177 0)
(0.988543 0.00648594 0)
(0.990736 0.00647408 0)
(0.992994 0.0109982 0)
(0.995726 0.0171673 0)
(0.998057 0.00762114 0)
(0.987377 0.0204963 0)
(0.992665 0.0115788 0)
(0.985818 0.0190745 0)
(0.986302 0.0184956 0)
(0.991905 0.0166191 0)
(0.993385 0.0183384 0)
(0.993046 0.00979067 0)
(1.0078 -0.00074206 0)
(1.00664 0.00476517 0)
(1.00319 -0.00148943 0)
(0.987862 0.0153225 0)
(1.01898 0.00583797 0)
(1.00018 -0.000237494 0)
(0.989351 0.0065919 0)
(1.00072 0.00377707 0)
(0.991981 0.00654285 0)
(0.994061 0.00646626 0)
(0.995337 0.010875 0)
(0.997528 0.0170259 0)
(0.998951 0.00793901 0)
(0.991091 0.020324 0)
(0.996544 0.0120962 0)
(0.992287 0.0186482 0)
(0.993456 0.0187734 0)
(0.999376 0.0160285 0)
(1.00062 0.0180984 0)
(0.995052 0.00969086 0)
(1.0078 -0.000726933 0)
(1.00646 0.00474412 0)
(1.00164 -0.00127329 0)
(0.994101 0.0151756 0)
(1.01812 0.00552173 0)
(1.00034 0.000327884 0)
(0.991952 0.00663253 0)
(1.0026 0.00369918 0)
(0.994674 0.00658726 0)
(0.996727 0.00648138 0)
(0.997493 0.0107739 0)
(0.999464 0.0169029 0)
(0.999955 0.00824125 0)
(0.994466 0.0200197 0)
(0.999935 0.012562 0)
(0.997744 0.0181015 0)
(0.999375 0.0189601 0)
(1.00536 0.0155368 0)
(1.00626 0.0177744 0)
(0.996322 0.00956525 0)
(1.00789 -0.000684001 0)
(1.00636 0.00473525 0)
(1.00032 -0.00111487 0)
(0.998005 0.0150045 0)
(1.01754 0.00527834 0)
(1.00058 0.000842992 0)
(0.993907 0.00666818 0)
(1.0041 0.00359924 0)
(0.996616 0.00662894 0)
(0.998605 0.00650813 0)
(0.999172 0.0106798 0)
(1.00115 0.0167927 0)
(1.00092 0.00853223 0)
(0.997234 0.0196108 0)
(1.00264 0.01298 0)
(1.00193 0.0174884 0)
(1.00373 0.0190584 0)
(1.00962 0.0151633 0)
(1.0102 0.0173781 0)
(0.99718 0.00941828 0)
(1.00781 -0.000617777 0)
(1.00645 0.00473236 0)
(0.999306 -0.000987697 0)
(1.00044 0.0148061 0)
(1.01693 0.00508137 0)
(1.00081 0.00131631 0)
(0.995396 0.00670571 0)
(1.00537 0.00348068 0)
(0.997947 0.00667358 0)
(0.999773 0.00654438 0)
(1.0003 0.0105895 0)
(1.00238 0.0166753 0)
(1.00173 0.00882265 0)
(0.999301 0.0191234 0)
(1.00458 0.0133512 0)
(1.00489 0.0168612 0)
(1.00659 0.0190711 0)
(1.01233 0.0149097 0)
(1.01269 0.0169272 0)
(0.997774 0.00925516 0)
(1.00745 -0.000533374 0)
(1.00683 0.0047283 0)
(0.998501 -0.000872844 0)
(1.00217 0.0145837 0)
(1.01609 0.00492183 0)
(1.00093 0.00174444 0)
(0.996754 0.00674847 0)
(1.00654 0.00334773 0)
(0.998785 0.00673381 0)
(1.00041 0.00659107 0)
(1.00098 0.010495 0)
(1.0032 0.0165421 0)
(1.00243 0.00911108 0)
(1.00081 0.0185908 0)
(1.00591 0.0136747 0)
(1.00688 0.016246 0)
(1.00831 0.0190041 0)
(1.01384 0.0147711 0)
(1.01413 0.0164454 0)
(0.998138 0.00908154 0)
(1.00689 -0.000437289 0)
(1.00748 0.00471797 0)
(0.997867 -0.000760255 0)
(1.0035 0.014342 0)
(1.01504 0.00480241 0)
(1.00101 0.00211558 0)
(0.998144 0.00679875 0)
(1.00758 0.00321111 0)
(0.999196 0.00682275 0)
(1.00065 0.00664563 0)
(1.00138 0.0103882 0)
(1.00374 0.0163921 0)
(1.00306 0.00938958 0)
(1.00197 0.0180417 0)
(1.00681 0.0139522 0)
(1.00819 0.0156705 0)
(1.00926 0.0188676 0)
(1.01451 0.0147189 0)
(1.01484 0.0159388 0)
(0.998296 0.00890201 0)
(1.00625 -0.00033487 0)
(1.00822 0.00469547 0)
(0.997456 -0.00063773 0)
(1.00436 0.014084 0)
(1.01396 0.0047234 0)
(1.00112 0.00242088 0)
(0.999439 0.00685457 0)
(1.00839 0.00308896 0)
(0.999264 0.00693819 0)
(1.0006 0.00671026 0)
(1.0016 0.0102594 0)
(1.00406 0.0162225 0)
(1.00362 0.00965461 0)
(1.00289 0.0174882 0)
(1.00742 0.0141953 0)
(1.00902 0.0151561 0)
(1.00969 0.0186726 0)
(1.01459 0.0147298 0)
(1.01504 0.0154098 0)
(0.998308 0.00871891 0)
(1.00566 -0.000229207 0)
(1.00887 0.00465695 0)
(0.997303 -0.000496494 0)
(1.00468 0.0138145 0)
(1.013 0.00467762 0)
(1.00129 0.00265655 0)
(1.00042 0.00692478 0)
(1.00891 0.00298515 0)
(0.999137 0.00707493 0)
(1.00035 0.00678853 0)
(1.0017 0.0101006 0)
(1.00418 0.0160325 0)
(1.00404 0.00989507 0)
(1.00356 0.016945 0)
(1.00779 0.0144205 0)
(1.0095 0.0146993 0)
(1.00979 0.0184324 0)
(1.01425 0.0148068 0)
(1.01493 0.0148839 0)
(0.998258 0.00853255 0)
(1.00519 -0.000119938 0)
(1.00934 0.00459791 0)
(0.997366 -0.000328694 0)
(1.0046 0.0135311 0)
(1.01224 0.00465552 0)
(1.00151 0.00283394 0)
(1.00101 0.00701528 0)
(1.00912 0.0028982 0)
(0.998982 0.00722436 0)
(1.00001 0.00687993 0)
(1.00176 0.00991509 0)
(1.00409 0.0158254 0)
(1.00431 0.0101057 0)
(1.00396 0.016417 0)
(1.00796 0.0146315 0)
(1.0097 0.0142923 0)
(1.00972 0.0181577 0)
(1.01367 0.0149539 0)
(1.01468 0.0143896 0)
(0.99821 0.00834127 0)
(1.00483 -3.37693e-06 0)
(1.00961 0.00451447 0)
(0.997559 -0.000128359 0)
(1.00434 0.0132292 0)
(1.0117 0.00465193 0)
(1.00172 0.00296267 0)
(1.0013 0.00713316 0)
(1.00911 0.00282107 0)
(0.998912 0.0073749 0)
(0.999703 0.00699553 0)
(1.00185 0.00969379 0)
(1.00386 0.0156113 0)
(1.00447 0.0102908 0)
(1.00417 0.0158968 0)
(1.00799 0.0148286 0)
(1.00976 0.013932 0)
(1.00964 0.0178307 0)
(1.01302 0.0151559 0)
(1.01443 0.0139444 0)
(0.998185 0.00814328 0)
(1.00458 0.000122477 0)
(1.00974 0.00440786 0)
(0.997819 0.000102473 0)
(1.00406 0.0129084 0)
(1.01134 0.00466683 0)
(1.00185 0.00304741 0)
(1.00144 0.00728301 0)
(1.00896 0.00274877 0)
(0.998965 0.00751764 0)
(0.999461 0.00714536 0)
(1.00205 0.00943784 0)
(1.00359 0.0153987 0)
(1.00456 0.0104592 0)
(1.00428 0.015373 0)
(1.00796 0.0150156 0)
(1.00974 0.0136313 0)
(1.00962 0.0174255 0)
(1.0124 0.0153861 0)
(1.01425 0.0135779 0)
(0.998181 0.00793659 0)
(1.00441 0.00026139 0)
(1.00974 0.00427553 0)
(0.998118 0.000362664 0)
(1.00382 0.0125664 0)
(1.01112 0.00470114 0)
(1.00188 0.00310033 0)
(1.00155 0.00745307 0)
(1.00875 0.00268972 0)
(0.999127 0.00763406 0)
(0.999287 0.00733361 0)
(1.00236 0.00916483 0)
(1.00335 0.0151725 0)
(1.00462 0.010629 0)
(1.00435 0.0148364 0)
(1.00791 0.0151823 0)
(1.00971 0.0134062 0)
(1.00971 0.016936 0)
(1.01187 0.0156165 0)
(1.01412 0.0133368 0)
(0.998185 0.00771968 0)
(1.00431 0.000415153 0)
(1.00963 0.00411914 0)
(0.998453 0.000647457 0)
(1.00359 0.0122015 0)
(1.01099 0.00476445 0)
(1.00184 0.00312801 0)
(1.00166 0.00763968 0)
(1.00853 0.00264179 0)
(0.999362 0.00771777 0)
(0.999161 0.00756073 0)
(1.00276 0.00887614 0)
(1.00317 0.0149303 0)
(1.00465 0.0108104 0)
(1.00443 0.0142905 0)
(1.00785 0.0153079 0)
(1.00966 0.0132646 0)
(1.00988 0.0163712 0)
(1.01144 0.0158025 0)
(1.01399 0.0132477 0)
(0.998191 0.00749165 0)
(1.00427 0.00058577 0)
(1.00943 0.00393869 0)
(0.998821 0.000956634 0)
(1.00336 0.0118128 0)
(1.01092 0.00485236 0)
(1.00176 0.00313394 0)
(1.00178 0.00783365 0)
(1.00833 0.00261383 0)
(0.999639 0.00775425 0)
(0.999065 0.00782949 0)
(1.00318 0.00858014 0)
(1.00308 0.0146741 0)
(1.00464 0.0110113 0)
(1.00453 0.0137406 0)
(1.00779 0.0153774 0)
(1.00959 0.0132223 0)
(1.01007 0.0157488 0)
(1.0111 0.0158837 0)
(1.01381 0.013311 0)
(0.998201 0.00724943 0)
(1.00428 0.000777716 0)
(1.00916 0.00373244 0)
(0.999206 0.00128767 0)
(1.00312 0.0114062 0)
(1.01085 0.00495735 0)
(1.00168 0.00312532 0)
(1.00189 0.00802736 0)
(1.00817 0.00261473 0)
(0.999939 0.00773581 0)
(0.998992 0.00812651 0)
(1.0036 0.00829809 0)
(1.00306 0.0143821 0)
(1.00458 0.0112493 0)
(1.00465 0.0131905 0)
(1.00772 0.0153716 0)
(1.0095 0.0132773 0)
(1.01025 0.0151067 0)
(1.01085 0.0158137 0)
(1.01356 0.0135155 0)
(0.998222 0.00699449 0)
(1.00431 0.000987154 0)
(1.00884 0.00350638 0)
(0.999583 0.00163395 0)
(1.00288 0.0109846 0)
(1.01075 0.00507933 0)
(1.00164 0.00310928 0)
(1.00196 0.00820716 0)
(1.00806 0.00265335 0)
(1.00025 0.00766452 0)
(0.998937 0.00844286 0)
(1.004 0.00803777 0)
(1.00312 0.0140396 0)
(1.00446 0.0115228 0)
(1.00479 0.0126568 0)
(1.00766 0.0152705 0)
(1.00937 0.0134164 0)
(1.0104 0.0145101 0)
(1.01071 0.0155742 0)
(1.01325 0.0137854 0)
(0.998259 0.0067239 0)
(1.00435 0.00122048 0)
(1.00851 0.00325649 0)
(0.999924 0.0019943 0)
(1.00267 0.0105546 0)
(1.01059 0.00520695 0)
(1.00165 0.00309623 0)
(1.00201 0.00836078 0)
(1.008 0.00273701 0)
(1.00057 0.0075384 0)
(0.998896 0.0087694 0)
(1.00435 0.00781661 0)
(1.00325 0.0136459 0)
(1.0043 0.0118231 0)
(1.00493 0.0121687 0)
(1.00762 0.0150536 0)
(1.00923 0.0136134 0)
(1.0105 0.0140126 0)
(1.01065 0.0151748 0)
(1.01291 0.014009 0)
(0.998314 0.00643801 0)
(1.00438 0.00147482 0)
(1.00821 0.0029891 0)
(1.00021 0.00236162 0)
(1.00252 0.010119 0)
(1.01038 0.00533644 0)
(1.00172 0.00309542 0)
(1.00203 0.00848146 0)
(1.00796 0.0028682 0)
(1.00091 0.0073801 0)
(0.998864 0.00908976 0)
(1.00465 0.00765079 0)
(1.00345 0.0131981 0)
(1.00412 0.0121428 0)
(1.00505 0.0117574 0)
(1.00763 0.01472 0)
(1.00907 0.013826 0)
(1.01054 0.0136417 0)
(1.01066 0.0146505 0)
(1.01261 0.0140962 0)
(0.998387 0.00613798 0)
(1.00437 0.00174735 0)
(1.00794 0.00270988 0)
(1.00044 0.00272871 0)
(1.00242 0.00968725 0)
(1.01012 0.00545446 0)
(1.00184 0.00311157 0)
(1.00203 0.00855667 0)
(1.00795 0.00304218 0)
(1.00127 0.00719582 0)
(0.99884 0.00939679 0)
(1.00491 0.00754901 0)
(1.00372 0.0127044 0)
(1.00394 0.0124553 0)
(1.00515 0.0114473 0)
(1.0077 0.0142874 0)
(1.00892 0.014005 0)
(1.01051 0.0134031 0)
(1.01071 0.014074 0)
(1.01238 0.0139971 0)
(0.998472 0.00582243 0)
(1.00433 0.00204045 0)
(1.00772 0.00241897 0)
(1.00061 0.0030915 0)
(1.00237 0.00927012 0)
(1.00983 0.00554348 0)
(1.00197 0.00316383 0)
(1.00201 0.00858197 0)
(1.00792 0.00325316 0)
(1.00163 0.00698555 0)
(0.998825 0.00967725 0)
(1.00511 0.00751812 0)
(1.00403 0.012177 0)
(1.0038 0.0127346 0)
(1.00521 0.0112475 0)
(1.00784 0.013773 0)
(1.0088 0.0141078 0)
(1.01042 0.0132884 0)
(1.01077 0.0135305 0)
(1.01225 0.0137206 0)
(0.998568 0.00549367 0)
(1.00423 0.00234793 0)
(1.00755 0.00212593 0)
(1.00074 0.00343774 0)
(1.00235 0.00887448 0)
(1.00953 0.00560238 0)
(1.00211 0.00325708 0)
(1.00199 0.00856838 0)
(1.00788 0.00349164 0)
(1.00201 0.00676957 0)
(0.998823 0.00991222 0)
(1.00526 0.00754525 0)
(1.00439 0.0116217 0)
(1.00369 0.012965 0)
(1.00523 0.01116 0)
(1.00802 0.0132066 0)
(1.00873 0.0141165 0)
(1.01028 0.0132841 0)
(1.0108 0.0130788 0)
(1.0122 0.0133056 0)
(0.998669 0.00515429 0)
(1.0041 0.00266343 0)
(1.00742 0.00183547 0)
(1.00086 0.00376204 0)
(1.00233 0.00851284 0)
(1.00924 0.00562021 0)
(1.00224 0.00338801 0)
(1.00197 0.00852903 0)
(1.00781 0.00374877 0)
(1.00239 0.00656119 0)
(0.998837 0.0100906 0)
(1.00535 0.00762852 0)
(1.00479 0.0110499 0)
(1.00363 0.0131226 0)
(1.00519 0.0111886 0)
(1.00824 0.012625 0)
(1.00873 0.0140048 0)
(1.0101 0.0133427 0)
(1.01077 0.0127426 0)
(1.0122 0.0128356 0)
(0.998774 0.00480605 0)
(1.00393 0.00298493 0)
(1.0073 0.00155185 0)
(1.00097 0.00405818 0)
(1.00231 0.00818867 0)
(1.00895 0.00559537 0)
(1.00237 0.00355099 0)
(1.00195 0.00846803 0)
(1.00772 0.00401077 0)
(1.00277 0.00636916 0)
(0.998874 0.0102204 0)
(1.00538 0.00777361 0)
(1.00522 0.0104766 0)
(1.00364 0.0131832 0)
(1.00511 0.0113239 0)
(1.00847 0.0120661 0)
(1.00881 0.0137607 0)
(1.00992 0.0134182 0)
(1.01068 0.0125167 0)
(1.01222 0.0124006 0)
(0.99888 0.00444844 0)
(1.00373 0.00331043 0)
(1.0072 0.00128663 0)
(1.00108 0.00430503 0)
(1.00228 0.00792431 0)
(1.00867 0.00552031 0)
(1.00249 0.00372685 0)
(1.00192 0.00839995 0)
(1.0076 0.00426519 0)
(1.00316 0.00619693 0)
(0.998939 0.010305 0)
(1.00536 0.00796776 0)
(1.00566 0.00992955 0)
(1.00372 0.0131398 0)
(1.00497 0.0115403 0)
(1.00868 0.0115687 0)
(1.00897 0.0133888 0)
(1.00975 0.0134855 0)
(1.01051 0.0123825 0)
(1.0122 0.0120333 0)
(0.998987 0.00408762 0)
(1.00351 0.00362933 0)
(1.00709 0.00104501 0)
(1.0012 0.00449572 0)
(1.00222 0.00772686 0)
(1.0084 0.00539238 0)
(1.00261 0.00391218 0)
(1.00189 0.00833698 0)
(1.00747 0.00450181 0)
(1.00354 0.00603812 0)
(0.999036 0.0103384 0)
(1.00529 0.00820162 0)
(1.00609 0.00942628 0)
(1.00388 0.0129813 0)
(1.0048 0.0118088 0)
(1.00884 0.0111766 0)
(1.00922 0.0128916 0)
(1.00962 0.0135075 0)
(1.01029 0.0123356 0)
(1.01214 0.0117209 0)
(0.999093 0.00372472 0)
(1.00326 0.00393957 0)
(1.00697 0.000835286 0)
(1.00132 0.00461805 0)
(1.00215 0.00759509 0)
(1.00813 0.00523779 0)
(1.00272 0.00408757 0)
(1.00186 0.00828903 0)
(1.00731 0.00471616 0)
(1.00393 0.00588215 0)
(0.999171 0.0103246 0)
(1.00517 0.0084668 0)
(1.00651 0.00897159 0)
(1.00413 0.0127046 0)
(1.0046 0.0120956 0)
(1.00891 0.0109292 0)
(1.00952 0.0122933 0)
(1.00957 0.0134298 0)
(1.01001 0.0123919 0)
(1.01202 0.011467 0)
(0.999197 0.00336265 0)
(1.00301 0.00423086 0)
(1.00684 0.000673456 0)
(1.00146 0.00465801 0)
(1.00205 0.00753475 0)
(1.00786 0.00507165 0)
(1.00285 0.00423315 0)
(1.00182 0.00827141 0)
(1.00713 0.00493082 0)
(1.00432 0.00572877 0)
(0.999349 0.0102715 0)
(1.00501 0.00875647 0)
(1.00689 0.00858165 0)
(1.00447 0.0123207 0)
(1.00441 0.012357 0)
(1.00888 0.0108421 0)
(1.00985 0.0116569 0)
(1.00961 0.0131876 0)
(1.00971 0.0125148 0)
(1.01181 0.011316 0)
(0.999299 0.00300611 0)
(1.00274 0.00449732 0)
(1.00669 0.000563016 0)
(1.00161 0.00460742 0)
(1.00194 0.00752933 0)
(1.00759 0.00490992 0)
(1.00299 0.00433648 0)
(1.00179 0.00828418 0)
(1.00693 0.00514888 0)
(1.0047 0.00557616 0)
(0.999579 0.0101766 0)
(1.00481 0.0090615 0)
(1.00722 0.00827533 0)
(1.00489 0.011846 0)
(1.00427 0.0125429 0)
(1.00875 0.0108923 0)
(1.01016 0.0110686 0)
(1.00978 0.0127659 0)
(1.00944 0.0126107 0)
(1.0115 0.0113107 0)
(0.999397 0.00265727 0)
(1.00246 0.0047351 0)
(1.00651 0.00051174 0)
(1.00177 0.00446812 0)
(1.00181 0.0075616 0)
(1.00731 0.00477184 0)
(1.00314 0.00437808 0)
(1.00177 0.00831348 0)
(1.0067 0.00537786 0)
(1.00508 0.00542699 0)
(0.999864 0.0100262 0)
(1.00459 0.00937008 0)
(1.00747 0.00806244 0)
(1.00538 0.0113033 0)
(1.00419 0.0126236 0)
(1.00851 0.011047 0)
(1.01041 0.0105997 0)
(1.01006 0.0122093 0)
(1.00924 0.012583 0)
(1.01111 0.0114254 0)
(0.999491 0.00232028 0)
(1.00218 0.0049319 0)
(1.0063 0.000530792 0)
(1.00195 0.00425234 0)
(1.00167 0.00760802 0)
(1.007 0.00467643 0)
(1.00331 0.00435125 0)
(1.00176 0.00834866 0)
(1.00645 0.00563413 0)
(1.00544 0.00528273 0)
(1.00021 0.00981378 0)
(1.00436 0.00967557 0)
(1.00764 0.00795494 0)
(1.00591 0.0107162 0)
(1.00421 0.012581 0)
(1.00821 0.0112625 0)
(1.01056 0.0102753 0)
(1.01041 0.0115837 0)
(1.00917 0.0123869 0)
(1.0107 0.0115606 0)
(0.999581 0.00199962 0)
(1.00189 0.00508326 0)
(1.00605 0.000615223 0)
(1.00213 0.00397666 0)
(1.00154 0.00764858 0)
(1.00668 0.00464531 0)
(1.00349 0.00424943 0)
(1.00177 0.00836461 0)
(1.00616 0.00592407 0)
(1.00576 0.00515504 0)
(1.00062 0.00953763 0)
(1.00414 0.00995527 0)
(1.00772 0.00795373 0)
(1.00647 0.0101143 0)
(1.00434 0.0123994 0)
(1.00787 0.0114904 0)
(1.01057 0.0101009 0)
(1.01078 0.0109632 0)
(1.00925 0.012043 0)
(1.01031 0.0116154 0)
(0.999666 0.00169906 0)
(1.00162 0.00518193 0)
(1.00577 0.000763777 0)
(1.00231 0.00366052 0)
(1.00142 0.00765814 0)
(1.00632 0.00469463 0)
(1.00368 0.00409383 0)
(1.00181 0.00833506 0)
(1.00584 0.00626165 0)
(1.00605 0.00507948 0)
(1.00108 0.0091975 0)
(1.00395 0.0101776 0)
(1.00771 0.00805943 0)
(1.00701 0.00955116 0)
(1.00459 0.0120739 0)
(1.00753 0.0116741 0)
(1.01045 0.0100638 0)
(1.01112 0.0104019 0)
(1.00945 0.0115859 0)
(1.01002 0.0115466 0)
(0.999745 0.00142104 0)
(1.00134 0.00522541 0)
(1.00545 0.000970783 0)
(1.0025 0.00332097 0)
(1.00131 0.00761651 0)
(1.00594 0.00483189 0)
(1.00386 0.00391788 0)
(1.0019 0.0082392 0)
(1.00551 0.00663636 0)
(1.00627 0.00508341 0)
(1.0016 0.0088052 0)
(1.00381 0.0103176 0)
(1.0076 0.00825368 0)
(1.00752 0.00907368 0)
(1.00495 0.011613 0)
(1.00724 0.0117512 0)
(1.01021 0.0101337 0)
(1.01138 0.00994646 0)
(1.00974 0.0110505 0)
(1.00985 0.0113627 0)
(0.999818 0.00117025 0)
(1.00108 0.00520526 0)
(1.0051 0.00122578 0)
(1.00268 0.00299084 0)
(1.00123 0.00750213 0)
(1.00552 0.00505612 0)
(1.00403 0.00375251 0)
(1.00204 0.00805563 0)
(1.00517 0.00700421 0)
(1.00642 0.00518339 0)
(1.00215 0.00838881 0)
(1.00373 0.0103529 0)
(1.00741 0.00849438 0)
(1.00794 0.00871244 0)
(1.00539 0.0110631 0)
(1.00704 0.0116892 0)
(1.00988 0.0102562 0)
(1.01151 0.0096359 0)
(1.01009 0.0104832 0)
(1.00981 0.0110764 0)
(0.999885 0.000950428 0)
(1.00084 0.00511935 0)
(1.00471 0.00151937 0)
(1.00284 0.0026879 0)
(1.00119 0.00729977 0)
(1.00508 0.00534768 0)
(1.00416 0.00363748 0)
(1.00223 0.00778308 0)
(1.00485 0.00732908 0)
(1.00649 0.00537984 0)
(1.00271 0.00797806 0)
(1.00374 0.01027 0)
(1.00717 0.00873892 0)
(1.00826 0.00847664 0)
(1.00589 0.0104824 0)
(1.00695 0.0114854 0)
(1.0095 0.0103555 0)
(1.01151 0.00946754 0)
(1.01043 0.00995012 0)
(1.0099 0.0106915 0)
(0.999945 0.00076079 0)
(1.00062 0.00496782 0)
(1.0043 0.0018418 0)
(1.00298 0.00242838 0)
(1.00118 0.00701354 0)
(1.00463 0.00566701 0)
(1.00424 0.00361873 0)
(1.00247 0.0074382 0)
(1.00456 0.00756709 0)
(1.00648 0.00565112 0)
(1.00325 0.00761436 0)
(1.00382 0.0100796 0)
(1.00691 0.00894504 0)
(1.00847 0.00834731 0)
(1.00639 0.00991955 0)
(1.00697 0.0111635 0)
(1.00914 0.0103878 0)
(1.01138 0.00940215 0)
(1.01071 0.00951792 0)
(1.01009 0.0102282 0)
(0.999997 0.000607405 0)
(1.00043 0.00474873 0)
(1.00387 0.00217436 0)
(1.00309 0.0022385 0)
(1.00123 0.00664032 0)
(1.00419 0.00597511 0)
(1.00427 0.00372036 0)
(1.00273 0.00706035 0)
(1.00433 0.00769171 0)
(1.00641 0.00596238 0)
(1.00375 0.00732251 0)
(1.00398 0.00979935 0)
(1.00666 0.00908228 0)
(1.00856 0.00830169 0)
(1.00687 0.00941597 0)
(1.00709 0.0107533 0)
(1.00882 0.0103341 0)
(1.01116 0.00937845 0)
(1.01089 0.00920891 0)
(1.01033 0.00974318 0)
(1.00004 0.000485839 0)
(1.00027 0.0044778 0)
(1.00344 0.00249923 0)
(1.00316 0.00213003 0)
(1.00132 0.00619229 0)
(1.00377 0.00623179 0)
(1.00423 0.00393095 0)
(1.003 0.00671137 0)
(1.00417 0.0077097 0)
(1.00628 0.00627359 0)
(1.00419 0.00710659 0)
(1.0042 0.00945642 0)
(1.00644 0.00913483 0)
(1.00855 0.00831092 0)
(1.00729 0.00899673 0)
(1.00729 0.0102859 0)
(1.00857 0.0101903 0)
(1.01088 0.00934759 0)
(1.01095 0.0090006 0)
(1.01056 0.00931243 0)
(1.00008 0.000395044 0)
(1.00014 0.00416651 0)
(1.00301 0.00279617 0)
(1.00318 0.00211702 0)
(1.00145 0.00570336 0)
(1.0034 0.00640471 0)
(1.00413 0.0042108 0)
(1.00326 0.00641384 0)
(1.00406 0.00763382 0)
(1.00613 0.00655425 0)
(1.00456 0.00697501 0)
(1.00446 0.00909711 0)
(1.00626 0.00910656 0)
(1.00848 0.0083419 0)
(1.00763 0.00867211 0)
(1.00754 0.00980494 0)
(1.00841 0.00996251 0)
(1.01059 0.0092843 0)
(1.01092 0.00884791 0)
(1.01074 0.00897787 0)
(1.00011 0.000336035 0)
(1.00005 0.0038313 0)
(1.00259 0.00303699 0)
(1.00315 0.00219322 0)
(1.00161 0.00521269 0)
(1.00309 0.00648731 0)
(1.00399 0.00452499 0)
(1.00348 0.0061839 0)
(1.00402 0.00748098 0)
(1.00596 0.00676685 0)
(1.00485 0.00689745 0)
(1.00474 0.00873607 0)
(1.00615 0.00900015 0)
(1.00835 0.00836114 0)
(1.00789 0.0084305 0)
(1.0078 0.00935778 0)
(1.00834 0.00967336 0)
(1.01031 0.00918344 0)
(1.01083 0.00871227 0)
(1.01085 0.00872368 0)
(1.00013 0.000295726 0)
(0.999984 0.00350053 0)
(1.00221 0.00321196 0)
(1.00307 0.00232912 0)
(1.00178 0.00474185 0)
(1.00286 0.00646121 0)
(1.00382 0.00485377 0)
(1.00366 0.00607432 0)
(1.00403 0.00731432 0)
(1.00581 0.0069312 0)
(1.00508 0.00686386 0)
(1.00502 0.00838785 0)
(1.00609 0.00880747 0)
(1.00821 0.00832451 0)
(1.00806 0.00821715 0)
(1.00806 0.00893146 0)
(1.00834 0.00931678 0)
(1.01007 0.00900961 0)
(1.0107 0.00853898 0)
(1.01088 0.00847052 0)
(1.00015 0.000276428 0)
(0.999951 0.00317303 0)
(1.00187 0.00332531 0)
(1.00294 0.002511 0)
(1.00196 0.00432019 0)
(1.0027 0.00629209 0)
(1.00364 0.00511578 0)
(1.0038 0.00601773 0)
(1.00406 0.00713576 0)
(1.00567 0.0070556 0)
(1.00524 0.00689618 0)
(1.00527 0.0081262 0)
(1.00608 0.00862489 0)
(1.00806 0.00831307 0)
(1.00817 0.00810643 0)
(1.00829 0.00860893 0)
(1.00839 0.00898934 0)
(1.00987 0.00883599 0)
(1.01054 0.00839718 0)
(1.01088 0.00825762 0)
(1.00016 0.00027148 0)
(0.999943 0.00287439 0)
(1.00157 0.00336621 0)
(1.00278 0.00271831 0)
(1.00211 0.00399988 0)
(1.00261 0.00606849 0)
(1.00348 0.00533565 0)
(1.00389 0.00599736 0)
(1.00413 0.00693079 0)
(1.00556 0.00705646 0)
(1.00536 0.00684966 0)
(1.00551 0.00781012 0)
(1.00612 0.00832281 0)
(1.00794 0.00817514 0)
(1.00821 0.00794703 0)
(1.00847 0.0082816 0)
(1.00847 0.00861602 0)
(1.00971 0.00859233 0)
(1.01037 0.00823358 0)
(1.01083 0.00804083 0)
(1.00017 0.000259866 0)
(0.999953 0.00261981 0)
(1.00132 0.0033561 0)
(1.0026 0.00292774 0)
(1.00224 0.00376248 0)
(1.00258 0.00580736 0)
(1.00335 0.00546752 0)
(1.00393 0.00601707 0)
(1.00418 0.00678032 0)
(1.00545 0.00707755 0)
(1.00543 0.006874 0)
(1.00571 0.00760498 0)
(1.00619 0.00807181 0)
(1.00784 0.00804037 0)
(1.00823 0.00781645 0)
(1.00862 0.00802979 0)
(1.00858 0.00827933 0)
(1.00963 0.00831515 0)
(1.01021 0.00804332 0)
(1.01076 0.00781196 0)
(1.00017 0.000276644 0)
(0.999983 0.00235478 0)
(1.00112 0.00321369 0)
(1.0024 0.00306699 0)
(1.00233 0.00360964 0)
(1.00259 0.0055853 0)
(1.00325 0.00554287 0)
(1.00396 0.00604197 0)
(1.00425 0.00662081 0)
(1.00539 0.00701895 0)
(1.00547 0.00685214 0)
(1.00587 0.00740003 0)
(1.00626 0.00779431 0)
(1.00776 0.00784995 0)
(1.00821 0.00765207 0)
(1.0087 0.00779475 0)
(1.00865 0.0079854 0)
(1.00955 0.00803296 0)
(1.01005 0.00784386 0)
(1.01064 0.00761659 0)
(1.00017 0.000278659 0)
(1 0.00215907 0)
(1.00096 0.00305908 0)
(1.00223 0.00320147 0)
(1.00242 0.00355597 0)
(1.00264 0.00539387 0)
(1.00318 0.00555997 0)
(1.00395 0.0060399 0)
(1.0043 0.00646185 0)
(1.00534 0.00691294 0)
(1.00549 0.00680961 0)
(1.00598 0.00723333 0)
(1.00635 0.00753478 0)
(1.00772 0.00764376 0)
(1.00822 0.00747997 0)
(1.00879 0.00756426 0)
(1.00875 0.00772262 0)
(1.00953 0.00777511 0)
(1.00994 0.00763984 0)
(1.01055 0.00744295 0)
(1.00017 0.000283148 0)
(1.00004 0.00201058 0)
(1.00084 0.00295491 0)
(1.00207 0.00333427 0)
(1.00247 0.00353723 0)
(1.00269 0.00517999 0)
(1.00314 0.00550617 0)
(1.00394 0.00601497 0)
(1.00435 0.00631114 0)
(1.00532 0.00679362 0)
(1.00551 0.00675009 0)
(1.00607 0.00709273 0)
(1.00642 0.00729226 0)
(1.00768 0.00740469 0)
(1.00818 0.00727163 0)
(1.00883 0.00729971 0)
(1.00881 0.00740778 0)
(1.00949 0.00747471 0)
(1.00983 0.00736629 0)
(1.01042 0.00719088 0)
(1.00016 0.000302863 0)
(1.00007 0.00187479 0)
(1.00077 0.00283947 0)
(1.00192 0.00341439 0)
(1.0025 0.00349427 0)
(1.00276 0.00494004 0)
(1.00312 0.0053566 0)
(1.0039 0.00591033 0)
(1.00437 0.00609663 0)
(1.0053 0.00658276 0)
(1.00551 0.00659453 0)
(1.00611 0.00690671 0)
(1.00646 0.00704105 0)
(1.00765 0.00714311 0)
(1.00816 0.00704519 0)
(1.00885 0.00706338 0)
(1.00889 0.00712552 0)
(1.00949 0.0072088 0)
(1.00974 0.00715098 0)
(1.01031 0.00698938 0)
(1.00016 0.000303033 0)
(1.0001 0.00181232 0)
(1.00072 0.00272917 0)
(1.00178 0.00344312 0)
(1.00248 0.00345009 0)
(1.00281 0.00472349 0)
(1.00312 0.00519125 0)
(1.00387 0.00581822 0)
(1.00439 0.00595382 0)
(1.00531 0.00642956 0)
(1.00554 0.00648809 0)
(1.00616 0.00678741 0)
(1.00649 0.00688034 0)
(1.00761 0.00695379 0)
(1.00813 0.00684152 0)
(1.00886 0.00685146 0)
(1.00893 0.00687532 0)
(1.0095 0.00692124 0)
(1.00966 0.00691327 0)
(1.01019 0.00675521 0)
(1.00015 0.000302178 0)
(1.00012 0.00176123 0)
(1.00068 0.00263303 0)
(1.00166 0.00344654 0)
(1.00245 0.0034397 0)
(1.00286 0.00456212 0)
(1.00314 0.00505606 0)
(1.00384 0.00573132 0)
(1.00438 0.00582594 0)
(1.00529 0.00623459 0)
(1.00554 0.00628671 0)
(1.00616 0.00656789 0)
(1.00648 0.00663519 0)
(1.00754 0.00669598 0)
(1.00807 0.00656583 0)
(1.00883 0.00655267 0)
(1.00893 0.00658119 0)
(1.0095 0.0065906 0)
(1.0096 0.00661915 0)
(1.01006 0.00650537 0)
(1.00015 0.000310153 0)
(1.00015 0.00167986 0)
(1.00066 0.00248165 0)
(1.00154 0.00340614 0)
(1.0024 0.00341433 0)
(1.00288 0.00440771 0)
(1.00317 0.00488406 0)
(1.0038 0.00559138 0)
(1.00435 0.00567862 0)
(1.00526 0.00604526 0)
(1.00555 0.00608002 0)
(1.00617 0.00637297 0)
(1.00647 0.00643199 0)
(1.00746 0.00649425 0)
(1.00798 0.00636745 0)
(1.0088 0.00629854 0)
(1.00893 0.00631772 0)
(1.00949 0.00630844 0)
(1.00956 0.00632344 0)
(1.00995 0.00626651 0)
(1.00015 0.000311542 0)
(1.00016 0.00161441 0)
(1.00066 0.00232705 0)
(1.00146 0.00334591 0)
(1.00235 0.00339655 0)
(1.0029 0.00428986 0)
(1.00321 0.00472641 0)
(1.00378 0.00545844 0)
(1.00431 0.00554442 0)
(1.00522 0.0058759 0)
(1.00555 0.00587248 0)
(1.00619 0.00614187 0)
(1.00646 0.00619929 0)
(1.00739 0.00625888 0)
(1.00788 0.00615784 0)
(1.00873 0.00605549 0)
(1.00891 0.00602873 0)