/*--------------------------------*- C++ -*----------------------------------*\
| =========                 |                                                 |
| \\      /  F ield         | OpenFOAM: The Open Source CFD Toolbox           |
|  \\    /   O peration     | Version:  v1812                                 |
|   \\  /    A nd           | Web:      www.OpenFOAM.com                      |
|    \\/     M anipulation  |                                                 |
\*---------------------------------------------------------------------------*/
FoamFile
{
    version     2.0;
    format      ascii;
    class       volScalarField;
    location    "9.4";
    object      p;
}
// * * * * * * * * * * * * * * * * * * * * * * * * * * * * * * * * * * * * * //

dimensions      [0 2 -2 0 0 0 0];


internalField   nonuniform List<scalar> 
9600
(
-7.01869e-10
-0.00526852
-0.00438778
-0.00496989
-0.00310795
0.000208007
-0.00141266
-0.00469835
-0.00771249
-0.0074139
-0.00764141
-0.00596638
-0.0060683
-0.00650838
-0.00614853
-0.0060208
-0.003472
-0.00285537
0.00128285
0.00785633
3.20553e-06
-0.00527323
-0.00438965
-0.00496377
-0.00311145
0.000183221
-0.00138807
-0.00471471
-0.00768446
-0.0073977
-0.00765804
-0.00594772
-0.00607421
-0.0065167
-0.00615043
-0.00603029
-0.00346252
-0.0029049
0.00157853
0.00739896
6.54258e-06
-0.00527988
-0.00438832
-0.00495433
-0.00312192
0.000154176
-0.00134882
-0.00474182
-0.00763397
-0.00737284
-0.00767491
-0.00591386
-0.00609299
-0.00652178
-0.00616035
-0.00603539
-0.00347745
-0.00294896
0.00171947
0.00676631
5.6493e-06
-0.00528949
-0.00438375
-0.00494543
-0.00313523
0.000117383
-0.00132913
-0.00478218
-0.00757108
-0.0073397
-0.00768619
-0.00588903
-0.00612026
-0.00652637
-0.00617912
-0.00604325
-0.0034982
-0.00299165
0.00174302
0.00622075
-2.39834e-07
-0.0053025
-0.00437729
-0.00493716
-0.00315052
6.90574e-05
-0.00133414
-0.00483479
-0.00749271
-0.00730288
-0.00770043
-0.00588038
-0.00615417
-0.0065376
-0.00620311
-0.00605793
-0.00351253
-0.00304335
0.00175256
0.00572057
-1.06908e-05
-0.00531929
-0.00436942
-0.00492904
-0.00316704
7.32871e-06
-0.0013585
-0.00489792
-0.00740144
-0.00727034
-0.00772251
-0.00588393
-0.00619277
-0.00655381
-0.00622654
-0.00607409
-0.00352413
-0.00309639
0.00172531
0.00524855
-2.53326e-05
-0.00533962
-0.00436003
-0.0049208
-0.00318417
-6.76196e-05
-0.00139862
-0.00496942
-0.00730241
-0.0072442
-0.00775195
-0.005894
-0.00623207
-0.00657171
-0.00624444
-0.00608963
-0.00353538
-0.00314687
0.00165541
0.00479749
-4.37691e-05
-0.00536288
-0.00434909
-0.00491221
-0.00320182
-0.000154966
-0.00145148
-0.00504595
-0.00719983
-0.00722197
-0.00778714
-0.00590631
-0.00627002
-0.00659113
-0.0062548
-0.00610373
-0.00354774
-0.00319317
0.00153914
0.00436259
-6.547e-05
-0.00538843
-0.00433679
-0.00490313
-0.00322044
-0.000253723
-0.00151312
-0.00512422
-0.00709595
-0.00720069
-0.00782706
-0.00591894
-0.00630641
-0.00661288
-0.0062578
-0.00611553
-0.00356305
-0.00323559
0.00137531
0.00394002
-8.98737e-05
-0.00541585
-0.0043234
-0.00489345
-0.00324064
-0.000362797
-0.00157994
-0.00520189
-0.00699195
-0.00717813
-0.00787126
-0.00593157
-0.00634106
-0.00663756
-0.00625465
-0.00612419
-0.00358407
-0.00327568
0.00116628
0.00352629
-0.000116492
-0.00544493
-0.0043093
-0.00488316
-0.00326288
-0.00048097
-0.00164957
-0.0052778
-0.00688865
-0.00715292
-0.00791972
-0.00594432
-0.00637347
-0.00666583
-0.0062467
-0.00612922
-0.00361439
-0.00331534
0.000916574
0.00311748
-0.00014494
-0.00547563
-0.00429503
-0.00487232
-0.00328741
-0.000606837
-0.00172079
-0.00535176
-0.00678716
-0.00712443
-0.00797254
-0.00595747
-0.00640348
-0.00669802
-0.00623546
-0.00613119
-0.00365683
-0.00335645
0.000631029
0.00270866
-0.00017494
-0.00550796
-0.00428115
-0.00486097
-0.00331427
-0.000738859
-0.00179321
-0.00542425
-0.00668887
-0.0070923
-0.00802981
-0.00597169
-0.00643107
-0.00673391
-0.00622281
-0.00613087
-0.00371269
-0.00340242
0.000314215
0.00229525
-0.000206309
-0.00554196
-0.00426822
-0.00484914
-0.00334348
-0.000875588
-0.0018669
-0.00549604
-0.00659499
-0.0070561
-0.00809161
-0.0059878
-0.00645604
-0.00677336
-0.00621082
-0.00612901
-0.00378213
-0.003458
-3.04801e-05
0.00187457
-0.000238956
-0.00557764
-0.00425669
-0.0048368
-0.00337516
-0.00101588
-0.00194228
-0.00556768
-0.00650647
-0.00701534
-0.00815797
-0.00600652
-0.00647832
-0.00681673
-0.00620152
-0.00612752
-0.00386449
-0.00352623
-0.000400634
0.00144518
-0.000272872
-0.00561494
-0.00424705
-0.00482394
-0.00340943
-0.001159
-0.00201989
-0.00563934
-0.00642409
-0.00696965
-0.00822879
-0.00602853
-0.00649793
-0.00686461
-0.00619621
-0.00612906
-0.00395893
-0.00360848
-0.000793475
0.00100491
-0.000308112
-0.00565376
-0.00423973
-0.00481046
-0.00344654
-0.00130448
-0.00210025
-0.00571084
-0.00634878
-0.00691876
-0.00830371
-0.00605464
-0.00651484
-0.00691711
-0.00619538
-0.00613666
-0.00406534
-0.00370516
-0.00120681
0.000551572
-0.000344789
-0.00569391
-0.00423513
-0.00479628
-0.00348679
-0.00145196
-0.00218379
-0.00578198
-0.00628161
-0.00686235
-0.0083822
-0.00608551
-0.00652866
-0.00697505
-0.00619923
-0.00615284
-0.00418514
-0.00381452
-0.00163831
8.38671e-05
-0.00038306
-0.00573513
-0.00423361
-0.00478127
-0.00353059
-0.00160098
-0.00227088
-0.0058526
-0.00622361
-0.00680031
-0.00846371
-0.00612186
-0.00653851
-0.00704014
-0.00620763
-0.00617809
-0.00432069
-0.00393389
-0.00208403
-0.000399533
-0.000423131
-0.00577711
-0.0042355
-0.00476534
-0.00357832
-0.00175106
-0.0023619
-0.0059224
-0.00617577
-0.00673283
-0.00854737
-0.00616485
-0.00654356
-0.00711346
-0.00622041
-0.00621164
-0.00447535
-0.00406163
-0.00253945
-0.000909819
-0.000465244
-0.00581952
-0.00424121
-0.00474836
-0.00363043
-0.00190173
-0.00245721
-0.00599103
-0.00613912
-0.00666028
-0.00863217
-0.00621619
-0.00654262
-0.00719584
-0.00623852
-0.00625211
-0.00465311
-0.00419597
-0.00299916
-0.00144938
-0.000509668
-0.00586202
-0.00425115
-0.00473021
-0.0036874
-0.00205265
-0.00255714
-0.00605821
-0.00611458
-0.00658321
-0.00871691
-0.00627772
-0.00653443
-0.00728789
-0.00626444
-0.00629667
-0.00485754
-0.0043373
-0.00345477
-0.00202011
-0.000556697
-0.00590429
-0.0042658
-0.00471077
-0.00374963
-0.00220359
-0.00266205
-0.00612364
-0.00610293
-0.00650258
-0.00879976
-0.0063516
-0.00651807
-0.00738921
-0.00630161
-0.00634087
-0.00509035
-0.00448942
-0.00389483
-0.00262151
-0.000606642
-0.00594602
-0.0042857
-0.00468993
-0.00381758
-0.00235424
-0.00277239
-0.00618704
-0.00610476
-0.00642
-0.00887829
-0.00644013
-0.00649304
-0.00749854
-0.00635422
-0.00638014
-0.00535046
-0.00466754
-0.00430885
-0.0032486
-0.000659817
-0.00598689
-0.00431142
-0.00466757
-0.0038917
-0.0025044
-0.00288837
-0.00624848
-0.00612026
-0.00633744
-0.0089499
-0.006545
-0.00646004
-0.00761342
-0.00642741
-0.00641229
-0.00563416
-0.00487975
-0.00468971
-0.0038902
-0.000716549
-0.00602658
-0.00434361
-0.00464362
-0.00397227
-0.00265406
-0.00301014
-0.00630835
-0.00614904
-0.00625721
-0.0090122
-0.00666762
-0.00642084
-0.00773017
-0.00652685
-0.00643692
-0.00593451
-0.00513718
-0.00503279
-0.00452615
-0.000777196
-0.0060647
-0.00438294
-0.00461805
-0.00405942
-0.00280333
-0.00313761
-0.00636713
-0.00619038
-0.00618179
-0.00906328
-0.00680927
-0.00637777
-0.0078443
-0.00665777
-0.00645564
-0.00624061
-0.00544855
-0.00534457
-0.0051335
-0.000842175
-0.00610087
-0.00443005
-0.0045909
-0.00415333
-0.00295248
-0.0032702
-0.00642571
-0.00624325
-0.00611353
-0.00910175
-0.00697016
-0.00633432
-0.00795088
-0.00682361
-0.0064744
-0.00653952
-0.00581582
-0.00564232
-0.00569013
-0.000911924
-0.00613469
-0.00448561
-0.00456225
-0.00425392
-0.00310208
-0.00340704
-0.00648533
-0.00630615
-0.0060547
-0.00912671
-0.00714924
-0.00629519
-0.00804543
-0.00702604
-0.00650151
-0.00681913
-0.00623576
-0.00594839
-0.00617883
-0.000986877
-0.00616571
-0.00455032
-0.00453229
-0.00436078
-0.00325295
-0.00354691
-0.00654749
-0.00637754
-0.00600732
-0.00913817
-0.00734455
-0.00626544
-0.00812426
-0.00726506
-0.00654693
-0.00706863
-0.00669855
-0.00628723
-0.00659654
-0.00106751
-0.0061935
-0.00462487
-0.00450135
-0.00447331
-0.00340629
-0.00368803
-0.00661265
-0.00645678
-0.00597269
-0.00913703
-0.0075543
-0.0062502
-0.00818374
-0.0075378
-0.00662273
-0.00728116
-0.00718817
-0.00667917
-0.00695448
-0.00115433
-0.00621753
-0.00470982
-0.00447002
-0.0045907
-0.00356372
-0.00382818
-0.00668437
-0.00654432
-0.00595099
-0.00912467
-0.00777723
-0.00625444
-0.00822129
-0.00783889
-0.00674044
-0.00745497
-0.00768428
-0.00713579
-0.0072787
-0.0012479
-0.00623727
-0.00480571
-0.0044391
-0.00471171
-0.00372725
-0.00396508
-0.00676181
-0.00664072
-0.00594216
-0.00910295
-0.00801149
-0.00628239
-0.00823684
-0.00816066
-0.00690934
-0.00759436
-0.00816346
-0.00765763
-0.00760724
-0.00134875
-0.00625224
-0.00491287
-0.00440958
-0.00483457
-0.00389903
-0.00409727
-0.0068443
-0.00674705
-0.00594634
-0.00907318
-0.00825534
-0.00633809
-0.00823032
-0.00849497
-0.00713733
-0.00770941
-0.00860315
-0.00823383
-0.00797997
-0.0014575
-0.00626194
-0.0050314
-0.00438294
-0.00495698
-0.00408137
-0.00422406
-0.00692997
-0.0068654
-0.00596398
-0.00903574
-0.00850736
-0.0064267
-0.00820264
-0.00883236
-0.00743031
-0.00781507
-0.00898538
-0.00884149
-0.00842387
-0.00157477
-0.00626588
-0.00516131
-0.00436106
-0.0050764
-0.00427624
-0.00434565
-0.00701599
-0.00699782
-0.00599638
-0.00899045
-0.00876571
-0.00655443
-0.00815719
-0.00916088
-0.0077893
-0.0079293
-0.00930152
-0.00945101
-0.00894513
-0.00170115
-0.00626374
-0.00530236
-0.00434621
-0.00518997
-0.00448493
-0.00446339
-0.00709872
-0.00714635
-0.00604591
-0.00893683
-0.00902802
-0.00672616
-0.00809896
-0.00946826
-0.00821104
-0.00807161
-0.00955209
-0.010033
-0.00952967
-0.00183721
-0.00625537
-0.00545388
-0.00434116
-0.00529466
-0.00470793
-0.00457996
-0.00717437
-0.00731251
-0.00611584
-0.00887409
-0.00929065
-0.00694619
-0.00803591
-0.00974045
-0.00868868
-0.00826362
-0.00974355
-0.0105636
-0.0101532
-0.00198342
-0.00624078
-0.00561505
-0.0043488
-0.00538787
-0.00494501
-0.00469936
-0.00723881
-0.00749552
-0.00621134
-0.00880242
-0.00954742
-0.00721842
-0.00798087
-0.00996344
-0.00920899
-0.00852591
-0.00988891
-0.0110263
-0.01079
-0.00214027
-0.00622034
-0.00578627
-0.00437244
-0.00546763
-0.00519461
-0.00482638
-0.00728834
-0.00769241
-0.00633868
-0.0087246
-0.00979074
-0.00754419
-0.00795049
-0.0101274
-0.00975136
-0.00887292
-0.010009
-0.0114078
-0.0114175
-0.0023082
-0.00619449
-0.00595722
-0.00441586
-0.00553296
-0.00545332
-0.00496657
-0.00732111
-0.00789923
-0.00650323
-0.00864539
-0.0100126
-0.00792084
-0.00796261
-0.0102293
-0.0102893
-0.00931052
-0.0101354
-0.0116997
-0.01201
-0.00248751
-0.00616364
-0.00612933
-0.00448302
-0.00558368
-0.00571641
-0.00512647
-0.00733795
-0.00810867
-0.00670938
-0.00857225
-0.0102047
-0.00834116
-0.00803528
-0.0102759
-0.0107918
-0.00983044
-0.0103085
-0.0119081
-0.0125361
-0.00267845
-0.00612875
-0.00629943
-0.00457769
-0.00562092
-0.00597756
-0.00531251
-0.00734171
-0.00831125
-0.00695905
-0.00851546
-0.0103605
-0.00879368
-0.00818328
-0.0102838
-0.0112297
-0.0104088
-0.0105617
-0.0120596
-0.0129695
-0.00288099
-0.00609015
-0.00646395
-0.00470281
-0.00564715
-0.00623017
-0.00552936
-0.00733793
-0.00849818
-0.00724975
-0.00848749
-0.0104763
-0.00926294
-0.00841534
-0.0102759
-0.0115866
-0.0110145
-0.0109089
-0.0121963
-0.0133035
-0.00309496
-0.00605204
-0.00661956
-0.00486014
-0.00566679
-0.00646641
-0.00577879
-0.00733716
-0.00866086
-0.00757487
-0.00850287
-0.0105528
-0.00972993
-0.00873289
-0.0102796
-0.0118578
-0.0116121
-0.0113446
-0.0123618
-0.0135561
-0.00331998
-0.00601595
-0.00676287
-0.00504967
-0.00568656
-0.00667858
-0.00605911
-0.00735329
-0.00879476
-0.00792324
-0.00857422
-0.010598
-0.0101739
-0.00912662
-0.0103239
-0.0120511
-0.0121679
-0.0118499
-0.0125859
-0.0137592
-0.00355526
-0.00598516
-0.00689054
-0.00526971
-0.0057151
-0.00686198
-0.00636594
-0.00740003
-0.00890208
-0.00827937
-0.00870669
-0.0106264
-0.010577
-0.00957677
-0.0104333
-0.0121872
-0.0126579
-0.0123983
-0.0128811
-0.0139477
-0.00379961
-0.00596358
-0.00699997
-0.00551666
-0.00576283
-0.00701471
-0.00668853
-0.00748677
-0.00898803
-0.0086298
-0.00889813
-0.0106543
-0.0109288
-0.0100599
-0.0106215
-0.0122967
-0.013071
-0.0129573
-0.0132462
-0.01415
-0.0040514
-0.0059552
-0.00708986
-0.00578418
-0.00584041
-0.00713905
-0.00701214
-0.00761654
-0.0090628
-0.00896535
-0.00913988
-0.0106979
-0.0112294
-0.0105535
-0.0108882
-0.0124111
-0.0134113
-0.0134947
-0.0136691
-0.0143868
-0.00430878
-0.00596346
-0.0071608
-0.00606398
-0.00595535
-0.00724288
-0.00732487
-0.00778732
-0.00913892
-0.00928003
-0.00942059
-0.0107723
-0.011486
-0.0110362
-0.011222
-0.0125562
-0.0136946
-0.0139878
-0.0141284
-0.0146701
-0.00456983
-0.00599083
-0.00721593
-0.00634698
-0.00611091
-0.00733979
-0.00761946
-0.00799235
-0.00922651
-0.00957188
-0.00972929
-0.0108864
-0.0117097
-0.0114915
-0.011606
-0.0127481
-0.0139432
-0.0144289
-0.0145984
-0.0149995
-0.0048324
-0.0060392
-0.00725896
-0.00662456
-0.00630684
-0.00744374
-0.00789481
-0.00822259
-0.00933123
-0.00984151
-0.0100553
-0.0110435
-0.011914
-0.0119102
-0.0120198
-0.0129913
-0.0141798
-0.0148226
-0.0150579
-0.0153633
-0.00509451
-0.00610997
-0.00729808
-0.00689055
-0.00653823
-0.00756353
-0.00815216
-0.00847126
-0.0094558
-0.0100905
-0.0103888
-0.0112442
-0.0121141
-0.0122916
-0.0124426
-0.0132793
-0.0144218
-0.0151787
-0.0154981
-0.0157468
-0.00535446
-0.00620269
-0.00733915
-0.00714261
-0.00679836
-0.00770677
-0.00839704
-0.00873367
-0.00960136
-0.0103196
-0.010719
-0.0114839
-0.0123235
-0.0126415
-0.0128582
-0.0136002
-0.0146784
-0.0155083
-0.0159166
-0.0161391
-0.00561186
-0.006316
-0.0073859
-0.00737857
-0.00707829
-0.00787721
-0.00863958
-0.00900789
-0.00976952
-0.0105334
-0.0110387
-0.0117548
-0.0125519
-0.0129692
-0.0132582
-0.0139407
-0.0149507
-0.0158183
-0.0163113
-0.0165355
-0.00586636
-0.00645052
-0.0074427
-0.00759898
-0.00736946
-0.00807491
-0.00888281
-0.00929195
-0.00995906
-0.0107354
-0.0113416
-0.0120473
-0.0128059
-0.0132865
-0.0136413
-0.0142899
-0.0152376
-0.016114
-0.0166795
-0.0169324
-0.0061154
-0.00660627
-0.00751699
-0.00780735
-0.00766993
-0.00829591
-0.00912788
-0.00958403
-0.0101688
-0.0109291
-0.0116224
-0.0123507
-0.013085
-0.0136032
-0.0140099
-0.0146397
-0.0155369
-0.0164035
-0.0170188
-0.0173185
-0.00635749
-0.00676137
-0.00761171
-0.00802824
-0.00798173
-0.00853429
-0.00937299
-0.00988281
-0.0104042
-0.0111234
-0.0118806
-0.0126531
-0.0133826
-0.0139263
-0.0143707
-0.0149851
-0.0158416
-0.0166933
-0.0173318
-0.0176794
-0.00659792
-0.00693955
-0.00772673
-0.00824486
-0.00829204
-0.00878377
-0.00961301
-0.0101824
-0.0106671
-0.0113284
-0.012119
-0.0129439
-0.0136912
-0.014259
-0.0147325
-0.0153293
-0.0161455
-0.0169847
-0.0176302
-0.0180108
-0.00683826
-0.00712997
-0.00786064
-0.00845666
-0.00859992
-0.009044
-0.00984973
-0.0104828
-0.010959
-0.0115582
-0.0123476
-0.0132165
-0.0139998
-0.0145964
-0.0150967
-0.0156793
-0.0164477
-0.0172714
-0.0179226
-0.018318
-0.00707967
-0.00733319
-0.00800945
-0.00866481
-0.00890602
-0.00931937
-0.0100875
-0.0107775
-0.0112732
-0.0118174
-0.0125742
-0.0134687
-0.0142966
-0.0149326
-0.0154592
-0.0160369
-0.0167557
-0.0175488
-0.0182084
-0.0186098
-0.0073237
-0.00754937
-0.00817548
-0.0088713
-0.00920775
-0.00960772
-0.0103281
-0.011057
-0.0115967
-0.0121065
-0.0128121
-0.0137056
-0.0145744
-0.0152611
-0.0158168
-0.0163964
-0.0170777
-0.0178246
-0.0184843
-0.0188934
-0.00757061
-0.00777927
-0.00835618
-0.00907611
-0.00950317
-0.00990688
-0.0105765
-0.0113236
-0.0119174
-0.01242
-0.0130729
-0.0139367
-0.0148297
-0.0155722
-0.0161673
-0.0167512
-0.0174086
-0.018108
-0.0187502
-0.0191688
-0.00781762
-0.00801081
-0.00855702
-0.00928961
-0.00979364
-0.010214
-0.0108353
-0.0115812
-0.0122235
-0.0127455
-0.0133588
-0.014174
-0.0150671
-0.0158572
-0.0165036
-0.0170991
-0.0177398
-0.0184014
-0.0190105
-0.0194327
-0.00806766
-0.00825526
-0.0087727
-0.00950644
-0.0100763
-0.010525
-0.0111061
-0.0118338
-0.0125131
-0.0130699
-0.013663
-0.0144257
-0.0152951
-0.0161138
-0.0168128
-0.0174351
-0.0180658
-0.0187012
-0.0192746
-0.0196866
-0.00832103
-0.00850484
-0.00900332
-0.00972969
-0.0103498
-0.0108343
-0.0113881
-0.0120869
-0.0127873
-0.013384
-0.0139775
-0.0146959
-0.0155275
-0.016352
-0.017089
-0.0177457
-0.0183777
-0.0189961
-0.0195429
-0.0199349
-0.00857885
-0.00876232
-0.00924384
-0.00995847
-0.0106167
-0.0111415
-0.0116819
-0.0123483
-0.0130506
-0.0136781
-0.014284
-0.0149707
-0.0157639
-0.0165817
-0.0173419
-0.0180263
-0.0186673
-0.0192748
-0.0198033
-0.0201758
-0.00883947
-0.00901991
-0.00949434
-0.0101996
-0.0108814
-0.0114416
-0.011978
-0.0126153
-0.0133083
-0.0139581
-0.0145783
-0.0152416
-0.0159945
-0.0167964
-0.0175735
-0.0182823
-0.0189375
-0.0195416
-0.0200574
-0.0204135
-0.00910475
-0.00928323
-0.00975209
-0.0104474
-0.0111423
-0.0117324
-0.012273
-0.0128858
-0.0135609
-0.0142241
-0.0148617
-0.0155119
-0.016224
-0.0169893
-0.0177656
-0.018496
-0.019172
-0.0197876
-0.0203025
-0.0206515
-0.00937475
-0.00955414
-0.0100141
-0.0107006
-0.0114017
-0.0120167
-0.0125665
-0.0131594
-0.013809
-0.0144698
-0.015118
-0.0157666
-0.0164537
-0.0171769
-0.0179285
-0.0186625
-0.0193507
-0.0199835
-0.0205113
-0.0208667
-0.00964542
-0.00982035
-0.0102807
-0.0109638
-0.0116639
-0.0122933
-0.0128541
-0.0134328
-0.0140576
-0.0147068
-0.015351
-0.0159908
-0.0166612
-0.0173521
-0.0180686
-0.0187898
-0.019477
-0.0201117
-0.0206513
-0.0210272
-0.00991957
-0.010093
-0.0105481
-0.0112261
-0.0119241
-0.0125619
-0.0131356
-0.0137062
-0.0143045
-0.0149369
-0.015568
-0.0161873
-0.0168327
-0.017493
-0.0181761
-0.0188723
-0.0195463
-0.0201732
-0.0207115
-0.0210961
-0.0101969
-0.0103705
-0.0108178
-0.0114878
-0.0121805
-0.0128211
-0.0134045
-0.0139747
-0.0145545
-0.0151591
-0.0157635
-0.0163487
-0.0169567
-0.0175837
-0.0182328
-0.0189033
-0.0195671
-0.0201907
-0.0207366
-0.0211228
-0.0104719
-0.0106462
-0.0110921
-0.011754
-0.012436
-0.0130707
-0.0136563
-0.0142337
-0.0148236
-0.0154044
-0.0159515
-0.0164643
-0.016987
-0.0175309
-0.0181049
-0.0187191
-0.019365
-0.0200195
-0.0206619
-0.0212242
-0.0107423
-0.0109204
-0.0113687
-0.0120211
-0.0126898
-0.0133168
-0.0138915
-0.0144746
-0.0151224
-0.0157749
-0.0163099
-0.0167299
-0.0171402
-0.01758
-0.0180385
-0.0184696
-0.0188234
-0.0190609
-0.0192129
-0.0193683
-0.0110232
-0.0111819
-0.0116141
-0.0122483
-0.0129243
-0.0135649
-0.014101
-0.0145923
-0.0151253
-0.015694
-0.0162475
-0.016753
-0.0172344
-0.0176865
-0.018092
-0.0184514
-0.0187863
-0.0191116
-0.0194527
-0.0198502
-0.0113484
-0.0115376
-0.0118793
-0.012405
-0.0129895
-0.0135724
-0.0141203
-0.0146718
-0.0152618
-0.0158665
-0.0164681
-0.0170234
-0.0175044
-0.0179356
-0.0183042
-0.0185975
-0.0188207
-0.0189812
-0.0191228
-0.0193226
-0.0115265
-0.0116379
-0.011994
-0.0125347
-0.0131008
-0.0136714
-0.0142346
-0.0147965
-0.0153896
-0.0159825
-0.0165285
-0.0170233
-0.0174696
-0.0179037
-0.0183828
-0.0189203
-0.0195567
-0.0202737
-0.0210125
-0.0216811
-0.0117921
-0.011942
-0.0122221
-0.0126633
-0.0131661
-0.0137148
-0.01428
-0.0148668
-0.0154864
-0.0161078
-0.0166882
-0.0172042
-0.0176672
-0.0180655
-0.0184015
-0.0186624
-0.0188543
-0.0190124
-0.0191951
-0.0194913
-0.0119599
-0.012092
-0.012343
-0.0127383
-0.013202
-0.0137381
-0.0143057
-0.01491
-0.0155574
-0.0161984
-0.0168006
-0.0173203
-0.0177578
-0.0181301
-0.0184653
-0.0187928
-0.0191323
-0.0194986
-0.0199004
-0.0203738
0.01984
0.00843268
-0.00437723
-0.0128904
-0.0161972
-0.0164962
-0.0165698
-0.0174477
-0.0188939
-0.0203593
-0.021417
-0.0219778
-0.0223677
-0.0229031
-0.0235448
-0.024198
-0.0248851
-0.0255419
-0.0261252
-0.0267703
-0.027522
-0.0282611
-0.0289214
-0.0295323
-0.0301717
-0.0309191
-0.03171
-0.0324271
-0.0331198
-0.0339303
-0.0348865
-0.0359425
-0.0370084
-0.0379721
-0.0387981
-0.0395451
-0.0402701
-0.0410061
-0.041788
-0.0426356
-0.0435157
-0.0443891
-0.0452882
-0.046294
-0.0473804
-0.0484331
-0.0494282
-0.0503792
-0.0513085
-0.0522583
-0.0532605
-0.0543166
-0.0554134
-0.0565089
-0.0576066
-0.0587047
-0.059836
-0.0609962
-0.0621741
-0.0633769
-0.0646273
-0.0658891
-0.0671222
-0.0683775
-0.0696603
-0.070948
-0.0722631
-0.0736305
-0.0750202
-0.076418
-0.0778464
-0.0792941
-0.080783
-0.0822809
-0.0837971
-0.0853311
-0.0869352
-0.0885973
-0.0902823
-0.0919785
-0.0936647
-0.0953944
-0.0971505
-0.0989681
-0.100806
-0.102706
-0.104605
-0.106548
-0.108508
-0.110537
-0.112585
-0.11464
-0.116795
-0.118931
-0.12113
-0.12331
-0.125513
-0.127667
-0.12967
-0.131754
0.0179598
0.00824221
-0.00429399
-0.012763
-0.0161111
-0.0164492
-0.0165374
-0.0174256
-0.0188799
-0.0203503
-0.0214113
-0.0219736
-0.0223636
-0.022899
-0.0235409
-0.0241944
-0.024882
-0.0255393
-0.0261225
-0.0267675
-0.0275195
-0.0282588
-0.0289193
-0.0295302
-0.0301695
-0.030917
-0.0317081
-0.0324254
-0.0331181
-0.0339285
-0.0348847
-0.0359409
-0.0370071
-0.037971
-0.038797
-0.039544
-0.040269
-0.0410051
-0.0417871
-0.0426348
-0.0435149
-0.0443883
-0.0452875
-0.0462933
-0.0473798
-0.0484326
-0.0494278
-0.0503787
-0.051308
-0.0522578
-0.0532601
-0.0543162
-0.055413
-0.0565086
-0.0576062
-0.0587044
-0.0598356
-0.0609959
-0.0621738
-0.0633766
-0.064627
-0.0658888
-0.0671219
-0.0683772
-0.0696601
-0.0709477
-0.0722629
-0.0736303
-0.07502
-0.0764178
-0.0778462
-0.0792939
-0.0807828
-0.0822807
-0.083797
-0.0853309
-0.086935
-0.0885971
-0.0902821
-0.0919784
-0.0936646
-0.0953942
-0.0971504
-0.098968
-0.100806
-0.102706
-0.104605
-0.106548
-0.108508
-0.110536
-0.112585
-0.11464
-0.116795
-0.118931
-0.12113
-0.12331
-0.125513
-0.127667
-0.12967
-0.131754
0.0165995
0.00816972
-0.00408915
-0.012522
-0.015969
-0.0163987
-0.016515
-0.0174045
-0.0188594
-0.0203332
-0.021399
-0.0219657
-0.0223588
-0.0228956
-0.0235377
-0.0241908
-0.0248787
-0.0255367
-0.0261202
-0.0267652
-0.0275174
-0.0282569
-0.0289175
-0.0295284
-0.0301677
-0.0309151
-0.0317064
-0.0324238
-0.0331164
-0.0339268
-0.0348831
-0.0359394
-0.037006
-0.0379702
-0.0387962
-0.039543
-0.0402681
-0.0410042
-0.0417862
-0.042634
-0.0435142
-0.0443877
-0.0452868
-0.0462926
-0.0473793
-0.0484321
-0.0494274
-0.0503784
-0.0513076
-0.0522574
-0.0532597
-0.0543158
-0.0554127
-0.0565083
-0.057606
-0.0587041
-0.0598354
-0.0609956
-0.0621736
-0.0633764
-0.0646267
-0.0658886
-0.0671217
-0.068377
-0.0696599
-0.0709475
-0.0722627
-0.0736301
-0.0750198
-0.0764177
-0.077846
-0.0792937
-0.0807826
-0.0822805
-0.0837968
-0.0853308
-0.0869348
-0.088597
-0.090282
-0.0919782
-0.0936645
-0.0953941
-0.0971503
-0.0989679
-0.100806
-0.102706
-0.104604
-0.106548
-0.108508
-0.110536
-0.112585
-0.11464
-0.116795
-0.118931
-0.12113
-0.12331
-0.125513
-0.127667
-0.12967
-0.131754
0.0153011
0.00802911
-0.00387069
-0.012242
-0.0157907
-0.0163386
-0.0164901
-0.0173774
-0.0188292
-0.0203031
-0.0213726
-0.0219476
-0.0223495
-0.0228915
-0.0235343
-0.0241863
-0.0248739
-0.0255329
-0.0261177
-0.0267633
-0.0275153
-0.0282546
-0.0289156
-0.0295271
-0.0301663
-0.0309134
-0.0317046
-0.0324221
-0.0331148
-0.0339252
-0.0348814
-0.0359379
-0.0370049
-0.0379694
-0.0387954
-0.039542
-0.040267
-0.0410031
-0.0417852
-0.0426331
-0.0435135
-0.0443869
-0.045286
-0.0462919
-0.0473787
-0.0484317
-0.049427
-0.050378
-0.0513072
-0.052257
-0.0532593
-0.0543154
-0.0554123
-0.056508
-0.0576057
-0.0587038
-0.0598351
-0.0609954
-0.0621733
-0.0633761
-0.0646265
-0.0658884
-0.0671215
-0.0683768
-0.0696597
-0.0709473
-0.0722625
-0.0736299
-0.0750196
-0.0764175
-0.0778458
-0.0792935
-0.0807824
-0.0822804
-0.0837967
-0.0853306
-0.0869347
-0.0885968
-0.0902819
-0.0919781
-0.0936643
-0.095394
-0.0971502
-0.0989678
-0.100806
-0.102705
-0.104604
-0.106548
-0.108508
-0.110536
-0.112585
-0.11464
-0.116795
-0.118931
-0.12113
-0.12331
-0.125513
-0.127667
-0.12967
-0.131754
0.0139816
0.00779688
-0.00366142
-0.0119523
-0.0155999
-0.0162746
-0.0164654
-0.0173473
-0.0187913
-0.0202603
-0.0213307
-0.0219165
-0.0223329
-0.0228845
-0.0235298
-0.0241804
-0.0248669
-0.0255272
-0.0261146
-0.0267615
-0.0275129
-0.0282516
-0.0289134
-0.0295263
-0.0301658
-0.0309121
-0.0317025
-0.0324201
-0.0331134
-0.0339237
-0.0348794
-0.0359358
-0.0370035
-0.0379686
-0.0387946
-0.0395408
-0.0402656
-0.0410018
-0.041784
-0.0426321
-0.0435124
-0.0443858
-0.0452849
-0.046291
-0.0473781
-0.0484312
-0.0494266
-0.0503776
-0.0513067
-0.0522564
-0.0532588
-0.054315
-0.0554119
-0.0565077
-0.0576054
-0.0587035
-0.0598347
-0.0609951
-0.062173
-0.0633758
-0.0646262
-0.0658882
-0.0671213
-0.0683766
-0.0696595
-0.0709471
-0.0722623
-0.0736297
-0.0750194
-0.0764173
-0.0778456
-0.0792934
-0.0807822
-0.0822802
-0.0837965
-0.0853304
-0.0869345
-0.0885967
-0.0902817
-0.091978
-0.0936642
-0.0953939
-0.09715
-0.0989676
-0.100806
-0.102705
-0.104604
-0.106548
-0.108508
-0.110536
-0.112585
-0.11464
-0.116795
-0.118931
-0.12113
-0.12331
-0.125513
-0.127667
-0.12967
-0.131755
0.0126547
0.00748757
-0.00345764
-0.0116558
-0.0154015
-0.0162078
-0.0164425
-0.0173172
-0.0187504
-0.020211
-0.0212793
-0.0218756
-0.0223094
-0.0228737
-0.0235232
-0.0241727
-0.0248577
-0.0255196
-0.0261106
-0.0267595
-0.0275099
-0.0282474
-0.0289104
-0.029526
-0.0301665
-0.0309112
-0.0317
-0.0324181
-0.0331126
-0.0339229
-0.0348774
-0.035933
-0.0370013
-0.0379674
-0.0387935
-0.0395392
-0.0402637
-0.0410002
-0.0417828
-0.0426309
-0.043511
-0.0443844
-0.0452836
-0.0462899
-0.0473772
-0.0484305
-0.049426
-0.050377
-0.051306
-0.0522558
-0.0532582
-0.0543145
-0.0554115
-0.0565072
-0.057605
-0.0587031
-0.0598343
-0.0609947
-0.0621727
-0.0633755
-0.0646259
-0.065888
-0.0671211
-0.0683763
-0.0696592
-0.0709469
-0.072262
-0.0736295
-0.0750192
-0.0764171
-0.0778454
-0.0792931
-0.0807821
-0.0822801
-0.0837963
-0.0853302
-0.0869343
-0.0885965
-0.0902816
-0.0919779
-0.0936641
-0.0953937
-0.0971499
-0.0989675
-0.100806
-0.102705
-0.104604
-0.106547
-0.108508
-0.110536
-0.112585
-0.11464
-0.116794
-0.118931
-0.12113
-0.123309
-0.125513
-0.127667
-0.12967
-0.131755
0.011339
0.00711118
-0.00326101
-0.0113552
-0.0151962
-0.0161377
-0.0164214
-0.0172881
-0.018708
-0.020159
-0.0212238
-0.0218298
-0.0222815
-0.0228597
-0.0235143
-0.0241632
-0.0248467
-0.0255105
-0.0261062
-0.0267572
-0.0275059
-0.0282418
-0.0289065
-0.029526
-0.0301683
-0.0309109
-0.0316973
-0.0324161
-0.0331127
-0.0339233
-0.0348758
-0.0359299
-0.0369985
-0.0379657
-0.0387919
-0.0395369
-0.0402611
-0.0409981
-0.0417814
-0.0426296
-0.0435093
-0.0443826
-0.045282
-0.0462884
-0.0473759
-0.0484294
-0.0494252
-0.0503762
-0.0513052
-0.052255
-0.0532575
-0.0543138
-0.0554109
-0.0565067
-0.0576045
-0.0587025
-0.0598338
-0.0609942
-0.0621723
-0.0633751
-0.0646255
-0.0658877
-0.0671208
-0.0683761
-0.069659
-0.0709466
-0.0722618
-0.0736293
-0.075019
-0.0764169
-0.0778452
-0.0792929
-0.0807818
-0.0822799
-0.0837961
-0.08533
-0.086934
-0.0885963
-0.0902814
-0.0919777
-0.0936639
-0.0953935
-0.0971497
-0.0989673
-0.100806
-0.102705
-0.104604
-0.106547
-0.108508
-0.110536
-0.112585
-0.114639
-0.116794
-0.118931
-0.12113
-0.123309
-0.125513
-0.127667
-0.129671
-0.131756
0.0100499
0.00667029
-0.00307963
-0.011054
-0.0149845
-0.016063
-0.0164018
-0.0172604
-0.0186648
-0.0201055
-0.0211663
-0.0217816
-0.0222511
-0.0228432
-0.0235033
-0.0241519
-0.0248344
-0.0255008
-0.0261016
-0.0267547
-0.027501
-0.0282347
-0.0289016
-0.029526
-0.0301707
-0.030911
-0.0316944
-0.032414
-0.0331136
-0.0339249
-0.0348752
-0.035927
-0.0369956
-0.0379636
-0.0387896
-0.0395335
-0.0402572
-0.0409953
-0.0417799
-0.0426283
-0.0435075
-0.0443805
-0.0452802
-0.0462868
-0.0473741
-0.0484279
-0.049424
-0.0503751
-0.0513041
-0.052254
-0.0532566
-0.054313
-0.0554102
-0.056506
-0.0576038
-0.0587019
-0.0598331
-0.0609936
-0.0621718
-0.0633746
-0.0646251
-0.0658873
-0.0671206
-0.0683758
-0.0696586
-0.0709463
-0.0722615
-0.073629
-0.0750187
-0.0764166
-0.077845
-0.0792927
-0.0807816
-0.0822797
-0.0837959
-0.0853297
-0.0869338
-0.0885961
-0.0902813
-0.0919775
-0.0936637
-0.0953933
-0.0971495
-0.0989672
-0.100805
-0.102705
-0.104604
-0.106547
-0.108507
-0.110536
-0.112584
-0.114639
-0.116794
-0.118931
-0.12113
-0.123309
-0.125513
-0.127668
-0.129672
-0.131757
0.00880049
0.00616543
-0.00292232
-0.0107553
-0.0147663
-0.015982
-0.0163826
-0.0172343
-0.018621
-0.0200504
-0.0211071
-0.0217315
-0.0222187
-0.0228248
-0.0234906
-0.0241393
-0.0248212
-0.0254906
-0.0260968
-0.0267521
-0.0274956
-0.0282268
-0.0288959
-0.0295258
-0.0301735
-0.0309114
-0.0316914
-0.0324119
-0.033115
-0.0339275
-0.0348756
-0.0359251
-0.0369932
-0.0379618
-0.0387871
-0.0395289
-0.0402519
-0.0409913
-0.0417778
-0.0426269
-0.0435056
-0.0443786
-0.0452787
-0.0462852
-0.0473722
-0.0484259
-0.0494224
-0.0503736
-0.0513026
-0.0522527
-0.0532556
-0.054312
-0.0554092
-0.0565052
-0.0576031
-0.058701
-0.0598322
-0.0609928
-0.0621711
-0.063374
-0.0646244
-0.0658868
-0.0671202
-0.0683754
-0.0696582
-0.0709459
-0.0722612
-0.0736287
-0.0750185
-0.0764164
-0.0778448
-0.0792924
-0.0807814
-0.0822794
-0.0837957
-0.0853294
-0.0869335
-0.0885959
-0.0902811
-0.0919774
-0.0936635
-0.0953931
-0.0971493
-0.0989669
-0.100805
-0.102705
-0.104604
-0.106547
-0.108507
-0.110536
-0.112584
-0.114639
-0.116794
-0.118931
-0.12113
-0.123309
-0.125513
-0.127668
-0.129673
-0.131759
0.00759996
0.00559803
-0.00279689
-0.0104607
-0.0145402
-0.015892
-0.0163628
-0.0172107
-0.0185775
-0.0199941
-0.0210464
-0.0216797
-0.0221846
-0.0228049
-0.0234766
-0.0241257
-0.0248072
-0.0254798
-0.0260918
-0.0267494
-0.0274899
-0.0282182
-0.0288896
-0.0295253
-0.0301764
-0.0309121
-0.0316885
-0.0324099
-0.0331169
-0.0339309
-0.0348771
-0.0359242
-0.0369921
-0.0379611
-0.0387848
-0.0395238
-0.0402452
-0.0409858
-0.0417748
-0.042625
-0.0435035
-0.0443768
-0.0452776
-0.046284
-0.0473702
-0.0484238
-0.0494205
-0.0503717
-0.0513007
-0.0522511
-0.0532544
-0.0543109
-0.0554081
-0.0565041
-0.0576021
-0.0587
-0.0598311
-0.0609917
-0.0621701
-0.0633731
-0.0646235
-0.065886
-0.0671197
-0.068375
-0.0696577
-0.0709455
-0.0722609
-0.0736284
-0.0750182
-0.0764162
-0.0778446
-0.0792922
-0.0807811
-0.0822792
-0.0837954
-0.0853291
-0.0869331
-0.0885957
-0.0902809
-0.0919772
-0.0936633
-0.0953929
-0.097149
-0.0989667
-0.100805
-0.102705
-0.104603
-0.106547
-0.108507
-0.110536
-0.112584
-0.114639
-0.116794
-0.11893