/*--------------------------------*- C++ -*----------------------------------*\
| =========                 |                                                 |
| \\      /  F ield         | OpenFOAM: The Open Source CFD Toolbox           |
|  \\    /   O peration     | Version:  v1812                                 |
|   \\  /    A nd           | Web:      www.OpenFOAM.com                      |
|    \\/     M anipulation  |                                                 |
\*---------------------------------------------------------------------------*/
FoamFile
{
    version     2.0;
    format      ascii;
    class       surfaceScalarField;
    location    "5.8";
    object      phi;
}
// * * * * * * * * * * * * * * * * * * * * * * * * * * * * * * * * * * * * * //

dimensions      [0 3 -1 0 0 0 0];
oriented        oriented;


internalField   nonuniform List<scalar> 
19000
(
1.16375e-06
-6.89128e-07
1.21474e-06
7.8525e-07
1.13983e-06
5.69084e-07
1.11392e-06
4.35809e-07
1.19673e-06
-2.8018e-06
1.27233e-06
-1.51348e-06
1.25048e-06
-5.3026e-07
1.25319e-06
7.06009e-07
1.227e-06
5.87663e-07
1.22793e-06
7.28356e-07
1.23456e-06
-2.42352e-07
1.21141e-06
-6.27249e-07
1.21265e-06
-1.02655e-06
1.17593e-06
-1.06453e-06
1.19442e-06
-8.96521e-07
1.18988e-06
-6.50856e-07
1.20813e-06
-5.77695e-07
1.20894e-06
-3.84404e-07
1.22192e-06
-2.48176e-07
-1.6549e-07
1.188e-06
1.22273e-06
-6.87602e-07
1.28812e-06
7.19862e-07
1.1994e-06
6.57806e-07
1.17122e-06
4.63986e-07
1.24241e-06
-2.87298e-06
1.31887e-06
-1.58995e-06
1.30878e-06
-5.20171e-07
1.32084e-06
6.93952e-07
1.28919e-06
6.19313e-07
1.30568e-06
7.11869e-07
1.3003e-06
-2.36974e-07
1.28311e-06
-6.10056e-07
1.26157e-06
-1.00501e-06
1.23265e-06
-1.03561e-06
1.23407e-06
-8.97946e-07
1.24655e-06
-6.63329e-07
1.24997e-06
-5.81115e-07
1.27282e-06
-4.07253e-07
1.26547e-06
-2.40827e-07
-1.69741e-07
1.26972e-06
1.28237e-06
-6.87191e-07
1.3625e-06
6.39731e-07
1.26731e-06
7.52999e-07
1.22847e-06
5.02822e-07
1.27842e-06
-2.92292e-06
1.35854e-06
-1.67007e-06
1.36423e-06
-5.25863e-07
1.3835e-06
6.74682e-07
1.36395e-06
6.38866e-07
1.38026e-06
6.95562e-07
1.37154e-06
-2.28253e-07
1.34979e-06
-5.88307e-07
1.31549e-06
-9.70715e-07
1.29128e-06
-1.0114e-06
1.28002e-06
-8.86688e-07
1.29424e-06
-6.77545e-07
1.29764e-06
-5.84523e-07
1.31788e-06
-4.27493e-07
1.32282e-06
-2.45765e-07
-1.66271e-07
1.31935e-06
1.34223e-06
-6.8532e-07
1.42738e-06
5.54579e-07
1.33791e-06
8.42474e-07
1.2901e-06
5.50632e-07
1.3121e-06
-2.94492e-06
1.38991e-06
-1.74788e-06
1.41539e-06
-5.51341e-07
1.44165e-06
6.48421e-07
1.44183e-06
6.38681e-07
1.45892e-06
6.78477e-07
1.44835e-06
-2.1769e-07
1.42127e-06
-5.61221e-07
1.37962e-06
-9.29067e-07
1.35241e-06
-9.84187e-07
1.33459e-06
-8.68868e-07
1.34433e-06
-6.87291e-07
1.34929e-06
-5.8948e-07
1.36625e-06
-4.44456e-07
1.37684e-06
-2.56349e-07
-1.65894e-07
1.37646e-06
1.40363e-06
-6.80592e-07
1.48134e-06
4.76863e-07
1.40906e-06
9.1476e-07
1.35767e-06
6.02014e-07
1.35165e-06
-2.93889e-06
1.41852e-06
-1.81476e-06
1.46304e-06
-5.95856e-07
1.49971e-06
6.11752e-07
1.51985e-06
6.18541e-07
1.5411e-06
6.57228e-07
1.52774e-06
-2.04331e-07
1.4953e-06
-5.28783e-07
1.44797e-06
-8.81741e-07
1.41729e-06
-9.53507e-07
1.39539e-06
-8.46963e-07
1.40099e-06
-6.92892e-07
1.40502e-06
-5.93508e-07
1.42005e-06
-4.59494e-07
1.43209e-06
-2.68383e-07
-1.68783e-07
1.43498e-06
1.46836e-06
-6.73278e-07
1.53004e-06
4.15187e-07
1.48161e-06
9.63192e-07
1.43283e-06
6.50792e-07
1.40295e-06
-2.90901e-06
1.45314e-06
-1.86495e-06
1.51112e-06
-6.53842e-07
1.56212e-06
5.60759e-07
1.59948e-06
5.81176e-07
1.62598e-06
6.30725e-07
1.60849e-06
-1.86832e-07
1.57105e-06
-4.91345e-07
1.51909e-06
-8.29785e-07
1.48571e-06
-9.20129e-07
1.4612e-06
-8.2245e-07
1.4633e-06
-6.94992e-07
1.46585e-06
-5.96054e-07
1.47863e-06
-4.72281e-07
1.49172e-06
-2.81466e-07
-1.72988e-07
1.49592e-06
1.53763e-06
-6.64693e-07
1.58109e-06
3.71726e-07
1.55749e-06
9.86797e-07
1.51586e-06
6.92421e-07
1.46742e-06
-2.86057e-06
1.50037e-06
-1.89791e-06
1.56538e-06
-7.18848e-07
1.63175e-06
4.94392e-07
1.68261e-06
5.30318e-07
1.71231e-06
6.01016e-07
1.68882e-06
-1.63333e-07
1.64682e-06
-4.4935e-07
1.59175e-06
-7.74712e-07
1.55708e-06
-8.85462e-07
1.53139e-06
-7.96755e-07
1.5303e-06
-6.93901e-07
1.53144e-06
-5.97201e-07
1.54164e-06
-4.8248e-07
1.55576e-06
-2.95588e-07
-1.77984e-07
1.56076e-06
1.6114e-06
-6.55961e-07
1.64e-06
3.43124e-07
1.63833e-06
9.88464e-07
1.6058e-06
7.24954e-07
1.54341e-06
-2.79818e-06
1.56233e-06
-1.91682e-06
1.62998e-06
-7.86505e-07
1.70925e-06
4.15122e-07
1.76854e-06
4.71031e-07
1.79794e-06
5.71618e-07
1.76718e-06
-1.32578e-07
1.72192e-06
-4.04091e-07
1.66579e-06
-7.18574e-07
1.63143e-06
-8.51108e-07
1.60581e-06
-7.71132e-07
1.60154e-06
-6.89629e-07
1.60112e-06
-5.9678e-07
1.60837e-06
-4.89737e-07
1.6232e-06
-3.10412e-07
-1.83919e-07
1.62913e-06
1.68884e-06
-6.4723e-07
1.70849e-06
3.23483e-07
1.7245e-06
9.72453e-07
1.70102e-06
7.48428e-07
1.62839e-06
-2.72555e-06
1.6373e-06
-1.92573e-06
1.70519e-06
-8.54401e-07
1.79259e-06
3.27728e-07
1.85424e-06
4.09383e-07
1.88008e-06
5.45774e-07
1.84234e-06
-9.48375e-08
1.79596e-06
-3.5771e-07
1.74114e-06
-6.63755e-07
1.70864e-06
-8.18611e-07
1.68428e-06
-7.46765e-07
1.67688e-06
-6.82237e-07
1.67454e-06
-5.94437e-07
1.67827e-06
-4.93465e-07
1.69285e-06
-3.24989e-07
-1.90752e-07
1.69968e-06
1.76939e-06
-6.37897e-07
1.78526e-06
3.07611e-07
1.81464e-06
9.43074e-07
1.79964e-06
7.63431e-07
1.72021e-06
-2.64613e-06
1.72184e-06
-1.92736e-06
1.78773e-06
-9.20293e-07
1.87761e-06
2.37851e-07
1.93585e-06
3.51138e-07
1.95638e-06
5.25249e-07
1.91389e-06
-5.23509e-08
1.86925e-06
-3.13066e-07
1.8182e-06
-6.12707e-07
1.78872e-06
-7.89127e-07
1.76654e-06
-7.24591e-07
1.75642e-06
-6.72111e-07
1.75194e-06
-5.89964e-07
1.75154e-06
-4.93061e-07
1.76433e-06
-3.37779e-07
-1.97845e-07
1.77142e-06
1.85323e-06
-6.27374e-07
1.86801e-06
2.9283e-07
1.90644e-06
9.04642e-07
1.89971e-06
7.70162e-07
1.8172e-06
-2.56362e-06
1.81246e-06
-1.92262e-06
1.87291e-06
-9.80739e-07
1.9597e-06
1.51061e-07
2.01044e-06
3.00393e-07
2.02597e-06
5.09719e-07
1.98264e-06
-9.02315e-09
1.94285e-06
-2.73269e-07
1.89767e-06
-5.6753e-07
1.8718e-06
-7.63255e-07
1.85235e-06
-7.05146e-07
1.84024e-06
-6.60001e-07
1.83383e-06
-5.83554e-07
1.82911e-06
-4.88334e-07
1.83849e-06
-3.47161e-07
-2.04087e-07
1.84473e-06
1.94105e-06
-6.15589e-07
1.95512e-06
2.78764e-07
1.99821e-06
8.6155e-07
1.9998e-06
7.68572e-07
1.91789e-06
-2.48171e-06
1.90663e-06
-1.91136e-06
1.95713e-06
-1.03124e-06
2.03593e-06
7.22632e-08
2.07744e-06
2.58875e-07
2.09025e-06
4.96912e-07
2.05073e-06
3.0498e-08
2.01848e-06
-2.41018e-07
1.9805e-06
-5.29557e-07
1.95826e-06
-7.41006e-07
1.9416e-06
-6.88487e-07
1.92841e-06
-6.46813e-07
1.92063e-06
-5.75773e-07
1.91206e-06
-4.79767e-07
1.91699e-06
-3.52089e-07
-2.08442e-07
1.92134e-06
2.03352e-06
-6.02918e-07
2.04624e-06
2.66042e-07
2.09007e-06
8.17715e-07
2.09964e-06
7.59005e-07
2.02113e-06
-2.40319e-06
2.00331e-06
-1.89354e-06
2.0398e-06
-1.06773e-06
2.10708e-06
4.98898e-09
2.13979e-06
2.26166e-07
2.15309e-06
4.83613e-07
2.12137e-06
6.22179e-08
2.09821e-06
-2.17862e-07
2.06775e-06
-4.99096e-07
2.04862e-06
-7.21875e-07
2.03441e-06
-6.74274e-07
2.02087e-06
-6.3328e-07
2.01242e-06
-5.67318e-07
2.00108e-06
-4.68427e-07
2.00143e-06
-3.52441e-07
-2.10461e-07
2.00345e-06
2.13092e-06
-5.89833e-07
2.14177e-06
2.55188e-07
2.18372e-06
7.75765e-07
2.20024e-06
7.42491e-07
2.12637e-06
-2.32933e-06
2.1028e-06
-1.86996e-06
2.12347e-06
-1.08841e-06
2.17779e-06
-4.93297e-08
2.20336e-06
2.00598e-07
2.21984e-06
4.67134e-07
2.198e-06
8.40546e-08
2.18391e-06
-2.0377e-07
2.1603e-06
-4.75487e-07
2.14346e-06
-7.05037e-07
2.13113e-06
-6.61942e-07
2.11762e-06
-6.1977e-07
2.10902e-06
-5.58718e-07
2.09619e-06
-4.55601e-07
2.09263e-06
-3.48878e-07
-2.10433e-07
2.0926e-06
2.23331e-06
-5.76658e-07
2.24226e-06
2.46239e-07
2.28125e-06
7.36773e-07
2.3033e-06
7.20448e-07
2.23381e-06
-2.25985e-06
2.20605e-06
-1.8422e-06
2.21194e-06
-1.0943e-06
2.25416e-06
-9.15413e-08
2.27451e-06
1.80246e-07
2.29533e-06
4.46308e-07
2.28321e-06
9.61808e-08
2.27674e-06
-1.97304e-07
2.25871e-06
-4.5746e-07
2.24326e-06
-6.89587e-07
2.23222e-06
-6.50901e-07
2.21877e-06
-6.06318e-07
2.2102e-06
-5.50145e-07
2.19704e-06
-4.42439e-07
2.19055e-06
-3.42395e-07
-2.09079e-07
2.1892e-06
2.34073e-06
-5.63514e-07
2.34809e-06
2.38876e-07
2.38419e-06
7.00676e-07
2.41042e-06
6.94214e-07
2.34417e-06
-2.19359e-06
2.31392e-06
-1.81195e-06
2.30803e-06
-1.08841e-06
2.34059e-06
-1.24105e-07
2.35736e-06
1.63482e-07
2.38219e-06
4.21477e-07
2.37806e-06
1.00307e-07
2.37707e-06
-1.96316e-07
2.36321e-06
-4.43597e-07
2.34837e-06
-6.74748e-07
2.33812e-06
-6.40653e-07
2.32461e-06
-5.92806e-07
2.31591e-06
-5.41441e-07
2.30319e-06
-4.2972e-07
2.29471e-06
-3.33919e-07
-2.07113e-07
2.29275e-06
2.45327e-06
-5.50387e-07
2.4595e-06
2.3264e-07
2.49323e-06
6.66952e-07
2.52265e-06
6.64792e-07
2.4583e-06
-2.12924e-06
2.42682e-06
-1.78047e-06
2.41259e-06
-1.07418e-06
2.43843e-06
-1.49946e-07
2.45283e-06
1.4908e-07
2.48054e-06
3.93768e-07
2.4823e-06
9.85441e-08
2.48472e-06
-1.98732e-07
2.4738e-06
-4.32672e-07
2.45902e-06
-6.59975e-07
2.44919e-06
-6.30817e-07
2.43551e-06
-5.79133e-07
2.42635e-06
-5.32282e-07
2.41446e-06
-4.17824e-07
2.40469e-06
-3.24148e-07
-2.04937e-07
2.40251e-06
2.5711e-06
-5.37195e-07
2.5767e-06
2.27039e-07
2.60857e-06
6.35085e-07
2.64049e-06
6.32874e-07
2.57696e-06
-2.06571e-06
2.54494e-06
-1.74845e-06
2.52514e-06
-1.05438e-06
2.54673e-06
-1.71536e-07
2.55971e-06
1.36102e-07
2.58912e-06
3.64359e-07
2.59506e-06
9.26001e-08
2.59932e-06
-2.02993e-07
2.59043e-06
-4.23784e-07
2.57541e-06
-6.44954e-07
2.56569e-06
-6.21095e-07
2.55184e-06
-5.65284e-07
2.54192e-06
-5.22361e-07
2.53091e-06
-4.06809e-07
2.52035e-06
-3.13589e-07
-2.02618e-07
2.51803e-06
2.69446e-06
-5.23823e-07
2.69991e-06
2.21582e-07
2.7303e-06
6.04698e-07
2.76421e-06
5.98969e-07
2.70074e-06
-2.00224e-06
2.66846e-06
-1.71617e-06
2.64494e-06
-1.03087e-06
2.66396e-06
-1.90553e-07
2.67628e-06
1.2378e-07
2.70649e-06
3.34151e-07
2.7155e-06
8.35849e-08
2.72062e-06
-2.08112e-07
2.71315e-06
-4.16311e-07
2.69775e-06
-6.29553e-07
2.68788e-06
-6.11227e-07
2.67392e-06
-5.51322e-07
2.66304e-06
-5.11482e-07
2.65279e-06
-3.96564e-07
2.64185e-06
-3.02643e-07
-1.99999e-07
2.63923e-06
2.82358e-06
-5.10135e-07
2.82936e-06
2.158e-07
2.85853e-06
5.7553e-07
2.89401e-06
5.63491e-07
2.83011e-06
-1.93835e-06
2.79761e-06
-1.68367e-06
2.77156e-06
-1.00481e-06
2.78901e-06
-2.08002e-07
2.80132e-06
1.1147e-07
2.83171e-06
3.03762e-07
2.84312e-06
7.21798e-08
2.84852e-06
-2.13515e-07
2.84202e-06
-4.09808e-07
2.82623e-06
-6.13769e-07
2.816e-06
-6.00989e-07
2.802e-06
-5.3733e-07
2.7901e-06
-4.99581e-07
2.78045e-06
-3.86911e-07
2.76944e-06
-2.91632e-07
-1.96893e-07
2.76633e-06
2.95875e-06
-4.9599e-07
2.96526e-06
2.09293e-07
2.99341e-06
5.47383e-07
3.0301e-06
5.26794e-07
2.96548e-06
-1.87372e-06
2.93274e-06
-1.65093e-06
2.90499e-06
-9.77065e-07
2.92143e-06
-2.24443e-07
2.93424e-06
9.86567e-08
2.96438e-06
2.73625e-07
2.97768e-06
5.88801e-08
2.98304e-06
-2.18878e-07
2.97717e-06
-4.03933e-07
2.96107e-06
-5.97673e-07
2.9503e-06
-5.90222e-07
2.93635e-06
-5.23374e-07
2.92348e-06
-4.86712e-07
2.91423e-06
-3.77659e-07
2.90344e-06
-2.80847e-07
-1.93143e-07
2.89969e-06
3.10028e-06
-4.81266e-07
3.10781e-06
2.01768e-07
3.13509e-06
5.20104e-07
3.17271e-06
4.89175e-07
3.10722e-06
-1.80823e-06
3.07417e-06
-1.61788e-06
3.04539e-06
-9.48286e-07
3.06111e-06
-2.40163e-07
3.07478e-06
8.49844e-08
3.10436e-06
2.44051e-07
3.11911e-06
4.41232e-08
3.12429e-06
-2.2405e-07
3.11876e-06
-3.98403e-07
3.10246e-06
-5.81376e-07
3.09109e-06
-5.78853e-07
3.07721e-06
-5.09492e-07
3.06349e-06
-4.72991e-07
3.0545e-06
-3.68668e-07
3.04412e-06
-2.70469e-07
-1.88726e-07
3.0397e-06
3.24852e-06
-4.65877e-07
3.25723e-06
1.93062e-07
3.28375e-06
4.93585e-07
3.32204e-06
4.50882e-07
3.25571e-06
-1.7419e-06
3.22225e-06
-1.58443e-06
3.19302e-06
-9.19051e-07
3.20813e-06
-2.5527e-07
3.22285e-06
7.02589e-08
3.25164e-06
2.15263e-07
3.26746e-06
2.83036e-08
3.2724e-06
-2.28988e-07
3.26699e-06
-3.92995e-07
3.25061e-06
-5.64996e-07
3.23864e-06
-5.66883e-07
3.22487e-06
-4.95718e-07
3.21043e-06
-4.5856e-07
3.20162e-06
-3.59849e-07
3.19177e-06
-2.60622e-07
-1.83644e-07
3.18669e-06
3.40384e-06
-4.49786e-07
3.41377e-06
1.83136e-07
3.43959e-06
4.67759e-07
3.47834e-06
4.12133e-07
3.4113e-06
-1.67487e-06
3.37732e-06
-1.55045e-06
3.34813e-06
-8.89859e-07
3.36262e-06
-2.69761e-07
3.37846e-06
5.44199e-08
3.40631e-06
1.87405e-07
3.42284e-06
1.17745e-08
3.42758e-06
-2.33728e-07
3.42214e-06
-3.87549e-07
3.40577e-06
-5.48634e-07
3.39325e-06
-5.54353e-07
3.37965e-06
-4.82119e-07
3.36463e-06
-4.43547e-07
3.35591e-06
-3.51129e-07
3.34671e-06
-2.51419e-07
-1.77937e-07
3.341e-06
3.56664e-06
-4.33013e-07
3.57773e-06
1.72048e-07
3.6029e-06
4.42588e-07
3.64189e-06
3.73135e-07
3.57437e-06
-1.60734e-06
3.5397e-06
-1.51577e-06
3.51098e-06
-8.61139e-07
3.52478e-06
-2.8357e-07
3.54171e-06
3.74937e-08
3.56857e-06
1.60549e-07
3.58549e-06
-5.15184e-09
3.59011e-06
-2.38341e-07
3.58452e-06
-3.81967e-07
3.56823e-06
-5.32342e-07
3.55522e-06
-5.41339e-07
3.54185e-06
-4.68755e-07
3.52644e-06
-4.28131e-07
3.51768e-06
-3.42367e-07
3.50926e-06
-2.42999e-07
-1.71701e-07
3.50302e-06
3.73732e-06
-4.15631e-07
3.74945e-06
1.5992e-07
3.774e-06
4.18045e-07
3.81304e-06
3.34094e-07
3.74529e-06
-1.53959e-06
3.70974e-06
-1.48023e-06
3.68184e-06
-8.33236e-07
3.69489e-06
-2.96616e-07
3.71282e-06
1.9554e-08
3.73867e-06
1.347e-07
3.75573e-06
-2.22035e-08
3.76028e-06
-2.42891e-07
3.75454e-06
-3.76232e-07
3.7383e-06
-5.16103e-07
3.72488e-06
-5.27922e-07
3.71182e-06
-4.55689e-07
3.69618e-06
-4.12487e-07
3.68721e-06
-3.33407e-07
3.67972e-06
-2.355e-07
-1.65102e-07
3.67312e-06
3.91631e-06
-3.97749e-07
3.92932e-06
1.46904e-07
3.95328e-06
3.94084e-07
3.99215e-06
2.9523e-07
3.92446e-06
-1.47191e-06
3.88787e-06
-1.44363e-06
3.86102e-06
-8.06394e-07
3.87322e-06
-3.08817e-07
3.89209e-06
6.85245e-10
3.91698e-06
1.09815e-07
3.93393e-06
-3.91552e-08
3.93844e-06
-2.47406e-07
3.9326e-06
-3.70392e-07
3.91634e-06
-4.99835e-07
3.9026e-06
-5.14189e-07
3.88987e-06
-4.42956e-07
3.87419e-06
-3.9681e-07
3.86487e-06
-3.24087e-07
3.85831e-06
-2.28934e-07
-1.58477e-07
3.85168e-06
4.10399e-06
-3.79491e-07
4.11774e-06
1.3315e-07
4.14119e-06
3.70636e-07
4.17964e-06
2.56779e-07
4.11232e-06
-1.40458e-06
4.07451e-06
-1.40582e-06
4.04887e-06
-7.80752e-07
4.06015e-06
-3.20101e-07
4.07985e-06
-1.9012e-08
4.10385e-06
8.58112e-08
4.12052e-06
-5.58218e-08
4.12499e-06
-2.51879e-07
4.11911e-06
-3.64515e-07
4.10275e-06
-4.83474e-07
4.08873e-06
-5.00164e-07
4.07635e-06
-4.30575e-07
4.06083e-06
-3.81291e-07
4.05102e-06
-3.14277e-07
4.04528e-06
-2.23194e-07
-1.52228e-07
4.03903e-06
4.30078e-06
-3.60968e-07
4.31513e-06
1.18802e-07
4.33817e-06
3.47592e-07
4.37595e-06
2.18998e-07
4.30928e-06
-1.33791e-06
4.27015e-06
-1.36669e-06
4.24576e-06
-7.56362e-07
4.25605e-06
-3.3039e-07
4.27647e-06
-3.94309e-08
4.29969e-06
6.25852e-08
4.31592e-06
-7.20476e-08
4.32033e-06
-2.56293e-07
4.31446e-06
-3.58641e-07
4.298e-06
-4.67017e-07
4.2836e-06
-4.85766e-07
4.27157e-06
-4.18536e-07
4.25639e-06
-3.66115e-07
4.24608e-06
-3.03968e-07
4.24088e-06
-2.17999e-07
-1.46762e-07
4.23542e-06
4.50708e-06
-3.42272e-07
4.52189e-06
1.03995e-07
4.54466e-06
3.24814e-07
4.58151e-06
1.82156e-07
4.51577e-06
-1.27218e-06
4.47529e-06
-1.3262e-06
4.45214e-06
-7.33216e-07
4.46135e-06
-3.39605e-07
4.48236e-06
-6.04351e-08
4.50493e-06
4.00147e-08
4.52057e-06
-8.76898e-08
4.52489e-06
-2.60617e-07
4.51905e-06
-3.52799e-07
4.50252e-06
-4.50488e-07
4.48766e-06
-4.70906e-07
4.47587e-06
-4.06743e-07
4.46118e-06
-3.51427e-07
4.45051e-06
-2.93299e-07
4.44553e-06
-2.13014e-07
-1.42314e-07
4.44108e-06
4.72332e-06
-3.23473e-07
4.73844e-06
8.88715e-08
4.76111e-06
3.02146e-07
4.79674e-06
1.46526e-07
4.73223e-06
-1.20767e-06
4.69042e-06
-1.28439e-06
4.66849e-06
-7.11285e-07
4.67656e-06
-3.47674e-07
4.69797e-06
-8.18538e-08
4.72001e-06
1.79785e-08
4.73494e-06
-1.02619e-07
4.73912e-06
-2.648e-07
4.73334e-06
-3.47021e-07
4.7168e-06
-4.33946e-07
4.70141e-06
-4.55516e-07
4.68973e-06
-3.95057e-07
4.67562e-06
-3.37323e-07
4.66481e-06
-2.82486e-07
4.65978e-06
-2.07985e-07
-1.38812e-07
4.65628e-06
4.94995e-06
-3.04624e-07
4.96523e-06
7.35856e-08
4.98792e-06
2.79459e-07
5.0221e-06
1.12353e-07
4.95908e-06
-1.14465e-06
4.91605e-06
-1.24136e-06
4.8953e-06
-6.90538e-07
4.90218e-06
-3.54556e-07
4.92379e-06
-1.03463e-07
4.94542e-06
-3.64521e-09
4.95951e-06
-1.16717e-07
4.9635e-06
-2.68782e-07
4.95781e-06
-3.41337e-07
4.94135e-06
-4.17482e-07
4.92546e-06
-4.39627e-07
4.91381e-06
-3.8341e-07
4.90031e-06
-3.2382e-07
4.88947e-06
-2.71645e-07
4.88427e-06
-2.0279e-07
-1.35991e-07
4.88145e-06
5.18747e-06
-2.85777e-07
5.20276e-06
5.82994e-08
5.22552e-06
2.56694e-07
5.25806e-06
7.98179e-08
5.19679e-06
-1.08338e-06
5.1527e-06
-1.19727e-06
5.13311e-06
-6.70949e-07
5.13879e-06
-3.6024e-07
5.16036e-06
-1.25031e-07
5.18162e-06
-2.49063e-08
5.19483e-06
-1.29921e-07
5.19853e-06
-2.72486e-07
5.19296e-06
-3.35772e-07
5.17672e-06
-4.01233e-07
5.16038e-06
-4.23293e-07
5.14872e-06
-3.71743e-07
5.13583e-06
-3.1093e-07
5.12502e-06
-2.60837e-07
5.11955e-06
-1.9732e-07
-1.33674e-07
5.11723e-06
5.4364e-06
-2.6699e-07
5.45153e-06
4.31684e-08
5.47434e-06
2.33887e-07
5.50514e-06
4.90228e-08
5.44587e-06
-1.02412e-06
5.4009e-06
-1.1523e-06
5.38244e-06
-6.52487e-07
5.38697e-06
-3.64765e-07
5.4082e-06
-1.46269e-07
5.42913e-06
-4.58308e-08
5.44143e-06
-1.4222e-07
5.44475e-06
-2.75802e-07
5.43938e-06
-3.30403e-07
5.42344e-06
-3.85301e-07
5.40677e-06
-4.06618e-07
5.39503e-06
-3.60008e-07
5.38274e-06
-2.98632e-07
5.37198e-06
-2.5008e-07
5.36627e-06
-1.91613e-07
-1.31588e-07
5.36418e-06
5.6973e-06
-2.48334e-07
5.71214e-06
2.83343e-08
5.73485e-06
2.11177e-07
5.7639e-06
1.99652e-08
5.70684e-06
-9.67053e-07
5.66123e-06
-1.10669e-06
5.64384e-06
-6.35102e-07
5.64728e-06
-3.68207e-07
5.66789e-06
-1.66878e-07
5.68847e-06
-6.64044e-08
5.69987e-06
-1.53626e-07
5.70273e-06
-2.78661e-07
5.6976e-06
-3.25272e-07
5.68207e-06
-3.6977e-07
5.66517e-06
-3.8972e-07
5.65334e-06
-3.48181e-07
5.64159e-06
-2.86879e-07
5.63095e-06
-2.39438e-07
5.62502e-06
-1.85686e-07
-1.29481e-07
5.62292e-06
5.97075e-06
-2.29892e-07
5.98516e-06
1.39214e-08
6.00758e-06
1.88762e-07
6.03498e-06
-7.43606e-09
5.98022e-06
-9.12298e-07
5.93419e-06
-1.06066e-06
5.91784e-06
-6.18751e-07
5.92034e-06
-3.70705e-07
5.94003e-06
-1.86563e-07
5.96018e-06
-8.65623e-08
5.97073e-06
-1.64176e-07
5.97308e-06
-2.81008e-07
5.96822e-06
-3.2041e-07
5.95318e-06
-3.54728e-07
5.93615e-06
-3.72695e-07
5.92421e-06
-3.36244e-07
5.913e-06
-2.75666e-07
5.90252e-06
-2.28955e-07
5.89637e-06
-1.79535e-07
-1.27231e-07
5.89412e-06
6.25736e-06
-2.1176e-07
6.27125e-06
2.21939e-11
6.29317e-06
1.6685e-07
6.31905e-06
-3.33183e-08
6.26666e-06
-8.59907e-07
6.22033e-06
-1.01433e-06
6.20499e-06
-6.03415e-07
6.20672e-06
-3.72437e-07
6.22524e-06
-2.05077e-07
6.24486e-06
-1.06182e-07
6.25458e-06
-1.73903e-07
6.25641e-06
-2.82833e-07
6.25181e-06
-3.15809e-07
6.2374e-06
-3.40319e-07
6.22034e-06
-3.55633e-07
6.20821e-06
-3.24121e-07
6.19759e-06
-2.65048e-07
6.18729e-06
-2.18647e-07
6.18094e-06
-1.73191e-07
-1.24733e-07
6.17844e-06
6.55775e-06
-1.94041e-07
6.57105e-06
-1.32808e-08
6.59241e-06
1.4549e-07
6.61674e-06
-5.76444e-08
6.56682e-06
-8.09988e-07
6.52025e-06
-9.67756e-07
6.50584e-06
-5.89005e-07
6.50704e-06
-3.73635e-07
6.52417e-06
-2.22211e-07
6.54314e-06
-1.25148e-07
6.55204e-06
-1.82806e-07
6.55334e-06
-2.84132e-07
6.54899e-06
-3.11464e-07
6.53532e-06
-3.26644e-07
6.51829e-06
-3.38609e-07
6.50601e-06
-3.11832e-07
6.49597e-06
-2.55011e-07
6.48594e-06
-2.08615e-07
6.47938e-06
-1.66636e-07
-1.21982e-07
6.47663e-06
6.87261e-06
-1.76857e-07
6.8852e-06
-2.58757e-08
6.90612e-06
1.24576e-07
6.92864e-06
-8.01668e-08
6.88137e-06
-7.62723e-07
6.8347e-06
-9.21078e-07
6.82095e-06
-5.7526e-07
6.82187e-06
-3.74559e-07
6.83752e-06
-2.37861e-07
6.85568e-06
-1.43309e-07
6.86376e-06
-1.90884e-07
6.8645e-06
-2.84866e-07
6.86043e-06
-3.074e-07
6.84755e-06
-3.13764e-07
6.83066e-06
-3.21715e-07
6.8182e-06
-2.99371e-07
6.80878e-06
-2.45595e-07
6.79914e-06
-1.98973e-07
6.79235e-06
-1.59853e-07
-1.18962e-07
6.78934e-06
7.20263e-06
-1.60346e-07
7.21436e-06
-3.76086e-08
7.23504e-06
1.03898e-07
7.25533e-06
-1.00466e-07
7.21095e-06
-7.1834e-07
7.16446e-06
-8.74583e-07
7.151e-06
-5.61806e-07
7.15182e-06
-3.75379e-07
7.16601e-06
-2.52048e-07
7.18322e-06
-1.60513e-07
7.19043e-06
-1.981e-07
7.19053e-06
-2.84961e-07
7.18677e-06
-3.03647e-07
7.17471e-06
-3.01702e-07
7.15809e-06
-3.05092e-07
7.14546e-06
-2.86743e-07
7.13664e-06
-2.36774e-07
7.12757e-06
-1.89904e-07
7.12053e-06
-1.52807e-07
-1.15724e-07
7.11729e-06
7.54854e-06
-1.4466e-07
7.5592e-06
-4.82736e-08
7.57992e-06
8.31862e-08
7.59751e-06
-1.18062e-07
7.55618e-06
-6.77009e-07
7.51031e-06
-8.28712e-07
7.49676e-06
-5.48257e-07
7.49753e-06
-3.76149e-07
7.51032e-06
-2.64838e-07
7.52646e-06
-1.76657e-07
7.53279e-06
-2.04425e-07
7.53213e-06
-2.843e-07
7.52861e-06
-3.00134e-07
7.51743e-06
-2.90523e-07
7.50129e-06
-2.88948e-07
7.4885e-06
-2.73951e-07
7.48017e-06
-2.28443e-07
7.47186e-06
-1.81598e-07
7.46465e-06
-1.45592e-07
-1.12206e-07
7.46113e-06
7.91111e-06
-1.29956e-07
7.92048e-06
-5.76436e-08
7.94148e-06
6.21838e-08
7.95597e-06
-1.32547e-07
7.91768e-06
-6.38724e-07
7.87302e-06
-7.84052e-07
7.85909e-06
-5.3433e-07
7.85965e-06
-3.76707e-07
7.87114e-06
-2.7633e-07
7.88617e-06
-1.91678e-07
7.89157e-06
-2.09831e-07
7.89003e-06
-2.82754e-07
7.88655e-06
-2.96659e-07
7.87635e-06
-2.80319e-07
7.8609e-06
-2.73499e-07
7.84799e-06
-2.61041e-07
7.84e-06
-2.20454e-07
7.83267e-06
-1.74274e-07
7.82541e-06
-1.38332e-07
-1.08366e-07
7.82158e-06
8.29112e-06
-1.164e-07
8.29887e-06
-6.53881e-08
8.32038e-06
4.06738e-08
8.33166e-06
-1.43828e-07
8.29611e-06
-6.03176e-07
8.25342e-06
-7.41361e-07
8.2389e-06
-5.19812e-07
8.2389e-06
-3.76702e-07
8.24917e-06
-2.86606e-07
8.26302e-06
-2.05527e-07
8.26749e-06
-2.14301e-07
8.26495e-06
-2.80213e-07
8.26116e-06
-2.92871e-07
8.25205e-06
-2.71203e-07
8.23756e-06
-2.59012e-07
8.22465e-06
-2.48129e-07
8.2168e-06
-2.12608e-07
8.21055e-06
-1.68018e-07
8.20358e-06
-1.31361e-07
-1.04149e-07
8.19936e-06
8.68941e-06
-1.04148e-07
8.69512e-06
-7.11007e-08
8.71727e-06
1.85268e-08
8.72565e-06
-1.52203e-07
8.69211e-06
-5.69641e-07
8.65195e-06
-7.01202e-07
8.63694e-06
-5.04801e-07
8.63602e-06
-3.75777e-07
8.64501e-06
-2.95601e-07
8.6576e-06
-2.18119e-07
8.6612e-06
-2.17901e-07
8.65748e-06
-2.76495e-07
8.65315e-06
-2.88533e-07
8.64516e-06
-2.63218e-07
8.63194e-06
-2.45792e-07
8.61926e-06
-2.35444e-07
8.61132e-06
-2.04677e-07
8.6061e-06
-1.62792e-07
8.59987e-06
-1.2513e-07
-9.9545e-08
8.59526e-06
9.10677e-06
-9.3303e-08
9.11032e-06
-7.4647e-08
9.13282e-06
-3.9768e-09
9.13916e-06
-1.58536e-07
9.10654e-06
-5.37027e-07
9.06917e-06
-6.6383e-07
9.05411e-06
-4.89739e-07
9.05181e-06
-3.7348e-07
9.05916e-06
-3.02952e-07
9.07033e-06
-2.29287e-07
9.07326e-06
-2.20833e-07
9.06832e-06
-2.71555e-07
9.06337e-06
-2.83582e-07
9.05651e-06
-2.5636e-07
9.04481e-06
-2.34083e-07
9.03265e-06
-2.23287e-07
9.02452e-06
-1.96548e-07
9.01997e-06
-1.58247e-07
9.01499e-06
-1.20149e-07
-9.47411e-08
9.01019e-06
9.54408e-06
-8.39266e-08
9.54554e-06
-7.6106e-08
9.56785e-06
-2.6288e-08
9.57341e-06
-1.64093e-07
9.54062e-06
-5.04241e-07
9.50574e-06
-6.28948e-07
9.49112e-06
-4.75113e-07
9.48709e-06
-3.69453e-07
9.4922e-06
-3.0806e-07
9.50195e-06
-2.39044e-07
9.5045e-06
-2.23383e-07
9.4988e-06
-2.65856e-07
9.49317e-06
-2.77946e-07
9.48721e-06
-2.50403e-07
9.47707e-06
-2.23943e-07
9.46572e-06
-2.11938e-07
9.45748e-06
-1.88303e-07
9.45321e-06
-1.53979e-07
9.44953e-06
-1.16466e-07
-9.02356e-08
9.44502e-06
1.00022e-05
-7.60236e-08
1.00019e-05
-7.57624e-08
1.00233e-05
-4.7663e-08
1.00292e-05
-1.69985e-07
9.99567e-06
-4.7075e-07
9.9624e-06
-5.95679e-07
9.9486e-06
-4.61315e-07
9.94296e-06
-3.63818e-07
9.94541e-06
-3.10505e-07
9.95377e-06
-2.47404e-07
9.95636e-06
-2.25969e-07
9.9505e-06
-2.59997e-07
9.94403e-06
-2.71476e-07
9.93854e-06
-2.44918e-07
9.92984e-06
-2.15237e-07
9.91946e-06
-2.01561e-07
9.91131e-06
-1.80152e-07
9.90698e-06
-1.49649e-07
9.90436e-06
-1.13852e-07
-8.65536e-08
9.90068e-06
1.04821e-05
-6.95339e-08
1.04804e-05
-7.40327e-08
1.05001e-05
-6.73455e-08
1.0507e-05
-1.76906e-07
1.0473e-05
-4.36687e-07
1.04403e-05
-5.62998e-07
1.04276e-05
-4.48591e-07
1.04209e-05
-3.57206e-07
1.04206e-05
-3.10153e-07
1.04274e-05
-2.54172e-07
1.04302e-05
-2.28792e-07
1.04244e-05
-2.54222e-07
1.04173e-05
-2.6432e-07
1.04118e-05
-2.39514e-07
1.04043e-05
-2.07704e-07
1.03949e-05
-1.92159e-07
1.03871e-05
-1.72308e-07
1.03825e-05
-1.45071e-07
1.03805e-05
-1.11874e-07
-8.40498e-08
1.0378e-05
1.09848e-05
-6.43212e-08
1.09822e-05
-7.14195e-08
1.09996e-05
-8.47374e-08
1.10077e-05
-1.8504e-07
1.09741e-05
-4.03039e-07
1.09411e-05
-5.29979e-07
1.09292e-05
-4.36776e-07
1.09225e-05
-3.50437e-07
1.09195e-05
-3.07174e-07
1.09242e-05
-2.58918e-07
1.0927e-05
-2.31572e-07
1.09216e-05
-2.48823e-07
1.0914e-05
-2.56661e-07
1.09084e-05
-2.33995e-07
1.09018e-05
-2.01017e-07
1.08932e-05
-1.83612e-07
1.08858e-05
-1.64875e-07
1.08811e-05
-1.40353e-07
1.08792e-05
-1.09987e-07
-8.27213e-08
1.08778e-05
1.15112e-05
-6.01767e-08
1.15082e-05
-6.84451e-08
1.15229e-05
-9.93472e-08
1.1532e-05
-1.94234e-07
1.15002e-05
-3.71237e-07
1.14661e-05
-4.95882e-07
1.14546e-05
-4.2525e-07
1.14486e-05
-3.44407e-07
1.14435e-05
-3.02126e-07
1.14457e-05
-2.61112e-07
1.14479e-05
-2.33753e-07
1.14431e-05
-2.43983e-07
1.14352e-05
-2.48808e-07
1.14295e-05
-2.28222e-07
1.14234e-05
-1.94924e-07
1.14155e-05
-1.75768e-07
1.14085e-05
-1.57856e-07
1.14038e-05
-1.35672e-07
1.14017e-05
-1.07887e-07
-8.21767e-08
1.14012e-05
1.20625e-05
-5.68279e-08
1.20596e-05
-6.56225e-08
1.2071e-05
-1.10674e-07
1.2081e-05
-2.04217e-07
1.20523e-05
-3.42607e-07
1.2017e-05
-4.60551e-07
1.20048e-05
-4.13057e-07
1.20001e-05
-3.39705e-07
1.19939e-05
-2.95949e-07
1.19932e-05
-2.60413e-07
1.19941e-05
-2.3466e-07
1.19897e-05
-2.39566e-07
1.1982e-05
-2.41127e-07
1.1976e-05
-2.22186e-07
1.19704e-05
-1.89339e-07
1.19632e-05
-1.68513e-07
1.19565e-05
-1.51152e-07
1.19519e-05
-1.3112e-07
1.19496e-05
-1.05538e-07
-8.18811e-08
1.19493e-05
1.26397e-05
-5.3951e-08
1.26376e-05
-6.35162e-08
1.26454e-05
-1.18445e-07
1.26556e-05
-2.14422e-07
1.26312e-05
-3.18215e-07
1.25952e-05
-4.24569e-07
1.25808e-05
-3.98671e-07
1.25775e-05
-3.3643e-07
1.25715e-05
-2.89884e-07
1.2568e-05
-2.56978e-07
1.25671e-05
-2.33715e-07
1.25627e-05
-2.35194e-07
1.25554e-05
-2.33801e-07
1.25492e-05
-2.15998e-07
1.2544e-05
-1.84131e-07
1.25374e-05
-1.61922e-07
1.25309e-05
-1.44615e-07
1.25265e-05
-1.26698e-07
1.2524e-05
-1.03093e-07
-8.14242e-08
1.25236e-05
1.32442e-05
-5.11925e-08
1.32434e-05
-6.27054e-08
1.32475e-05
-1.22565e-07
1.32574e-05
-2.24295e-07
1.32376e-05
-2.98486e-07
1.32018e-05
-3.88772e-07
1.31841e-05
-3.80975e-07
1.31815e-05
-3.33782e-07
1.31768e-05
-2.85159e-07
1.31714e-05
-2.51656e-07
1.31683e-05
-2.30584e-07
1.31635e-05
-2.30372e-07
1.31565e-05
-2.26801e-07
1.31503e-05
-2.09805e-07
1.31454e-05
-1.79204e-07
1.31395e-05
-1.56046e-07
1.31333e-05
-1.38377e-07
1.31287e-05
-1.22193e-07
1.31264e-05
-1.00728e-07
-8.05589e-08
1.31255e-05
1.38772e-05
-4.82293e-08
1.38783e-05
-6.38334e-08
1.38789e-05
-1.23121e-07
1.38877e-05
-2.33125e-07
1.38723e-05
-2.83083e-07
1.38378e-05
-3.54219e-07
1.38168e-05
-3.60033e-07
1.3813e-05
-3.29962e-07
1.38102e-05
-2.82389e-07
1.38046e-05
-2.45984e-07
1.37992e-05
-2.25212e-07
1.37935e-05
-2.24684e-07
1.37866e-05
-2.19876e-07
1.37805e-05
-2.03701e-07
1.37758e-05
-1.74513e-07
1.37706e-05
-1.5085e-07
1.37648e-05
-1.32598e-07
1.37602e-05
-1.17563e-07
1.37578e-05
-9.8388e-08
-7.94475e-08
1.37567e-05
1.45403e-05
-4.48229e-08
1.45432e-05
-6.68093e-08
1.4541e-05
-1.20839e-07
1.45476e-05
-2.39788e-07
1.4536e-05
-2.71455e-07
1.45039e-05
-3.22174e-07
1.44806e-05
-3.36652e-07
1.44738e-05
-3.23235e-07
1.44727e-05
-2.81247e-07
1.44681e-05
-2.41366e-07
1.44612e-05
-2.18346e-07
1.44543e-05
-2.17776e-07
1.44471e-05
-2.12687e-07
1.44411e-05
-1.97669e-07
1.44366e-05
-1.69999e-07
1.4432e-05
-1.4625e-07
1.44268e-05
-1.27459e-07
1.44222e-05
-1.12918e-07
1.44197e-05
-9.58966e-08
-7.8285e-08
1.44185e-05
1.52349e-05
-4.08347e-08
1.52397e-05
-7.16174e-08
1.52352e-05
-1.16383e-07
1.52379e-05
-2.42491e-07
1.52295e-05
-2.63007e-07
1.52012e-05
-2.93922e-07
1.51765e-05
-3.11928e-07
1.51664e-05
-3.13157e-07
1.51654e-05
-2.80184e-07
1.51626e-05
-2.38586e-07
1.51557e-05
-2.11439e-07
1.51474e-05
-2.09483e-07
1.51397e-05
-2.05016e-07
1.51335e-05
-1.91454e-07
1.51292e-05
-1.65688e-07
1.51251e-05
-1.42119e-07
1.51206e-05
-1.22969e-07
1.51162e-05
-1.08487e-07
1.51135e-05
-9.32117e-08
-7.70645e-08
1.51122e-05
1.59627e-05
-3.62163e-08
1.59691e-05
-7.80364e-08
1.59624e-05
-1.09664e-07
1.59597e-05
-2.39797e-07
1.59541e-05
-2.57398e-07
1.59307e-05
-2.70535e-07
1.59061e-05
-2.87304e-07
1.58932e-05
-3.00242e-07
1.58903e-05
-2.77269e-07
1.58893e-05
-2.37617e-07
1.58836e-05
-2.05699e-07
1.58745e-05
-2.00378e-07
1.58661e-05
-1.96628e-07
1.58594e-05
-1.84743e-07
1.58551e-05
-1.61462e-07
1.58514e-05
-1.38376e-07
1.58475e-05
-1.19103e-07
1.58435e-05
-1.04441e-07
1.58406e-05
-9.03846e-08
-7.57695e-08
1.58394e-05
1.67253e-05
-3.09575e-08
1.67287e-05
-8.13924e-08
1.67221e-05
-1.03058e-07
1.67151e-05
-2.32838e-07
1.67117e-05
-2.53967e-07
1.66941e-05
-2.52886e-07
1.66709e-05
-2.64167e-07
1.66557e-05
-2.85071e-07
1.66499e-05
-2.71467e-07
1.66496e-05
-2.37297e-07
1.66456e-05
-2.01699e-07
1.66368e-05
-1.91597e-07
1.66277e-05
-1.8747e-07
1.66204e-05
-1.77468e-07
1.66159e-05
-1.56972e-07
1.66125e-05
-1.34978e-07
1.66092e-05
-1.15738e-07
1.66056e-05
-1.00895e-07
1.66028e-05
-8.75319e-08
-7.4333e-08
1.66013e-05
1.75248e-05
-2.5439e-08
1.75289e-05
-8.54686e-08
1.75215e-05
-9.56423e-08
1.75091e-05
-2.20449e-07
1.75045e-05
-2.49383e-07
1.7493e-05
-2.41321e-07
1.74725e-05
-2.43708e-07
1.74557e-05
-2.68308e-07
1.7447e-05
-2.6277e-07
1.74455e-05
-2.35776e-07
1.74433e-05
-1.99442e-07
1.74356e-05
-1.83979e-07
1.74262e-05
-1.78003e-07
1.74184e-05
-1.69655e-07
1.74133e-05
-1.5188e-07
1.741e-05
-1.31739e-07
1.74071e-05
-1.12778e-07
1.7404e-05
-9.78535e-08
1.74013e-05
-8.4843e-08
-7.27294e-08
1.73997e-05
1.83628e-05
-1.99395e-08
1.83649e-05
-8.75234e-08