/*--------------------------------*- C++ -*----------------------------------*\
| =========                 |                                                 |
| \\      /  F ield         | OpenFOAM: The Open Source CFD Toolbox           |
|  \\    /   O peration     | Version:  v1812                                 |
|   \\  /    A nd           | Web:      www.OpenFOAM.com                      |
|    \\/     M anipulation  |                                                 |
\*---------------------------------------------------------------------------*/
FoamFile
{
    version     2.0;
    format      ascii;
    class       volScalarField;
    location    "9";
    object      p;
}
// * * * * * * * * * * * * * * * * * * * * * * * * * * * * * * * * * * * * * //

dimensions      [0 2 -2 0 0 0 0];


internalField   nonuniform List<scalar> 
9600
(
8.78494e-11
0.00086586
0.000823055
0.00173361
0.00247777
0.00136008
-0.000261146
0.001229
0.00326116
0.00684368
0.00816258
0.00902454
0.0115363
0.0140364
0.0163905
0.017811
0.0203501
0.0220439
0.028023
0.0331687
-2.45042e-06
0.0008862
0.00081722
0.00173434
0.00246943
0.0013651
-0.000247494
0.00123972
0.00324384
0.00683797
0.00815804
0.00903066
0.0115373
0.0140418
0.0163867
0.017792
0.0203549
0.0219837
0.0280904
0.0327208
-2.29028e-06
0.000906804
0.000806319
0.00174417
0.00245862
0.00137133
-0.000223186
0.00125406
0.00322787
0.00682887
0.00815278
0.00904788
0.0115365
0.014055
0.016379
0.0177756
0.0203441
0.0219262
0.0280938
0.0320772
1.63101e-06
0.000921957
0.000795781
0.00176614
0.00243722
0.00137979
-0.000182277
0.00127457
0.00322241
0.0068231
0.00814897
0.00907082
0.0115405
0.0140712
0.0163725
0.0177539
0.0203259
0.0218743
0.0280039
0.0315154
8.83715e-06
0.000932974
0.000788424
0.00179351
0.00240591
0.00138998
-0.000126163
0.00130505
0.00322744
0.00682104
0.00814625
0.00909665
0.011552
0.0140889
0.0163677
0.017726
0.0203055
0.0218112
0.027872
0.0309943
1.85093e-05
0.000941479
0.000785329
0.00182362
0.00236716
0.00140206
-5.63824e-05
0.00134683
0.00324252
0.00682243
0.00814494
0.00912507
0.0115705
0.0141064
0.0163628
0.0176925
0.0202765
0.0217443
0.027699
0.0305004
2.96865e-05
0.000948966
0.000786873
0.00185815
0.00232576
0.00141593
2.34659e-05
0.00139714
0.00326348
0.00682715
0.00814539
0.00915468
0.0115945
0.0141212
0.0163561
0.0176529
0.0202374
0.0216743
0.0274822
0.0300242
4.16776e-05
0.000956878
0.000792375
0.00189963
0.00228608
0.00143197
0.000109768
0.00145131
0.00328699
0.00683305
0.0081468
0.0091835
0.0116215
0.0141309
0.0163456
0.0176075
0.0201859
0.0216009
0.0272212
0.0295598
5.41565e-05
0.000966119
0.000800395
0.00194947
0.00225194
0.00145065
0.000199343
0.00150498
0.00330907
0.00683631
0.00814827
0.00920941
0.0116482
0.0141331
0.016329
0.0175564
0.0201196
0.0215236
0.0269177
0.0291007
6.70254e-05
0.000976988
0.000809511
0.00200757
0.00222568
0.00147242
0.000290633
0.00155565
0.00332757
0.00683399
0.00814906
0.00923013
0.0116711
0.0141255
0.0163041
0.0174999
0.0200365
0.0214413
0.0265748
0.02864
8.02857e-05
0.000989434
0.000818912
0.00207238
0.00220763
0.00149721
0.000383415
0.0016028
0.00334333
0.00682558
0.00814847
0.00924354
0.011687
0.0141066
0.0162687
0.0174388
0.0199353
0.0213517
0.0261969
0.0281709
9.39689e-05
0.00100328
0.000828598
0.00214144
0.00219617
0.00152415
0.000478207
0.00164746
0.00336
0.00681287
0.0081464
0.00924837
0.0116935
0.0140758
0.0162213
0.0173736
0.0198147
0.0212519
0.0257897
0.0276875
0.00010813
0.00101837
0.000839137
0.00221203
0.00218862
0.00155191
0.000575493
0.0016913
0.00338209
0.00679933
0.00814362
0.00924467
0.0116896
0.0140334
0.0161609
0.0173044
0.0196749
0.0211384
0.0253591
0.0271858
0.000122812
0.0010346
0.000851268
0.00228193
0.00218252
0.00157921
0.000675095
0.00173568
0.00341317
0.00678851
0.00814145
0.00923353
0.0116757
0.0139811
0.0160873
0.0172307
0.0195165
0.0210078
0.0249105
0.0266637
0.000138028
0.00105188
0.000865553
0.00234974
0.0021766
0.00160522
0.000776396
0.00178107
0.00345459
0.00678231
0.00814093
0.00921635
0.0116527
0.0139209
0.0160008
0.0171521
0.0193405
0.0208566
0.0244487
0.0261211
0.000153809
0.00107022
0.000882199
0.00241482
0.00217086
0.00162965
0.000878929
0.00182738
0.00350538
0.00678068
0.00814233
0.00919455
0.0116219
0.0138552
0.0159022
0.0170672
0.0191484
0.0206813
0.0239778
0.0255599
0.000170221
0.00108963
0.000901129
0.00247695
0.00216611
0.00165251
0.00098249
0.00187441
0.0035634
0.00678241
0.00814518
0.00916927
0.0115842
0.0137857
0.0157922
0.0169744
0.0189421
0.0204801
0.023501
0.0249827
0.000187353
0.00111009
0.00092218
0.00253605
0.00216337
0.00167385
0.00108687
0.00192212
0.00362644
0.00678629
0.00814855
0.00914116
0.0115401
0.0137135
0.0156715
0.0168717
0.0187229
0.0202517
0.0230201
0.0243936
0.000205299
0.00113153
0.000945231
0.00259205
0.00216363
0.00169369
0.00119175
0.0019705
0.00369272
0.00679167
0.00815152
0.00911058
0.0114898
0.013639
0.0155409
0.0167571
0.0184919
0.0199958
0.0225357
0.0237971
0.000224171
0.00115384
0.000970227
0.00264481
0.00216766
0.00171212
0.00129674
0.00201959
0.00376085
0.00679839
0.00815335
0.00907787
0.0114333
0.0135619
0.0154011
0.0166289
0.0182498
0.0197128
0.0220466
0.0231974
0.000244112
0.00117688
0.00099716
0.00269417
0.00217608
0.00172926
0.00140139
0.0020696
0.00382972
0.00680644
0.00815339
0.00904305
0.0113704
0.0134818
0.0152524
0.0164853
0.0179977
0.0194039
0.0215512
0.0225979
0.00026527
0.0012005
0.00102609
0.00273991
0.00218935
0.00174529
0.00150513
0.00212079
0.00389834
0.00681597
0.00815112
0.0090059
0.0113014
0.0133983
0.0150951
0.0163248
0.0177357
0.0190713
0.0210483
0.022001
0.000287806
0.00122453
0.00105713
0.00278182
0.00220771
0.00176053
0.00160736
0.00217339
0.00396583
0.00682734
0.00814621
0.00896627
0.0112262
0.0133103
0.0149294
0.0161455
0.0174631
0.0187177
0.0205375
0.0214088
0.000311918
0.00124875
0.00109039
0.0028197
0.00223122
0.00177536
0.00170754
0.00222763
0.00403141
0.00684025
0.00813854
0.00892382
0.0111446
0.013217
0.0147555
0.0159469
0.0171794
0.0183448
0.0200177
0.0208229
0.000337825
0.00127295
0.00112602
0.0028534
0.00225977
0.00179019
0.00180516
0.00228381
0.00409427
0.00685468
0.00812828
0.00887786
0.0110565
0.013118
0.0145731
0.0157284
0.0168845
0.0179548
0.0194868
0.0202431
0.000365729
0.00129694
0.00116406
0.00288274
0.0022931
0.00180555
0.00189959
0.00234236
0.00415379
0.00687038
0.0081156
0.0088275
0.0109618
0.013013
0.0143827
0.0154886
0.016578
0.017552
0.0189428
0.0196664
0.000395837
0.00132051
0.00120454
0.0029077
0.00233082
0.00182205
0.00199026
0.00240344
0.00420959
0.00688681
0.008101
0.00877211
0.0108598
0.0129016
0.0141851
0.0152272
0.0162576
0.0171408
0.0183871
0.0190867
0.000428386
0.00134342
0.00124748
0.0029284
0.00237249
0.00184032
0.0020768
0.002467
0.00426126
0.00690329
0.00808516
0.00871137
0.0107493
0.0127829
0.0139815
0.014945
0.0159202
0.0167239
0.0178244
0.0184974
0.000463617
0.00136551
0.00129278
0.002945
0.00241762
0.00186092
0.00215892
0.00253309
0.00430847
0.00691901
0.00806827
0.00864504
0.0106294
0.0126559
0.0137728
0.0146436
0.0155638
0.0163014
0.01726
0.017896
0.000501751
0.00138675
0.00134
0.00295773
0.00246575
0.00188436
0.00223627
0.00260177
0.0043511
0.00693283
0.00805053
0.00857454
0.0104992
0.0125192
0.0135595
0.0143259
0.0151882
0.0158716
0.0166978
0.0172836
0.000542976
0.00140714
0.00138862
0.00296683
0.00251642
0.00191118
0.0023086
0.00267296
0.00438921
0.00694352
0.00803162
0.00849735
0.0103575
0.0123714
0.0133416
0.0139945
0.0147942
0.0154334
0.0161403
0.0166637
0.000587467
0.00142674
0.00143825
0.00297265
0.00256915
0.00194182
0.00237578
0.00274642
0.0044229
0.0069497
0.00801218
0.00841524
0.0102037
0.012211
0.0131188
0.0136512
0.0143827
0.0149869
0.015589
0.0160405
0.000635406
0.00144572
0.00148823
0.00297551
0.00262355
0.00197668
0.00243754
0.00282169
0.00445245
0.00694959
0.00799132
0.00832907
0.0100377
0.0120363
0.0128912
0.0132982
0.0139542
0.0145323
0.0150455
0.0154192
0.000686878
0.00146435
0.00153808
0.00297581
0.00267931
0.00201608
0.00249378
0.002898
0.00447858
0.00694194
0.00796801
0.00823936
0.00985955
0.0118457
0.0126581
0.0129378
0.0135099
0.0140686
0.0145109
0.0148051
0.000741915
0.00148283
0.00158735
0.00297403
0.00273584
0.00206023
0.00254455
0.00297454
0.0045022
0.00692602
0.00794059
0.00814597
0.00966961
0.0116384
0.0124187
0.0125724
0.0130517
0.0135954
0.0139846
0.0142036
0.000800561
0.00150134
0.00163574
0.00297071
0.00279255
0.0021094
0.00258993
0.00305009
0.00452396
0.00690142
0.00790749
0.00804817
0.00946802
0.0114142
0.0121719
0.0122038
0.012582
0.0131123
0.0134656
0.0136184
0.000862799
0.00152008
0.00168209
0.00296633
0.00284909
0.00216406
0.00263017
0.00312278
0.00454389
0.00686813
0.00786783
0.0079455
0.00925472
0.0111726
0.011917
0.011834
0.0121027
0.0126196
0.0129529
0.0130508
0.000928635
0.00153922
0.00172716
0.00296152
0.00290481
0.00222452
0.00266605
0.00319078
0.00456147
0.00682612
0.00782116
0.00783825
0.0090293
0.0109118
0.0116532
0.0114653
0.0116163
0.0121182
0.0124452
0.0124988
0.000998015
0.0015589
0.0017716
0.00295692
0.00295855
0.00229067
0.00269892
0.00325266
0.00457612
0.00677534
0.00776685
0.00772679
0.00879162
0.0106302
0.0113792
0.0111004
0.0111252
0.0116068
0.0119429
0.0119621
0.00107082
0.00157936
0.00181436
0.00295331
0.00300932
0.00236169
0.0027305
0.00330748
0.00458688
0.00671572
0.00770403
0.00761154
0.00854258
0.0103262
0.011093
0.0107416
0.0106329
0.0110828
0.0114444
0.0114431
0.00114693
0.00160097
0.00185493
0.00295174
0.00305645
0.00243579
0.00276277
0.00335524
0.00459184
0.00664614
0.00763195
0.00749377
0.00828398
0.00999836
0.0107915
0.0103907
0.0101453
0.0105451
0.0109442
0.0109429
0.00122606
0.0016243
0.00189285
0.00295282
0.0031
0.00251063
0.00279669
0.00339691
0.00458934
0.00656487
0.0075496
0.00737518
0.00801874
0.00964563
0.0104699
0.0100483
0.00966944
0.0099952
0.0104356
0.0104588
0.00130792
0.00165015
0.00192713
0.00295681
0.00314143
0.00258364
0.00283144
0.00343398
0.00457934
0.00647034
0.00745481
0.00725669
0.00775074
0.0092689
0.0101238
0.009712
0.00921266
0.0094375
0.00991112
0.00998551
0.00139205
0.00167937
0.00195692
0.00296348
0.00318305
0.00265292
0.00286549
0.00346786
0.00456281
0.00636096
0.00734462
0.00713767
0.00748379
0.0088723
0.00975077
0.00937673
0.00877976
0.00888054
0.0093649
0.00951545
0.00147767
0.00171314
0.00198216
0.00297136
0.00322786
0.00271822
0.00289607
0.003499
0.00454112
0.00623581
0.00721548
0.00701598
0.00722194
0.0084621
0.00935079
0.00903569
0.00837098
0.00833496
0.00879582
0.00903756
0.00156389
0.00175261
0.00200303
0.00297832
0.00327863
0.00278101
0.0029192
0.0035254
0.00451611
0.00609652
0.00706377
0.00688799
0.00696947
0.00804621
0.0089266
0.00868292
0.00798213
0.00781128
0.00820974
0.0085373
0.0016498
0.00179842
0.00202036
0.00298595
0.00333601
0.00284439
0.00293185
0.00354337
0.00448947
0.00594707
0.0068882
0.00674851
0.00672786
0.00763274
0.00848318
0.00831504
0.00760643
0.00731576
0.00762015
0.00800405
0.0017346
0.00185092
0.00203619
0.0029839
0.00339723
0.00291313
0.00293379
0.00354743
0.00446133
0.0057936
0.0066919
0.00659214
0.00649382
0.00722835
0.00802667
0.00792984
0.00723649
0.00684903
0.00704339
0.00743966
0.00181764
0.00190998
0.00205343
0.00296961
0.00345831
0.00299178
0.00292773
0.00353121
0.0044286
0.00564314
0.00647977
0.00641506
0.0062628
0.00683671
0.00756352
0.00752721
0.00686702
0.00640662
0.00649166
0.00685846
0.00189818
0.00197517
0.00207526
0.00294253
0.003514
0.00308212
0.00291749
0.00349004
0.00438626
0.00550079
0.00626065
0.00621834
0.00602982
0.00645757
0.00709807
0.0071094
0.00649546
0.00598213
0.00596906
0.0062794
0.00197578
0.00204571
0.00210429
0.00290443
0.0035574
0.00318296
0.00291018
0.00342394
0.0043259
0.0053647
0.00604445
0.00600658
0.00579037
0.00608802
0.00663338
0.00667925
0.00612132
0.00557173
0.00547324
0.00571907
0.00205043
0.00212055
0.00214213
0.00285689
0.003581
0.0032888
0.00291603
0.00333879
0.00423853
0.00523007
0.00583732
0.00578597
0.00554314
0.00572487
0.00617139
0.00623817
0.00574401
0.00517542
0.00500018
0.00518494
0.00212208
0.0021983
0.00219044
0.00280365
0.00357927
0.0033915
0.0029405
0.0032419
0.00411862
0.00508838
0.00564141
0.00556685
0.00529165
0.00536804
0.00571371
0.00578694
0.00536046
0.00479358
0.00454845
0.0046757
0.00219141
0.00227597
0.00224943
0.00275106
0.00355072
0.00348212
0.00298495
0.00314514
0.00396625
0.00492437
0.00545224
0.00535737
0.0050424
0.00501919
0.00526264
0.00532731
0.00496696
0.00442457
0.00412071
0.00418942
0.00225965
0.00235145
0.00231796
0.00270415
0.00349439
0.00354989
0.00304558
0.00306513
0.00378973
0.00472674
0.0052602
0.00515945
0.00480282
0.00468081
0.00482045
0.00486152
0.00455965
0.00406178
0.00371861
0.00372664
0.00232604
0.00242366
0.00239605
0.00266892
0.00341282
0.00358448
0.00311431
0.00301171
0.00360435
0.00449449
0.00504955
0.00497079
0.0045809
0.00435897
0.00439092
0.00439487
0.00413761
0.00369567
0.00333962
0.00329097
0.00239399
0.00248472
0.00247847
0.00264534
0.0033087
0.00358095
0.00318424
0.00298705
0.00342995
0.00423553
0.00480599
0.00477904
0.00437671
0.00406249
0.0039805
0.00393261
0.00370331
0.0033199
0.00297689
0.00288419
0.00246806
0.00255685
0.00255388
0.00262698
0.00317971
0.0035354
0.00324475
0.00298701
0.00328008
0.00396453
0.00452712
0.00456599
0.00418419
0.0037973
0.00359879
0.00348145
0.00326161
0.00293018
0.00261927
0.00250384
0.00254088
0.00260862
0.00262429
0.00263253
0.0030607
0.00345144
0.00327928
0.00300328
0.00315689
0.00369903
0.00422028
0.00431911
0.00398876
0.00355922
0.00325612
0.00305306
0.00282044
0.00252709
0.00225725
0.0021429
0.00261264
0.00265938
0.00268005
0.00265389
0.00295802
0.00333589
0.00327631
0.00302224
0.00305861
0.00345348
0.00389841
0.00403676
0.00377439
0.00333855
0.00295425
0.00265985
0.00238975
0.00211606
0.00188472
0.0017897
0.00268338
0.00270299
0.00272383
0.00268377
0.00287634
0.00320266
0.00323323
0.00302971
0.00298057
0.00323462
0.00358062
0.00372618
0.00353077
0.00312062
0.00268491
0.00231069
0.00198446
0.00170762
0.0015038
0.00143528
0.00274792
0.00274305
0.00275756
0.00271495
0.00281611
0.00306573
0.00315221
0.00301356
0.00291543
0.00304424
0.00328399
0.00340295
0.00325749
0.00289314
0.00243862
0.00200358
0.0016163
0.00131278
0.00112131
0.00107562
0.00280711
0.00277539
0.00278316
0.00274061
0.00277205
0.00293831
0.00304205
0.00296857
0.00285481
0.00288076
0.00301243
0.00308246
0.00296164
0.00264558
0.00220138
0.0017295
0.00129053
0.000944324
0.000745944
0.000715033
0.00286526
0.00281344
0.00279208
0.00275135
0.00273963
0.00282646
0.00291404
0.00289171
0.00278734
0.00273985
0.00276968
0.00277815
0.00265768
0.00237877
0.00196248
0.00147905
0.00100492
0.000614093
0.000388406
0.000360495
0.0029071
0.00283796
0.00279812
0.00275244
0.0027132
0.00273095
0.00278083
0.0027872
0.00270343
0.00261354
0.00255728
0.00249844
0.00236125
0.00210408
0.00171649
0.00124035
0.000750115
0.000325813
6.14027e-05
2.08581e-05
0.00294856
0.00286762
0.00279783
0.00274022
0.00268292
0.00264829
0.00265468
0.00266578
0.0026022
0.00249302
0.00237249
0.00224748
0.00207969
0.00183135
0.00146753
0.00100513
0.000513447
7.15872e-05
-0.000229284
-0.000296911
0.00298071
0.00288275
0.00279627
0.00272202
0.00264802
0.00257461
0.00253622
0.00253287
0.0024835
0.00237282
0.00220894
0.00202702
0.00182336
0.00157314
0.00122891
0.000782114
0.000294374
-0.000153108
-0.000480658
-0.000583853
0.00300599
0.00289875
0.0027881
0.00269411
0.0026048
0.0025048
0.00242672
0.00239732
0.00235228
0.00225187
0.00206495
0.00183771
0.00159627
0.00133143
0.00100095
0.000574074
9.4664e-05
-0.000351186
-0.000692354
-0.000828031
0.00302147
0.00290591
0.0027772
0.0026623
0.00255374
0.00243578
0.00232871
0.0022674
0.00221202
0.00212386
0.00193737
0.00168368
0.00141103
0.00112222
0.000790371
0.000382333
-8.50312e-05
-0.000528314
-0.000875118
-0.00103478
0.00302425
0.00289658
0.00276455
0.00263239
0.00249839
0.00236378
0.00223786
0.00215136
0.00207432
0.00198508
0.00180927
0.00155455
0.00126905
0.000968552
0.0006267
0.000226881
-0.00022654
-0.000667995
-0.00102127
-0.00120239
0.00302309
0.00289236
0.00273857
0.00258804
0.00243481
0.00228485
0.00214694
0.00204559
0.00195623
0.00185848
0.0016832
0.00143431
0.00115211
0.000855549
0.000517395
0.000125834
-0.000311913
-0.000749043
-0.00110869
-0.00130895
0.00300979
0.00287176
0.00270967
0.00254633
0.00236979
0.00220353
0.00205263
0.00193606
0.00184073
0.0017477
0.00158172
0.00134446
0.00107081
0.000784441
0.000459742
7.90863e-05
-0.000342764
-0.000773796
-0.00114088
-0.00135694
0.00298451
0.00283707
0.00267171
0.00250146
0.00230106
0.00211822
0.00195984
0.00183055
0.00172023
0.00163378
0.00149367
0.0012855
0.00103773
0.000769662
0.000470179
0.000112783
-0.000294998
-0.000722799
-0.00111087
-0.00136209
0.00295012
0.00282569
0.00265346
0.00246359
0.00224613
0.00204363
0.00187141
0.00172538
0.00160613
0.00153427
0.00145028
0.00131537
0.00113292
0.000910927
0.000653107
0.000354569
3.93035e-06
-0.000366898
-0.000748894
-0.00109077
0.00290301
0.00270661
0.00256167
0.00238099
0.00218867
0.00199579
0.0018023
0.00160436
0.00138167
0.00120315
0.00113021
0.0011335
0.00109766
0.000985709
0.00081686
0.000638611
0.000483543
0.000383458
0.000336788
0.000289085
0.0028839
0.00275352
0.0025557
0.00232279
0.00206663
0.00184241
0.00169746
0.00163633
0.00155913
0.00146939
0.00135873
0.00123526
0.00110364
0.000969741
0.0008537
0.000783251
0.000749914
0.000736158
0.000673283
0.000483539
0.00268553
0.00249298
0.00244505
0.00238733
0.00225073
0.00205449
0.00184808
0.00167972
0.00153263
0.00139573
0.0012409
0.00107424
0.000942454
0.000834236
0.000736305
0.000679704
0.000653719
0.00064794
0.00065057
0.000609323
0.00278426
0.00271541
0.00255432
0.00241601
0.00223735
0.00204344
0.00182821
0.00166242
0.0015185
0.00137672
0.00126526
0.00116953
0.00108726
0.00101448
0.000876994
0.000669184
0.000361741
-6.78068e-05
-0.000590695
-0.00111705
0.0025846
0.00242412
0.00240624
0.00241037
0.00233722
0.00214483
0.00188808
0.00167849
0.00151366
0.00134886
0.00121679
0.00110664
0.000984244
0.000904556
0.000851665
0.000815221
0.000795132
0.000781327
0.000756859
0.000661158
0.00261875
0.00255634
0.00254221
0.00254692
0.00244104
0.00222906
0.00194947
0.00171045
0.00153648
0.00136913
0.00121901
0.00112263
0.00104739
0.00103126
0.00106915
0.00110941
0.00112105
0.00108721
0.000968473
0.000697597
0.0475855
0.03429
0.020479
0.0109285
0.00674724
0.00591418
0.00557057
0.00480754
0.00388617
0.00308974
0.00239174
0.00170829
0.00103314
0.000360919
-0.00030775
-0.000973769
-0.00164987
-0.00232064
-0.00297519
-0.00363724
-0.00432503
-0.00502507
-0.00568765
-0.00629037
-0.00688689
-0.0075438
-0.00824529
-0.00888448
-0.00941313
-0.00994315
-0.0105719
-0.0112285
-0.0118392
-0.012438
-0.0130654
-0.0136955
-0.0143127
-0.0149466
-0.0156156
-0.0162979
-0.0169872
-0.0176724
-0.01834
-0.0189896
-0.0196363
-0.0203007
-0.0209945
-0.0217234
-0.0224989
-0.0233162
-0.0241267
-0.0249066
-0.0256735
-0.0264865
-0.027319
-0.0281276
-0.0289398
-0.0298104
-0.0306745
-0.0315363
-0.0324533
-0.0334298
-0.0344138
-0.0354117
-0.0364226
-0.0374118
-0.0383862
-0.0393775
-0.0403784
-0.0414211
-0.0425688
-0.043729
-0.0448714
-0.0459841
-0.0471383
-0.0483072
-0.0495169
-0.0507752
-0.05204
-0.0533158
-0.0546245
-0.0559743
-0.0573108
-0.0586648
-0.0600641
-0.0614655
-0.0629187
-0.0643538
-0.0658233
-0.0673088
-0.0688379
-0.0704112
-0.072001
-0.0736119
-0.0752512
-0.0769849
-0.0787072
-0.0805803
-0.0823829
-0.0840693
0.0452842
0.0340237
0.0205415
0.0110714
0.00684983
0.00596484
0.00560085
0.00482785
0.00390049
0.00310091
0.00240116
0.00171639
0.00104014
0.000367012
-0.000302402
-0.000968998
-0.00164564
-0.00231688
-0.00297177
-0.00363408
-0.00432214
-0.00502249
-0.00568539
-0.0062883
-0.00688489
-0.00754191
-0.00824366
-0.00888314
-0.00941189
-0.00994188
-0.0105707
-0.0112275
-0.0118383
-0.0124371
-0.0130646
-0.0136948
-0.014312
-0.0149459
-0.0156149
-0.0162973
-0.0169867
-0.0176718
-0.0183395
-0.0189891
-0.0196358
-0.0203001
-0.020994
-0.0217228
-0.0224984
-0.0233157
-0.0241263
-0.0249061
-0.0256731
-0.0264861
-0.0273186
-0.0281273
-0.0289395
-0.02981
-0.0306741
-0.031536
-0.032453
-0.0334294
-0.0344135
-0.0354114
-0.0364224
-0.0374116
-0.038386
-0.0393773
-0.0403782
-0.0414209
-0.0425686
-0.0437288
-0.0448712
-0.0459839
-0.0471381
-0.048307
-0.0495167
-0.0507751
-0.0520399
-0.0533157
-0.0546244
-0.0559741
-0.0573107
-0.0586646
-0.060064
-0.0614654
-0.0629185
-0.0643537
-0.0658232
-0.0673087
-0.0688377
-0.0704111
-0.0720009
-0.0736118
-0.0752512
-0.0769848
-0.0787071
-0.0805802
-0.082383
-0.0840694
0.0436667
0.0338625
0.0207142
0.0113462
0.00702781
0.00603075
0.00562848
0.0048484
0.00391779
0.00311467
0.00241192
0.00172521
0.00104774
0.000373519
-0.000296912
-0.000964265
-0.00164148
-0.00231324
-0.00296855
-0.00363119
-0.0043195
-0.00502012
-0.00568329
-0.00628637
-0.00688306
-0.00754021
-0.00824221
-0.00888192
-0.0094107
-0.00994065
-0.0105696
-0.0112267
-0.0118375
-0.0124364
-0.0130639
-0.0136942
-0.0143114
-0.0149453
-0.0156144
-0.0162968
-0.0169862
-0.0176714
-0.0183391
-0.0189886
-0.0196353
-0.0202997
-0.0209935
-0.0217224
-0.022498
-0.0233153
-0.0241259
-0.0249058
-0.0256727
-0.0264857
-0.0273183
-0.028127
-0.0289392
-0.0298097
-0.0306739
-0.0315357
-0.0324527
-0.0334292
-0.0344133
-0.0354112
-0.0364222
-0.0374114
-0.0383858
-0.0393771
-0.040378
-0.0414207
-0.0425684
-0.0437287
-0.0448711
-0.0459838
-0.047138
-0.0483069
-0.0495166
-0.050775
-0.0520398
-0.0533156
-0.0546243
-0.055974
-0.0573106
-0.0586645
-0.0600639
-0.0614653
-0.0629184
-0.0643536
-0.0658231
-0.0673086
-0.0688377
-0.070411
-0.0720009
-0.0736117
-0.0752511
-0.0769847
-0.078707
-0.0805802
-0.082383
-0.0840697
0.0421237
0.0336196
0.0208995
0.011671
0.00725958
0.00611967
0.00566583
0.00487813
0.00394434
0.00313513
0.00242639
0.00173629
0.00105743
0.000382134
-0.000289629
-0.000958101
-0.00163605
-0.00230849
-0.00296458
-0.00362784
-0.00431636
-0.00501707
-0.00568053
-0.00628405
-0.00688105
-0.00753831
-0.0082404
-0.00888027
-0.00940916
-0.0099392
-0.0105683
-0.0112256
-0.0118365
-0.0124354
-0.0130631
-0.0136935
-0.0143107
-0.0149446
-0.0156138
-0.0162963
-0.0169857
-0.0176709
-0.0183386
-0.0189882
-0.0196349
-0.0202992
-0.020993
-0.0217219
-0.0224975
-0.0233149
-0.0241256
-0.0249054
-0.0256724
-0.0264854
-0.0273179
-0.0281267
-0.0289388
-0.0298094
-0.0306736
-0.0315353
-0.0324524
-0.0334289
-0.034413
-0.0354109
-0.036422
-0.0374112
-0.0383855
-0.0393769
-0.0403778
-0.0414204
-0.0425682
-0.0437286
-0.0448709
-0.0459836
-0.0471378
-0.0483067
-0.0495164
-0.0507748
-0.0520396
-0.0533154
-0.0546241
-0.0559739
-0.0573105
-0.0586644
-0.0600638
-0.0614652
-0.0629183
-0.0643536
-0.065823
-0.0673085
-0.0688376
-0.070411
-0.0720008
-0.0736116
-0.075251
-0.0769847
-0.078707
-0.0805801
-0.0823831
-0.0840703
0.0405831
0.0332841
0.0210744
0.0120051
0.00750852
0.00621811
0.0057065
0.00491367
0.00397931
0.00316295
0.00244571
0.00175069
0.00107014
0.000393731
-0.000279707
-0.000949686
-0.00162845
-0.00230174
-0.0029592
-0.00362362
-0.00431229
-0.00501262
-0.00567631
-0.00628081
-0.00687865
-0.00753596
-0.00823776
-0.00887767
-0.00940696
-0.00993733
-0.0105666
-0.0112239
-0.011835
-0.0124342
-0.013062
-0.0136924
-0.0143098
-0.0149438
-0.0156131
-0.0162957
-0.0169851
-0.0176704
-0.0183382
-0.0189878
-0.0196344
-0.0202987
-0.0209925
-0.0217214
-0.0224971
-0.0233145
-0.0241252
-0.0249051
-0.025672
-0.026485
-0.0273176
-0.0281263
-0.0289385
-0.0298091
-0.0306733
-0.031535
-0.0324521
-0.0334286
-0.0344127
-0.0354107
-0.0364218
-0.037411
-0.0383853
-0.0393767
-0.0403775
-0.0414202
-0.042568
-0.0437284
-0.0448708
-0.0459834
-0.0471377
-0.0483066
-0.0495163
-0.0507747
-0.0520395
-0.0533153
-0.054624
-0.0559738
-0.0573104
-0.0586643
-0.0600637
-0.061465
-0.0629182
-0.0643535
-0.0658229
-0.0673084
-0.0688375
-0.0704109
-0.0720007
-0.0736115
-0.0752509
-0.0769846
-0.0787069
-0.0805801
-0.0823832
-0.0840711
0.0390645
0.0328756
0.0212395
0.0123388
0.00776353
0.00631986
0.0057452
0.00494947
0.00401808
0.00319519
0.00246839
0.00176766
0.00108531
0.000407881
-0.000267411
-0.000939075
-0.00161851
-0.00229264
-0.00295206
-0.00361832
-0.00430713
-0.00500649
-0.00567015
-0.00627626
-0.00687571
-0.00753303
-0.00823393
-0.00887372
-0.0094039
-0.00993497
-0.0105642
-0.0112214
-0.0118328
-0.0124324
-0.0130605
-0.0136909
-0.0143084
-0.0149427
-0.0156122
-0.016295
-0.0169845
-0.0176699
-0.0183377
-0.0189874
-0.0196339
-0.020298
-0.0209919
-0.0217209
-0.0224966
-0.0233141
-0.0241247
-0.0249047
-0.0256716
-0.0264845
-0.0273171
-0.0281259
-0.0289381
-0.0298087
-0.0306729
-0.0315346
-0.0324517
-0.0334283
-0.0344124
-0.0354104
-0.0364215
-0.0374107
-0.038385
-0.0393764
-0.0403773
-0.0414198
-0.0425677
-0.0437282
-0.0448706
-0.0459833
-0.0471375
-0.0483064
-0.0495161
-0.0507746
-0.0520394
-0.0533152
-0.0546239
-0.0559737
-0.0573102
-0.0586642
-0.0600636
-0.0614649
-0.0629181
-0.0643534
-0.0658228
-0.0673083
-0.0688373
-0.0704108
-0.0720006
-0.0736114
-0.0752508
-0.0769845
-0.0787068
-0.08058
-0.0823833
-0.0840721
0.0375838
0.0324015
0.0213867
0.0126662
0.0080226
0.00642539
0.00578188
0.00498383
0.00405843
0.00323001
0.00249315
0.00178625
0.00110206
0.0004236
-0.00025369
-0.000927027
-0.00160676
-0.00228149
-0.00294324
-0.00361195
-0.00430094
-0.00499874
-0.00566206
-0.00627031
-0.00687211
-0.00752943
-0.00822876
-0.00886821
-0.0093999
-0.00993215
-0.0105612
-0.011218
-0.0118299
-0.0124302
-0.0130584
-0.0136887
-0.0143064
-0.0149411
-0.015611
-0.016294
-0.0169837
-0.0176692
-0.0183372
-0.018987
-0.0196334
-0.0202973
-0.0209912
-0.0217204
-0.0224962
-0.0233135
-0.0241242
-0.0249043
-0.0256712
-0.0264841
-0.0273166
-0.0281254
-0.0289376
-0.0298083
-0.0306725
-0.0315341
-0.0324513
-0.0334279
-0.0344121
-0.0354101
-0.0364213
-0.0374104
-0.0383847
-0.0393761
-0.0403769
-0.0414194
-0.0425674
-0.043728
-0.0448704
-0.045983
-0.0471372
-0.0483062
-0.0495158
-0.0507744
-0.0520392
-0.053315
-0.0546237
-0.0559736
-0.0573101
-0.058664
-0.0600635
-0.0614648
-0.062918
-0.0643533
-0.0658226
-0.0673082
-0.0688372
-0.0704107
-0.0720005
-0.0736113
-0.0752506
-0.0769843
-0.0787066
-0.0805798
-0.0823833
-0.0840733
0.0361531
0.0318616
0.0215053
0.0129845
0.00828757
0.00653776
0.00581775
0.00501607
0.00409931
0.00326665
0.00251944
0.00180597
0.00111982
0.000440271
-0.000239181
-0.000914193
-0.00159388
-0.00226893
-0.00293315
-0.00360468
-0.00429389
-0.00498971
-0.00565241
-0.00626316
-0.00686788
-0.00752516
-0.00822231
-0.00886123
-0.00939497
-0.00992891
-0.0105575
-0.0112136
-0.0118261
-0.0124274
-0.0130558
-0.013686
-0.0143038
-0.014939
-0.0156092
-0.0162925
-0.0169825
-0.0176683
-0.0183367
-0.0189867
-0.0196329
-0.0202965
-0.0209903
-0.0217198
-0.0224956
-0.0233128
-0.0241235
-0.0249038
-0.0256708
-0.0264836
-0.027316
-0.028125
-0.0289373
-0.0298079
-0.0306719
-0.0315336
-0.0324508
-0.0334275
-0.0344117
-0.0354098
-0.0364211
-0.0374101
-0.0383843
-0.0393758
-0.0403766
-0.041419
-0.0425671
-0.0437278
-0.0448702
-0.0459827
-0.047137
-0.0483059
-0.0495156
-0.0507741
-0.052039
-0.0533148
-0.0546235
-0.0559734
-0.05731
-0.0586638
-0.0600634
-0.0614647
-0.0629179
-0.0643531
-0.0658225
-0.0673081
-0.0688371
-0.0704106
-0.0720004
-0.0736112
-0.0752504
-0.0769842
-0.0787065
-0.0805794
-0.0823832
-0.0840748
0.0347794
0.0312583
0.0215891
0.0132936
0.00856014
0.00665854
0.0058528
0.00504481
0.00413957
0.00330463
0.00254702
0.00182653
0.00113827
0.000457594
-0.000224124
-0.000900855
-0.00158033
-0.00225547
-0.00292218
-0.00359675
-0.00428621
-0.0049798
-0.00564167
-0.00625511
-0.00686312
-0.00752036
-0.00821493
-0.00885308
-0.00938925
-0.00992526
-0.0105534
-0.0112085
-0.0118217
-0.0124241
-0.0130527
-0.0136828
-0.0143008
-0.0149363
-0.0156069
-0.0162905
-0.0169808
-0.0176669
-0.0183359
-0.0189863
-0.0196325
-0.0202957
-0.0209893
-0.0217191
-0.022495
-0.0233119
-0.0241225
-0.0249032
-0.0256705
-0.026483
-0.0273154
-0.0281245
-0.0289369
-0.0298074
-0.0306713
-0.0315331
-0.0324503
-0.0334269
-0.0344111
-0.0354095
-0.0364209
-0.0374098
-0.0383839
-0.0393755
-0.0403762
-0.0414185
-0.0425667
-0.0437275
-0.0448699
-0.0459824
-0.0471366
-0.0483056
-0.0495152
-0.0507739
-0.0520387
-0.0533145
-0.0546233
-0.0559733
-0.0573098
-0.0586637
-0.0600632
-0.0614645
-0.0629178
-0.064353
-0.0658224
-0.0673079
-0.0688369
-0.0704104
-0.0720002
-0.0736111
-0.0752502
-0.0769839
-0.0787063
-0.0805789
-0.082383
-0.0840766
0.0334697
0.0305997
0.0216346
0.0135911
0.00883834
0.00678745
0.00588684
0.00506902
0.00417826
0.00334364
0.00257579
0.00184773
0.00115714
0.000475368
-0.000208641
-0.000887151
-0.00156632
-0.0022414
-0.00291059
-0.00358833
-0.0042781
-0.00496931
-0.00563017
-0.00624636
-0.00685793
-0.00751521
-0.00820697
-0.00884417
-0.00938291
-0.00992122
-0.0105488
-0.0112029
-0.0118168
-0.0124204
-0.0130494
-0.0136794
-0.0142977
-0.0149335
-0.0156041
-0.0162879
-0.0169784
-0.017665
-0.0183346
-0.0189859
-0.0196322
-0.020295
-0.0209884
-0.0217183
-0.0224942
-0.0233106
-0.0241211
-0.0249024
-0.02567
-0.0264824
-0.0273146
-0.0281241
-0.0289367
-0.029807
-0.0306707
-0.0315325
-0.0324497
-0.0334262
-0.0344104
-0.035409
-0.0364205
-0.0374095
-0.0383836
-0.0393752
-0.0403757
-0.0414179
-0.0425662
-0.0437271
-0.0448696
-0.0459821
-0.0471363
-0.0483052
-0.0495148
-0.0507735
-0.0520384
-0.0533142
-0.054623
-0.055973
-0.0573095
-0.0586634
-0.060063
-0.0614644
-0.0629176
-0.0643529
-0.0658222
-0.0673078
-0.0688368
-0.0704103
-0.072
-0.0736109
-0.0752499
-0.0769836
-0.078706
-0.0805782
-0.0823826
-0.0840785
0.0322291
0.0298959
0.0216376
0.0138723
0.0091191
0.00692488
0.00592104
0.00508858
0.00421465
0.00338338
0.00260577
0.00186949
0.00117622
0.000493342
-0.000192948
-0.000873253
-0.00155203
-0.00222692
-0.00289856
-0.00357958
-0.00426971
-0.00495839
-0.00561804
-0.006237
-0.00685234
-0.00750985
-0.00819872
-0.00883482
-0.00937615
-0.00991684
-0.0105439
-0.011197
-0.0118116
-0.0124165
-0.0130458
-0.0136758
-0.0142945
-0.0149306
-0.0156012
-0.0162849
-0.0169755
-0.0176624
-0.0183329
-0.0189852
-0.0196319
-0.0202944
-0.0209877
-0.0217178
-0.0224933
-0.023309
-0.0241194
-0.0249013
-0.0256695
-0.0264816
-0.0273136
-0.0281236
-0.0289367
-0.0298067
-0.0306702
-0.0315321
-0.0324492
-0.0334254
-0.0344095
-0.0354082
-0.03642
-0.037409
-0.0383832
-0.039375
-0.0403754
-0.0414174