/*--------------------------------*- C++ -*----------------------------------*\
| =========                 |                                                 |
| \\      /  F ield         | OpenFOAM: The Open Source CFD Toolbox           |
|  \\    /   O peration     | Version:  v1906                                 |
|   \\  /    A nd           | Web:      www.OpenFOAM.com                      |
|    \\/     M anipulation  |                                                 |
\*---------------------------------------------------------------------------*/
FoamFile
{
    version     2.0;
    format      ascii;
    class       surfaceScalarField;
    location    "9";
    object      phi;
}
// * * * * * * * * * * * * * * * * * * * * * * * * * * * * * * * * * * * * * //

dimensions      [0 3 -1 0 0 0 0];
oriented        oriented;


internalField   nonuniform List<scalar> 
19000
(
1.15193e-06
-6.59559e-07
1.23251e-06
2.50469e-07
1.19557e-06
2.57765e-07
1.14906e-06
1.75438e-06
1.13106e-06
-1.34412e-06
1.19156e-06
-2.08759e-06
1.23177e-06
-1.95301e-06
1.25896e-06
-4.23561e-07
1.24895e-06
-8.18651e-09
1.23722e-06
8.12619e-07
1.23413e-06
5.43521e-07
1.23788e-06
3.33124e-07
1.24139e-06
-2.0136e-07
1.22392e-06
-5.10653e-07
1.21095e-06
-7.89019e-07
1.1846e-06
-7.76747e-07
1.19078e-06
-6.62419e-07
1.16077e-06
-7.68922e-07
1.18664e-06
-3.03826e-07
-6.68043e-07
1.1121e-06
1.2107e-06
-6.45995e-07
1.29805e-06
1.63112e-07
1.2559e-06
2.99918e-07
1.2319e-06
1.77838e-06
1.18474e-06
-1.29696e-06
1.21767e-06
-2.12052e-06
1.27608e-06
-2.01143e-06
1.31666e-06
-4.64142e-07
1.30577e-06
2.71221e-09
1.30365e-06
8.14737e-07
1.29552e-06
5.51654e-07
1.3126e-06
3.16034e-07
1.3036e-06
-1.92356e-07
1.29416e-06
-5.01212e-07
1.26234e-06
-7.57201e-07
1.24635e-06
-7.60757e-07
1.22935e-06
-6.45412e-07
1.22136e-06
-7.60933e-07
1.22177e-06
-3.04236e-07
-6.34269e-07
1.18799e-06
1.26914e-06
-6.32353e-07
1.36342e-06
6.88297e-08
1.32408e-06
3.39259e-07
1.30246e-06
1.8e-06
1.23696e-06
-1.23146e-06
1.25241e-06
-2.13597e-06
1.31459e-06
-2.07361e-06
1.36676e-06
-5.16308e-07
1.36327e-06
6.20005e-09
1.36931e-06
8.08702e-07
1.36952e-06
5.51435e-07
1.38337e-06
3.02193e-07
1.37501e-06
-1.84003e-07
1.35783e-06
-4.84031e-07
1.3239e-06
-7.23275e-07
1.3019e-06
-7.38748e-07
1.28394e-06
-6.27455e-07
1.27391e-06
-7.50907e-07
1.27945e-06
-3.09773e-07
-6.06708e-07
1.25189e-06
1.32755e-06
-6.15802e-07
1.42263e-06
-2.62504e-08
1.39365e-06
3.68242e-07
1.36934e-06
1.8243e-06
1.29607e-06
-1.15818e-06
1.2942e-06
-2.1341e-06
1.34935e-06
-2.12876e-06
1.40907e-06
-5.76032e-07
1.42047e-06
-5.19528e-09
1.43556e-06
7.93611e-07
1.44752e-06
5.39477e-07
1.46036e-06
2.89356e-07
1.45002e-06
-1.73663e-07
1.42797e-06
-4.61989e-07
1.39054e-06
-6.8584e-07
1.36446e-06
-7.12673e-07
1.34328e-06
-6.06272e-07
1.32962e-06
-7.37249e-07
1.33356e-06
-3.13706e-07
-5.77608e-07
1.30446e-06
1.38862e-06
-5.96073e-07
1.47469e-06
-1.12319e-07
1.46057e-06
3.82365e-07
1.43449e-06
1.85039e-06
1.3632e-06
-1.08689e-06
1.34577e-06
-2.11667e-06
1.38673e-06
-2.16972e-06
1.44885e-06
-6.38156e-07
1.47703e-06
-3.33765e-08
1.5051e-06
7.65542e-07
1.5276e-06
5.1698e-07
1.54151e-06
2.75447e-07
1.52715e-06
-1.59306e-07
1.50033e-06
-4.35168e-07
1.45896e-06
-6.44471e-07
1.4303e-06
-6.84006e-07
1.4069e-06
-5.82875e-07
1.38959e-06
-7.1994e-07
1.39323e-06
-3.1735e-07
-5.4694e-07
1.36257e-06
1.45481e-06
-5.75211e-07
1.52376e-06
-1.81269e-07
1.52423e-06
3.81903e-07
1.5021e-06
1.87251e-06
1.43831e-06
-1.0231e-06
1.40827e-06
-2.08663e-06
1.43236e-06
-2.19381e-06
1.49282e-06
-6.98614e-07
1.53533e-06
-7.58835e-08
1.57862e-06
7.22245e-07
1.61003e-06
4.85574e-07
1.62472e-06
2.60757e-07
1.60542e-06
-1.40003e-07
1.57368e-06
-4.03428e-07
1.52927e-06
-6.00067e-07
1.49865e-06
-6.53387e-07
1.47432e-06
-5.58543e-07
1.45351e-06
-6.99128e-07
1.45719e-06
-3.21034e-07
-5.15436e-07
1.42569e-06
1.52684e-06
-5.55833e-07
1.57519e-06
-2.29623e-07
1.58702e-06
3.70074e-07
1.57505e-06
1.88448e-06
1.51982e-06
-9.67859e-07
1.48086e-06
-2.04768e-06
1.48927e-06
-2.20222e-06
1.54606e-06
-7.55404e-07
1.59938e-06
-1.29208e-07
1.65711e-06
6.64523e-07
1.69491e-06
4.47772e-07
1.70846e-06
2.47204e-07
1.68332e-06
-1.14861e-07
1.64697e-06
-3.67076e-07
1.60082e-06
-5.53925e-07
1.56932e-06
-6.21887e-07
1.54511e-06
-5.3433e-07
1.52131e-06
-6.75327e-07
1.52482e-06
-3.24544e-07
-4.83736e-07
1.49312e-06
1.60374e-06
-5.3944e-07
1.63272e-06
-2.58608e-07
1.65255e-06
3.50249e-07
1.65475e-06
1.88227e-06
1.60648e-06
-9.19586e-07
1.56158e-06
-2.00278e-06
1.55773e-06
-2.19836e-06
1.61102e-06
-8.08695e-07
1.67208e-06
-1.90268e-07
1.74108e-06
5.95521e-07
1.78119e-06
4.07659e-07
1.791e-06
2.3739e-07
1.75967e-06
-8.35248e-08
1.71974e-06
-3.27146e-07
1.67351e-06
-5.07695e-07
1.64235e-06
-5.90728e-07
1.61924e-06
-5.1122e-07
1.5931e-06
-6.49193e-07
1.5961e-06
-3.27541e-07
-4.52185e-07
1.56455e-06
1.68403e-06
-5.25895e-07
1.6978e-06
-2.72379e-07
1.72366e-06
3.24388e-07
1.74096e-06
1.86497e-06
1.69737e-06
-8.75997e-07
1.64843e-06
-1.95384e-06
1.63592e-06
-2.18585e-06
1.6869e-06
-8.59672e-07
1.75288e-06
-2.56252e-07
1.82862e-06
5.1978e-07
1.86631e-06
3.69965e-07
1.87026e-06
2.33446e-07
1.8335e-06
-4.67653e-08
1.79179e-06
-2.85431e-07
1.74734e-06
-4.63246e-07
1.71765e-06
-5.61044e-07
1.69661e-06
-4.90182e-07
1.66893e-06
-6.21514e-07
1.67115e-06
-3.29761e-07
-4.21046e-07
1.64002e-06
1.76692e-06
-5.14093e-07
1.7703e-06
-2.75761e-07
1.80129e-06
2.93399e-07
1.83202e-06
1.83424e-06
1.79146e-06
-8.3543e-07
1.73994e-06
-1.90232e-06
1.72109e-06
-2.16701e-06
1.77013e-06
-9.08712e-07
1.83784e-06
-3.23959e-07
1.91535e-06
4.42271e-07
1.94687e-06
3.38447e-07
1.94443e-06
2.3588e-07
1.9045e-06
-6.83139e-09
1.86354e-06
-2.44471e-07
1.82274e-06
-4.22446e-07
1.79539e-06
-5.33696e-07
1.77718e-06
-4.71969e-07
1.74885e-06
-5.93183e-07
1.75015e-06
-3.31061e-07
-3.90762e-07
1.71987e-06
1.85262e-06
-5.0296e-07
1.84957e-06
-2.7272e-07
1.88449e-06
2.58487e-07
1.92553e-06
1.79319e-06
1.88749e-06
-7.97385e-07
1.8352e-06
-1.85003e-06
1.81073e-06
-2.14253e-06
1.85625e-06
-9.54237e-07
1.92165e-06
-3.89362e-07
1.9964e-06
3.67522e-07
2.02018e-06
3.14668e-07
2.013e-06
2.43062e-07
1.97339e-06
3.27809e-08
1.93607e-06
-2.0715e-07
1.9005e-06
-3.86879e-07
1.87596e-06
-5.09158e-07
1.86095e-06
-4.56958e-07
1.83286e-06
-5.65093e-07
1.83322e-06
-3.31417e-07
-3.62035e-07
1.80449e-06
1.94187e-06
-4.9199e-07
1.93512e-06
-2.65974e-07
1.97166e-06
2.21956e-07
2.01946e-06
1.74539e-06
1.98444e-06
-7.6237e-07
1.93361e-06
-1.7992e-06
1.90334e-06
-2.11225e-06
1.9422e-06
-9.93106e-07
2.00067e-06
-4.47827e-07
2.06914e-06
2.99045e-07
2.08603e-06
2.97778e-07
2.07746e-06
2.51638e-07
2.04212e-06
6.81156e-08
2.01099e-06
-1.76017e-07
1.98169e-06
-3.57578e-07
1.96001e-06
-4.8748e-07
1.94811e-06
-4.45061e-07
1.92099e-06
-5.37964e-07
1.92041e-06
-3.30838e-07
-3.35685e-07
1.89406e-06
2.03536e-06
-4.81162e-07
2.02667e-06
-2.57285e-07
2.06189e-06
1.86741e-07
2.1133e-06
1.69398e-06
2.08215e-06
-7.31225e-07
2.03484e-06
-1.75189e-06
1.99866e-06
-2.07608e-06
2.02782e-06
-1.02226e-06
2.07512e-06
-4.9513e-07
2.13512e-06
2.39042e-07
2.14756e-06
2.85343e-07
2.14142e-06
2.57779e-07
2.11365e-06
9.58838e-08
2.0902e-06
-1.52571e-07
2.06746e-06
-3.34832e-07
2.04833e-06
-4.6835e-07
2.03902e-06
-4.35753e-07
2.01332e-06
-5.12263e-07
2.01175e-06
-3.29264e-07
-3.12404e-07
1.98847e-06
2.13346e-06
-4.70626e-07
2.12395e-06
-2.47772e-07
2.15544e-06
1.55257e-07
2.20826e-06
1.64116e-06
2.1814e-06
-7.04372e-07
2.13879e-06
-1.70927e-06
2.09729e-06
-2.03457e-06
2.11544e-06
-1.04042e-06
2.14914e-06
-5.28832e-07
2.1999e-06
1.88287e-07
2.21056e-06
2.74686e-07
2.20966e-06
2.58676e-07
2.19112e-06
1.14423e-07
2.17541e-06
-1.36866e-07
2.15875e-06
-3.1817e-07
2.14162e-06
-4.51219e-07
2.13409e-06
-4.28224e-07
2.11005e-06
-4.88221e-07
2.10734e-06
-3.26557e-07
-2.92525e-07
2.08746e-06
2.23634e-06
-4.60481e-07
2.22664e-06
-2.38067e-07
2.25326e-06
1.28639e-07
2.30644e-06
1.58797e-06
2.28355e-06
-6.81479e-07
2.2457e-06
-1.67142e-06
2.20001e-06
-1.98889e-06
2.20813e-06
-1.04853e-06
2.22834e-06
-5.49039e-07
2.27041e-06
1.46218e-07
2.28116e-06
2.63936e-07
2.28644e-06
2.53397e-07
2.27692e-06
1.23938e-07
2.26774e-06
-1.27685e-07
2.25612e-06
-3.06554e-07
2.24041e-06
-4.35505e-07
2.23375e-06
-4.21567e-07
2.21144e-06
-4.65907e-07
2.20745e-06
-3.22573e-07
-2.75921e-07
2.19085e-06
2.34412e-06
-4.50727e-07
2.33451e-06
-2.2845e-07
2.35631e-06
1.06834e-07
2.40971e-06
1.53457e-06
2.38988e-06
-6.61651e-07
2.35604e-06
-1.63758e-06
2.30739e-06
-1.94023e-06
2.30787e-06
-1.04902e-06
2.31681e-06
-5.57983e-07
2.35171e-06
1.11321e-07
2.36338e-06
2.52268e-07
2.37409e-06
2.42687e-07
2.37209e-06
1.25934e-07
2.36759e-06
-1.2318e-07
2.35973e-06
-2.98699e-07
2.34497e-06
-4.20745e-07
2.33837e-06
-4.14965e-07
2.31777e-06
-4.45306e-07
2.31243e-06
-3.17232e-07
-2.62127e-07
2.29863e-06
2.45695e-06
-4.41286e-07
2.44753e-06
-2.19027e-07
2.4652e-06
8.91677e-08
2.51909e-06
1.48068e-06
2.50126e-06
-6.43827e-07
2.4704e-06
-1.60672e-06
2.41969e-06
-1.88952e-06
2.41509e-06
-1.04442e-06
2.4159e-06
-5.58793e-07
2.44548e-06
8.17401e-08
2.45823e-06
2.39521e-07
2.47283e-06
2.28081e-07
2.47645e-06
1.22321e-07
2.47484e-06
-1.21572e-07
2.46952e-06
-2.93376e-07
2.45543e-06
-4.06655e-07
2.44827e-06
-4.07808e-07
2.4293e-06
-4.26338e-07
2.42267e-06
-3.10605e-07
-2.50489e-07
2.41103e-06
2.57503e-06
-4.32021e-07
2.5659e-06
-2.09895e-07
2.58022e-06
7.48424e-08
2.63495e-06
1.42595e-06
2.6182e-06
-6.27073e-07
2.58937e-06
-1.57789e-06
2.53711e-06
-1.83726e-06
2.52933e-06
-1.03664e-06
2.52489e-06
-5.54353e-07
2.5508e-06
5.58337e-08
2.5646e-06
2.25725e-07
2.5816e-06
2.11075e-07
2.58918e-06
1.14746e-07
2.58917e-06
-1.21568e-07
2.58538e-06
-2.89586e-07
2.57183e-06
-3.93105e-07
2.56377e-06
-3.99745e-07
2.54625e-06
-4.08821e-07
2.53856e-06
-3.02913e-07
-2.40339e-07
2.52841e-06
2.69856e-06
-4.22749e-07
2.68987e-06
-2.01207e-07
2.70157e-06
6.31419e-08
2.75739e-06
1.37013e-06
2.74098e-06
-6.10665e-07
2.71346e-06
-1.55037e-06
2.65993e-06
-1.78374e-06
2.65008e-06
-1.02678e-06
2.64254e-06
-5.46812e-07
2.66593e-06
3.24394e-08
2.68079e-06
2.10866e-07
2.69913e-06
1.92742e-07
2.70949e-06
1.04384e-07
2.71032e-06
-1.22399e-07
2.70732e-06
-2.86591e-07
2.69428e-06
-3.80059e-07
2.68516e-06
-3.90622e-07
2.66886e-06
-3.92528e-07
2.66041e-06
-2.9446e-07
-2.31097e-07
2.65117e-06
2.82778e-06
-4.13263e-07
2.81973e-06
-1.93158e-07
2.82941e-06
5.34601e-08
2.88646e-06
1.31309e-06
2.86986e-06
-5.94063e-07
2.84307e-06
-1.52359e-06
2.78849e-06
-1.72916e-06
2.77715e-06
-1.01544e-06
2.76797e-06
-5.37634e-07
2.78955e-06
1.08547e-08
2.80555e-06
1.94875e-07
2.82455e-06
1.73743e-07
2.83687e-06
9.20592e-08
2.83814e-06
-1.23667e-07
2.83542e-06
-2.83874e-07
2.82288e-06
-3.67521e-07
2.8127e-06
-3.80436e-07
2.79737e-06
-3.77204e-07
2.78849e-06
-2.85575e-07
-2.22327e-07
2.77972e-06
2.963e-06
-4.03369e-07
2.95576e-06
-1.85918e-07
2.96393e-06
4.52935e-08
3.02227e-06
1.25475e-06
3.00508e-06
-5.7688e-07
2.97859e-06
-1.49709e-06
2.92318e-06
-1.67375e-06
2.91064e-06
-1.0029e-06
2.90085e-06
-5.27839e-07
2.92101e-06
-9.31105e-09
2.93817e-06
1.77715e-07
2.95745e-06
1.54459e-07
2.97111e-06
7.84051e-08
2.97262e-06
-1.25174e-07
2.96982e-06
-2.81081e-07
2.95779e-06
-3.55492e-07
2.94665e-06
-3.69298e-07
2.93205e-06
-3.62603e-07
2.92302e-06
-2.76537e-07
-2.13775e-07
2.91446e-06
3.10455e-06
-3.92912e-07
3.09823e-06
-1.79602e-07
3.10527e-06
3.82526e-08
3.16491e-06
1.19511e-06
3.14692e-06
-5.58881e-07
3.12033e-06
-1.47051e-06
3.06437e-06
-1.61779e-06
3.05081e-06
-9.89344e-07
3.04113e-06
-5.18155e-07
3.0601e-06
-2.82798e-08
3.07836e-06
1.59451e-07
3.09771e-06
1.35113e-07
3.11217e-06
6.39452e-08
3.11381e-06
-1.26817e-07
3.11071e-06
-2.77981e-07
3.0992e-06
-3.43981e-07
3.08728e-06
-3.57377e-07
3.0732e-06
-3.48529e-07
3.06422e-06
-2.67557e-07
-2.05315e-07
3.05576e-06
3.2528e-06
-3.81802e-07
3.24746e-06
-1.74257e-07
3.25363e-06
3.20785e-08
3.31451e-06
1.13423e-06
3.29562e-06
-5.39989e-07
3.26863e-06
-1.44351e-06
3.21244e-06
-1.56159e-06
3.19794e-06
-9.74843e-07
3.18887e-06
-5.09089e-07
3.20676e-06
-4.61747e-08
3.22598e-06
1.40237e-07
3.24526e-06
1.15835e-07
3.26011e-06
4.90914e-08
3.26183e-06
-1.28538e-07
3.25831e-06
-2.74459e-07
3.24732e-06
-3.32993e-07
3.23482e-06
-3.44877e-07
3.22114e-06
-3.34843e-07
3.21233e-06
-2.58751e-07
-1.96968e-07
3.20398e-06
3.40814e-06
-3.70009e-07
3.40376e-06
-1.69882e-07
3.40921e-06
2.66314e-08
3.47121e-06
1.07223e-06
3.45149e-06
-5.20269e-07
3.42381e-06
-1.41584e-06
3.36772e-06
-1.5055e-06
3.3523e-06
-9.59426e-07
3.34418e-06
-5.00964e-07
3.36107e-06
-6.30692e-08
3.381e-06
1.20306e-07
3.40016e-06
9.66779e-08
3.41509e-06
3.41604e-08
3.41687e-06
-1.30312e-07
3.41289e-06
-2.70482e-07
3.40243e-06
-3.22536e-07
3.38957e-06
-3.32014e-07
3.37618e-06
-3.21455e-07
3.36762e-06
-2.50189e-07
-1.88792e-07
3.35944e-06
3.57096e-06
-3.57558e-07
3.56752e-06
-1.66444e-07
3.57229e-06
2.18637e-08
3.63521e-06
1.00931e-06
3.61485e-06
-4.99904e-07
3.58623e-06
-1.38723e-06
3.53056e-06
-1.44982e-06
3.51421e-06
-9.43082e-07
3.5072e-06
-4.93952e-07
3.52316e-06
-7.90229e-08
3.54353e-06
9.99328e-08
3.56256e-06
7.76438e-08
3.57735e-06
1.93685e-08
3.57916e-06
-1.32122e-07
3.57475e-06
-2.66068e-07
3.56483e-06
-3.12617e-07
3.55183e-06
-3.19009e-07
3.53865e-06
-3.08276e-07
3.53041e-06
-2.41951e-07
-1.80835e-07
3.52245e-06
3.74166e-06
-3.44515e-07
3.73912e-06
-1.63901e-07
3.74321e-06
1.77732e-08
3.8068e-06
9.45718e-07
3.78606e-06
-4.79167e-07
3.75627e-06
-1.35744e-06
3.7013e-06
-1.39486e-06
3.684e-06
-9.25778e-07
3.67816e-06
-4.88112e-07
3.69324e-06
-9.41004e-08
3.71379e-06
7.93771e-08
3.73269e-06
5.87505e-08
3.74723e-06
4.82707e-09
3.74903e-06
-1.33929e-07
3.74425e-06
-2.6128e-07
3.73486e-06
-3.03227e-07
3.72194e-06
-3.06091e-07
3.70888e-06
-2.95213e-07
3.70101e-06
-2.34082e-07
-1.73247e-07
3.69342e-06
3.92064e-06
-3.30964e-07
3.91895e-06
-1.6221e-07
3.92236e-06
1.43571e-08
3.9863e-06
8.81776e-07
3.96552e-06
-4.58381e-07
3.93435e-06
-1.32627e-06
3.88033e-06
-1.34084e-06
3.86203e-06
-9.0747e-07
3.85732e-06
-4.83407e-07
3.87162e-06
-1.08397e-07
3.89211e-06
5.88821e-08
3.91083e-06
4.00337e-08
3.9251e-06
-9.4421e-09
3.92683e-06
-1.35665e-07
3.92174e-06
-2.56187e-07
3.91285e-06
-2.94336e-07
3.90024e-06
-2.93477e-07
3.88723e-06
-2.82207e-07
3.87967e-06
-2.26522e-07
-1.66256e-07
3.87268e-06
4.10828e-06
-3.16994e-07
4.1074e-06
-1.61331e-07
4.11018e-06
1.15767e-08
4.17412e-06
8.17836e-07
4.15362e-06
-4.37883e-07
4.12094e-06
-1.29358e-06
4.06805e-06
-1.28795e-06
4.04868e-06
-8.881e-07
4.04501e-06
-4.79735e-07
4.05863e-06
-1.22014e-07
4.07885e-06
3.86571e-08
4.09734e-06
2.15471e-08
4.11135e-06
-2.34541e-08
4.11294e-06
-1.3726e-07
4.1076e-06
-2.50847e-07
4.09916e-06
-2.85891e-07
4.08702e-06
-2.81343e-07
4.0741e-06
-2.69284e-07
4.06669e-06
-2.19113e-07
-1.60071e-07
4.06051e-06
4.30499e-06
-3.02683e-07
4.30487e-06
-1.61214e-07
4.30713e-06
9.32382e-09
4.37067e-06
7.54297e-07
4.35077e-06
-4.17989e-07
4.31648e-06
-1.25929e-06
4.26488e-06
-1.23635e-06
4.2444e-06
-8.67626e-07
4.2416e-06
-4.76929e-07
4.25465e-06
-1.35062e-07
4.27443e-06
1.8877e-08
4.29261e-06
3.36754e-09
4.30636e-06
-3.7211e-08
4.30781e-06
-1.38702e-07
4.30218e-06
-2.45224e-07
4.29414e-06
-2.77848e-07
4.2826e-06
-2.69801e-07
4.26988e-06
-2.56568e-07
4.26244e-06
-2.11672e-07
-1.54769e-07
4.25714e-06
4.51118e-06
-2.88092e-07
4.51175e-06
-1.61783e-07
4.51366e-06
7.41953e-09
4.57638e-06
6.91578e-07
4.55735e-06
-3.98965e-07
4.52145e-06
-1.22339e-06
4.47126e-06
-1.18615e-06
4.44967e-06
-8.46035e-07
4.44752e-06
-4.7478e-07
4.46011e-06
-1.47656e-07
4.47928e-06
-2.95384e-10
4.49707e-06
-1.44215e-08
4.51055e-06
-5.06932e-08
4.51188e-06
-1.40024e-07
4.50589e-06
-2.39235e-07
4.49813e-06
-2.70089e-07
4.48728e-06
-2.58948e-07
4.47494e-06
-2.4423e-07
4.46733e-06
-2.04065e-07
-1.50284e-07
4.46284e-06
4.72729e-06
-2.73271e-07
4.72844e-06
-1.62926e-07
4.73023e-06
5.63059e-09
4.79171e-06
6.30093e-07
4.77376e-06
-3.81013e-07
4.73631e-06
-1.18595e-06
4.68763e-06
-1.13747e-06
4.66497e-06
-8.23378e-07
4.66324e-06
-4.73046e-07
4.67549e-06
-1.59913e-07
4.69393e-06
-1.8728e-08
4.71121e-06
-3.17088e-08
4.7244e-06
-6.38765e-08
4.72563e-06
-1.41261e-07
4.71926e-06
-2.32858e-07
4.7116e-06
-2.62437e-07
4.70146e-06
-2.48809e-07
4.68968e-06
-2.32449e-07
4.68194e-06
-1.96317e-07
-1.46317e-07
4.67797e-06
4.95379e-06
-2.58268e-07
4.95536e-06
-1.64493e-07
4.95727e-06
3.71967e-09
5.01715e-06
5.70213e-07
5.00041e-06
-3.64269e-07
4.96153e-06
-1.14707e-06
4.91444e-06
-1.09038e-06
4.89083e-06
-7.99767e-07
4.88927e-06
-4.71483e-07
4.90129e-06
-1.71936e-07
4.91889e-06
-3.63286e-08
4.93556e-06
-4.83755e-08
4.94838e-06
-7.66968e-08
4.94962e-06
-1.42502e-07
4.94287e-06
-2.26106e-07
4.93526e-06
-2.54827e-07
4.92578e-06
-2.39334e-07
4.91463e-06
-2.21292e-07
4.90682e-06
-1.88513e-07
-1.42541e-07
4.90305e-06
5.19118e-06
-2.43133e-07
5.193e-06
-1.66314e-07
5.19522e-06
1.50127e-09
5.25321e-06
5.12226e-07
5.23775e-06
-3.48815e-07
5.19762e-06
-1.10694e-06
5.15218e-06
-1.04494e-06
5.12777e-06
-7.75358e-07
5.12618e-06
-4.69885e-07
5.138e-06
-1.83761e-07
5.15474e-06
-5.30685e-08
5.17067e-06
-6.43072e-08
5.18306e-06
-8.90825e-08
5.1844e-06
-1.4384e-07
5.17735e-06
-2.19062e-07
5.16969e-06
-2.47165e-07
5.16082e-06
-2.30468e-07
5.15029e-06
-2.10758e-07
5.14253e-06
-1.80751e-07
-1.38727e-07
5.13871e-06
5.43998e-06
-2.27924e-07
5.44189e-06
-1.6822e-07
5.44451e-06
-1.12182e-09
5.50042e-06
4.5632e-07
5.48629e-06
-3.34692e-07
5.44511e-06
-1.06576e-06
5.40136e-06
-1.00119e-06
5.37634e-06
-7.50336e-07
5.37451e-06
-4.68053e-07
5.38613e-06
-1.95386e-07
5.40204e-06
-6.89728e-08
5.41711e-06
-7.93838e-08
5.42904e-06
-1.01004e-07
5.43049e-06
-1.45295e-07
5.4233e-06
-2.11874e-07
5.4155e-06
-2.39362e-07
5.40718e-06
-2.22144e-07
5.39723e-06
-2.00817e-07
5.38955e-06
-1.73069e-07
-1.34818e-07
5.38564e-06
5.70075e-06
-2.12713e-07
5.70258e-06
-1.70055e-07
5.70562e-06
-4.15973e-09
5.75935e-06
4.02593e-07
5.74656e-06
-3.2191e-07
5.70457e-06
-1.02376e-06
5.66251e-06
-9.59131e-07
5.63708e-06
-7.24901e-07
5.63482e-06
-4.65801e-07
5.64623e-06
-2.06792e-07
5.66132e-06
-8.40651e-08
5.67547e-06
-9.35356e-08
5.68689e-06
-1.12416e-07
5.68848e-06
-1.46884e-07
5.68124e-06
-2.04639e-07
5.67329e-06
-2.31411e-07
5.66542e-06
-2.14277e-07
5.65604e-06
-1.91432e-07
5.64852e-06
-1.65546e-07
-1.30812e-07
5.64451e-06
5.97406e-06
-1.97582e-07
5.9757e-06
-1.71693e-07
5.97907e-06
-7.53384e-09
6.03063e-06
3.51038e-07
6.01913e-06
-3.10411e-07
5.97651e-06
-9.81147e-07
5.93617e-06
-9.18786e-07
5.91057e-06
-6.99303e-07
5.9077e-06
-4.62927e-07
5.91885e-06
-2.17946e-07
5.93316e-06
-9.83742e-08
5.94633e-06
-1.06704e-07
5.9572e-06
-1.23288e-07
5.95895e-06
-1.48631e-07
5.95176e-06
-1.97449e-07
5.94363e-06
-2.23279e-07
5.93616e-06
-2.06815e-07
5.92733e-06
-1.82597e-07
5.91994e-06
-1.58162e-07
-1.26762e-07
5.91589e-06
6.26053e-06
-1.82625e-07
6.26187e-06
-1.73031e-07
6.2655e-06
-1.11594e-08
6.31493e-06
3.01607e-07
6.30462e-06
-3.00103e-07
6.26149e-06
-9.38019e-07
6.2229e-06
-8.80194e-07
6.19741e-06
-6.7381e-07
6.19375e-06
-4.59266e-07
6.20457e-06
-2.28775e-07
6.21812e-06
-1.1192e-07
6.23028e-06
-1.18869e-07
6.24055e-06
-1.33556e-07
6.24255e-06
-1.50625e-07
6.23546e-06
-1.9036e-07
6.22712e-06
-2.14937e-07
6.22e-06
-1.99699e-07
6.21175e-06
-1.74351e-07
6.20447e-06
-1.50875e-07
-1.22705e-07
6.20041e-06
6.56079e-06
-1.67947e-07
6.56175e-06
-1.73986e-07
6.56567e-06
-1.50779e-08
6.61285e-06
2.54425e-07
6.60373e-06
-2.90991e-07
6.56016e-06
-8.94439e-07
6.52325e-06
-8.43286e-07
6.49819e-06
-6.48758e-07
6.49363e-06
-4.54703e-07
6.504e-06
-2.39147e-07
6.5168e-06
-1.24722e-07
6.52795e-06
-1.30013e-07
6.53759e-06
-1.43198e-07
6.53984e-06
-1.52877e-07
6.53295e-06
-1.83469e-07
6.52437e-06
-2.06353e-07
6.51757e-06
-1.929e-07
6.50999e-06
-1.66774e-07
6.50276e-06
-1.43645e-07
-1.18636e-07
6.49869e-06
6.87551e-06
-1.5367e-07
6.87597e-06
-1.74447e-07
6.88039e-06
-1.94904e-08
6.92497e-06
2.09844e-07
6.91714e-06
-2.83164e-07
6.87328e-06
-8.5058e-07
6.83778e-06
-8.07787e-07
6.81353e-06
-6.24505e-07
6.80805e-06
-4.49222e-07
6.8178e-06
-2.48896e-07
6.82984e-06
-1.36762e-07
6.83995e-06
-1.40128e-07
6.84896e-06
-1.52209e-07
6.85143e-06
-1.55344e-07
6.84483e-06
-1.76864e-07
6.83608e-06
-1.97603e-07
6.82948e-06
-1.86307e-07
6.82267e-06
-1.59963e-07
6.81557e-06
-1.3654e-07
-1.1444e-07
6.81137e-06
7.2054e-06
-1.39929e-07
7.20521e-06
-1.7426e-07
7.21041e-06
-2.46905e-08
7.25188e-06
1.68368e-07
7.24548e-06
-2.76757e-07
7.20164e-06
-8.06747e-07
7.16721e-06
-7.73348e-07
7.144e-06
-6.01301e-07
7.1377e-06
-4.42919e-07
7.14668e-06
-2.57873e-07
7.15788e-06
-1.47964e-07
7.16695e-06
-1.49199e-07
7.17529e-06
-1.60551e-07
7.17796e-06
-1.58017e-07
7.17173e-06
-1.70628e-07
7.16294e-06
-1.88814e-07
7.15643e-06
-1.79798e-07
7.15043e-06
-1.53967e-07
7.14357e-06
-1.29679e-07
-1.09991e-07
7.13912e-06
7.55117e-06
-1.26873e-07
7.55016e-06
-1.73246e-07
7.55644e-06
-3.09704e-08
7.5943e-06
1.30502e-07
7.58937e-06
-2.71822e-07
7.54604e-06
-7.63418e-07
7.51231e-06
-7.39619e-07
7.49025e-06
-5.79239e-07
7.48329e-06
-4.3596e-07
7.49134e-06
-2.65928e-07
7.50169e-06
-1.58309e-07
7.50961e-06
-1.5712e-07
7.5172e-06
-1.68144e-07
7.52003e-06
-1.60848e-07
7.51437e-06
-1.64962e-07
7.50562e-06
-1.80063e-07
7.49911e-06
-1.73297e-07
7.49389e-06
-1.4874e-07
7.48748e-06
-1.23274e-07
-1.0521e-07
7.4827e-06
7.91359e-06
-1.14656e-07
7.91156e-06
-1.71216e-07
7.91917e-06
-3.85731e-08
7.95303e-06
9.66367e-08
7.94945e-06
-2.68239e-07
7.90723e-06
-7.21197e-07
7.87395e-06
-7.0634e-07
7.85293e-06
-5.58218e-07
7.8455e-06
-4.28529e-07
7.85256e-06
-2.72984e-07
7.86197e-06
-1.67725e-07
7.86865e-06
-1.638e-07
7.87531e-06
-1.74801e-07
7.87828e-06
-1.63815e-07
7.87333e-06
-1.60018e-07
7.8648e-06
-1.71529e-07
7.85821e-06
-1.66714e-07
7.85366e-06
-1.44188e-07
7.84796e-06
-1.17573e-07
-1.00134e-07
7.84289e-06
8.29346e-06
-1.0343e-07
8.29017e-06
-1.6793e-07
8.29922e-06
-4.76202e-08
8.32909e-06
6.67685e-08
8.32636e-06
-2.65518e-07
8.28598e-06
-6.80816e-07
8.25302e-06
-6.7338e-07
8.23275e-06
-5.37945e-07
8.22501e-06
-4.20793e-07
8.23104e-06
-2.79007e-07
8.23942e-06
-1.76113e-07
8.24482e-06
-1.69194e-07
8.25021e-06
-1.80191e-07
8.25329e-06
-1.66894e-07
8.24923e-06
-1.55963e-07
8.24114e-06
-1.6344e-07
8.23447e-06
-1.60037e-07
8.2304e-06
-1.40123e-07
8.22565e-06
-1.1282e-07
-9.49584e-08
8.22047e-06
8.69156e-06
-9.33267e-08
8.6867e-06
-1.63072e-07
8.69721e-06
-5.81344e-08
8.72352e-06
4.04608e-08
8.72082e-06
-2.62821e-07
8.68287e-06
-6.42858e-07
8.65041e-06
-6.40919e-07
8.63052e-06
-5.18059e-07
8.62246e-06
-4.12731e-07
8.62734e-06
-2.83895e-07
8.63471e-06
-1.83476e-07
8.63868e-06
-1.73167e-07
8.64263e-06
-1.8414e-07
8.64571e-06
-1.69976e-07
8.64273e-06
-1.52978e-07
8.63537e-06
-1.56079e-07
8.62866e-06
-1.53331e-07
8.6248e-06
-1.36263e-07
8.62119e-06
-1.09207e-07
-9.00575e-08
8.61629e-06
9.10873e-06
-8.44357e-08
9.10221e-06
-1.56557e-07
9.11383e-06
-6.9755e-08
9.13753e-06
1.67602e-08
9.13374e-06
-2.59026e-07
9.09839e-06
-6.07512e-07
9.06695e-06
-6.09477e-07
9.04701e-06
-4.98122e-07
9.03829e-06
-4.04005e-07
9.04189e-06
-2.87499e-07
9.04829e-06
-1.89872e-07
9.05098e-06
-1.75864e-07
9.05345e-06
-1.86603e-07
9.05649e-06
-1.7302e-07
9.05463e-06
-1.51118e-07
9.04823e-06
-1.49674e-07
9.04167e-06
-1.4678e-07
9.03779e-06
-1.3238e-07
9.03515e-06
-1.0657e-07
-8.59279e-08
9.03102e-06
9.54582e-06
-7.67981e-08
9.53781e-06
-1.4854e-07
9.54989e-06
-8.18432e-08
9.57225e-06
-5.59367e-09
9.56629e-06
-2.53063e-07
9.53321e-06
-5.74437e-07
9.50333e-06
-5.79595e-07
9.48298e-06
-4.77775e-07
9.47299e-06
-3.94015e-07
9.47528e-06
-2.89786e-07
9.481e-06
-1.95596e-07
9.48293e-06
-1.77787e-07
9.48407e-06
-1.87747e-07
9.48673e-06
-1.75682e-07
9.48597e-06
-1.50353e-07
9.48064e-06
-1.44345e-07
9.47445e-06
-1.40597e-07
9.47044e-06
-1.28362e-07
9.46841e-06
-1.04548e-07
-8.29702e-08
9.46546e-06
1.00037e-05
-7.0398e-08
9.99458e-06
-1.39388e-07
1.00063e-05
-9.36003e-08
1.00283e-05
-2.7561e-08
1.00199e-05
-2.44637e-07
9.98797e-06
-5.42527e-07
9.95989e-06
-5.51517e-07
9.93938e-06
-4.57261e-07
9.92782e-06
-3.8245e-07
9.92881e-06
-2.90782e-07
9.93426e-06
-2.01041e-07
9.93608e-06
-1.79611e-07
9.93597e-06
-1.87636e-07
9.93784e-06
-1.77559e-07
9.93786e-06
-1.50365e-07
9.93362e-06
-1.40104e-07
9.92801e-06
-1.3499e-07
9.92391e-06
-1.24268e-07
9.92203e-06
-1.02668e-07
-8.1224e-08
9.92029e-06
1.04834e-05
-6.51564e-08
1.04736e-05
-1.29577e-07
1.04843e-05
-1.04283e-07
1.05063e-05
-4.96255e-08
1.04958e-05
-2.34101e-07
1.0464e-05
-5.10699e-07
1.04377e-05
-5.2524e-07
1.04177e-05
-4.37281e-07
1.04047e-05
-3.69413e-07
1.04041e-05
-2.9023e-07
1.04095e-05
-2.0644e-07
1.04114e-05
-1.81447e-07
1.04103e-05
-1.86611e-07
1.04112e-05
-1.7843e-07
1.04116e-05
-1.5079e-07
1.04083e-05
-1.36794e-07
1.04033e-05
-1.2997e-07
1.03993e-05
-1.20302e-07
1.03973e-05
-1.00653e-07
-8.02808e-08
1.03964e-05
1.09858e-05
-6.09235e-08
1.09758e-05
-1.19626e-07
1.09849e-05
-1.13381e-07
1.1007e-05
-7.16974e-08
1.09956e-05
-2.22675e-07
1.09631e-05
-4.78187e-07
1.09383e-05
-5.00449e-07
1.09195e-05
-4.18514e-07
1.09053e-05
-3.55198e-07
1.0903e-05
-2.87909e-07
1.09079e-05
-2.11369e-07
1.09098e-05
-1.83395e-07
1.09082e-05
-1.84978e-07
1.09081e-05
-1.78276e-07
1.09085e-05
-1.51216e-07
1.09059e-05
-1.34222e-07
1.09015e-05
-1.2553e-07
1.08977e-05
-1.16543e-07
1.08956e-05
-9.85427e-08
-7.96221e-08
1.08949e-05
1.15119e-05
-5.74773e-08
1.15024e-05
-1.10093e-07
1.15094e-05
-1.2036e-07
1.15312e-05
-9.35148e-08
1.15203e-05
-2.11821e-07
1.14868e-05
-4.4463e-07
1.14627e-05
-4.76393e-07
1.14458e-05
-4.01597e-07
1.1431e-05
-3.40448e-07
1.14267e-05
-2.83539e-07
1.14304e-05
-2.15121e-07
1.14325e-05
-1.85491e-07
1.14306e-05
-1.83078e-07
1.14295e-05
-1.77163e-07
1.14297e-05
-1.51376e-07
1.14276e-05
-1.322e-07
1.14237e-05
-1.21559e-07
1.14202e-05
-1.13029e-07
1.14181e-05
-9.64352e-08
-7.89174e-08
1.14174e-05
1.20629e-05
-5.4546e-08
1.20543e-05
-1.01462e-07
1.20587e-05
-1.248e-07
1.20799e-05
-1.14682e-07
1.20708e-05
-2.028e-07
1.20365e-05
-4.10275e-07
1.20122e-05
-4.52075e-07
1.19974e-05
-3.86814e-07
1.19831e-05
-3.26157e-07
1.19764e-05
-2.76872e-07
1.19784e-05
-2.17076e-07
1.19804e-05
-1.87458e-07
1.19785e-05
-1.81218e-07
1.19766e-05
-1.75286e-07
1.19764e-05
-1.51154e-07
1.19748e-05
-1.30568e-07
1.19712e-05
-1.17974e-07
1.19678e-05
-1.09694e-07
1.19659e-05
-9.44632e-08
-7.80424e-08
1.1965e-05
1.26399e-05
-5.18238e-08
1.26326e-05
-9.42331e-08
1.26343e-05
-1.26489e-07
1.26543e-05
-1.34627e-07
1.2648e-05
-1.96477e-07
1.26136e-05
-3.75924e-07
1.25878e-05
-4.26314e-07
1.2575e-05
-3.73985e-07
1.25621e-05
-3.13244e-07
1.25535e-05
-2.68299e-07
1.25533e-05
-2.16817e-07
1.25546e-05
-1.88772e-07
1.25529e-05
-1.79524e-07
1.25505e-05
-1.72894e-07
1.25498e-05
-1.50477e-07
1.25485e-05
-1.29213e-07
1.25453e-05
-1.14796e-07
1.25419e-05
-1.06353e-07
1.25402e-05
-9.27105e-08
-7.70303e-08
1.25392e-05
1.32441e-05
-4.89818e-08
1.32388e-05
-8.89031e-08
1.32377e-05
-1.25403e-07
1.32558e-05
-1.5278e-07
1.32525e-05
-1.93197e-07
1.32191e-05
-3.42473e-07
1.31913e-05
-3.98532e-07
1.31792e-05
-3.61911e-07
1.31685e-05
-3.02493e-07
1.31591e-05
-2.58885e-07
1.31564e-05
-2.14175e-07
1.31566e-05
-1.88945e-07
1.31549e-05
-1.77858e-07
1.31523e-05
-1.70296e-07
1.31512e-05
-1.49333e-07
1.315e-05
-1.28023e-07
1.31473e-05
-1.12134e-07
1.3144e-05
-1.02962e-07
1.31422e-05
-9.09867e-08
-7.608e-08
1.31413e-05
1.38769e-05
-4.57599e-08
1.38739e-05
-8.58732e-08
1.38702e-05
-1.21702e-07
1.38858e-05
-1.68404e-07
1.38854e-05
-1.92781e-07
1.38539e-05
-3.10959e-07
1.38243e-05
-3.68929e-07
1.38113e-05
-3.4887e-07
1.38029e-05
-2.94113e-07
1.37941e-05
-2.50126e-07
1.37893e-05
-2.09308e-07
1.37879e-05
-1.87624e-07
1.37859e-05
-1.75861e-07
1.37832e-05
-1.6759e-07
1.37817e-05
-1.47826e-07
1.37806e-05
-1.26904e-07
1.37785e-05
-1.09983e-07
1.37752e-05
-9.97518e-08
1.37733e-05
-8.90109e-08
-7.5325e-08
1.37725e-05
1.45399e-05
-4.19977e-08
1.45389e-05
-8.48572e-08
1.4533e-05
-1.15818e-07
1.45456e-05
-1.81043e-07
1.45477e-05
-1.94844e-07
1.45189e-05
-2.8214e-07
1.4488e-05
-3.38087e-07
1.44728e-05
-3.33585e-07
1.44662e-05
-2.87522e-07
1.44592e-05
-2.43143e-07
1.44533e-05
-2.03409e-07
1.44502e-05
-1.84513e-07
1.44475e-05
-1.73213e-07
1.44446e-05
-1.64697e-07
1.44429e-05
-1.46087e-07
1.44417e-05
-1.25708e-07
1.444e-05
-1.08284e-07
1.44372e-05
-9.69066e-08
1.44349e-05
-8.67619e-08
-7.45969e-08
1.44342e-05
1.52345e-05
-3.76249e-08
1.5233e-05
-8.33641e-08
1.52275e-05
-1.10284e-07
1.52374e-05
-1.90912e-07
1.52406e-05
-1.98077e-07
1.52149e-05
-2.56412e-07
1.51839e-05
-3.071e-07
1.51664e-05
-3.16118e-07
1.51599e-05
-2.81006e-07
1.5155e-05
-2.38213e-07
1.51494e-05
-1.97881e-07
1.51446e-05
-1.79694e-07
1.51411e-05
-1.69685e-07
1.51378e-05
-1.61366e-07
1.51359e-05
-1.44197e-07
1.51346e-05
-1.24467e-07
1.51332e-05
-1.06898e-07
1.51309e-05
-9.46021e-08
1.51286e-05
-8.4412e-08
-7.37111e-08
1.51277e-05
1.59627e-05
-3.30427e-08
1.59742e-05
-9.48649e-08
1.59677e-05
-1.03701e-07
1.59647e-05
-1.87908e-07
1.59638e-05
-1.97231e-07
1.59425e-05
-2.35068e-07
1.59131e-05
-2.77705e-07
1.58943e-05
-2.97307e-07
1.58863e-05
-2.72995e-07
1.5883e-05
-2.3493e-07
1.58788e-05
-1.93674e-07
1.58732e-05
-1.7409e-07
1.58685e-05
-1.65009e-07
1.58645e-05
-1.57374e-07
1.58623e-05
-1.41996e-07
1.5861e-05
-1.2316e-07
1.58598e-05
-1.05676e-07
1.58579e-05
-9.27701e-08
1.58558e-05
-8.22353e-08
-7.25564e-08
1.58546e-05
1.67249e-05
-2.73644e-08
1.67205e-05
-9.04341e-08
1.67144e-05
-9.75925e-08
1.67132e-05
-1.8671e-07
1.67186e-05
-2.02648e-07
1.67044e-05
-2.20881e-07
1.66778e-05
-2.511e-07
1.66577e-05
-2.77187e-07
1.66476e-05
-2.62939e-07
1.66445e-05
-2.31833e-07
1.66418e-05
-1.90974e-07
1.66367e-05
-1.68957e-07
1.6631e-05
-1.59346e-07
1.66264e-05
-1.52772e-07
1.66236e-05
-1.39188e-07
1.66223e-05
-1.2188e-07
1.66212e-05
-1.04563e-07
1.66198e-05
-9.1378e-08
1.6618e-05
-8.03965e-08
-7.12201e-08
1.66167e-05
1.75248e-05
-2.1817e-08
1.75289e-05
-9.44792e-08
1.75196e-05
-8.83593e-08
1.75088e-05
-1.75881e-07
1.75094e-05
-2.03222e-07
1.75014e-05
-2.12905e-07
1.7479e-05
-2.28728e-07
1.74584e-05
-2.5655e-07
1.74465e-05
-2.51092e-07
1.74421e-05
-2.27414e-07
1.74407e-05
-1.89554e-07
1.74366e-05
-1.64896e-07
1.74307e-05
-1.53396e-07
1.74253e-05
-1.47405e-07
1.74218e-05
-1.35654e-07
1.74201e-05
-1.2024e-07
1.74192e-05
-1.03566e-07
1.7418e-05
-9.01922e-08
1.74166e-05
-7.89831e-08
-6.98222e-08
1.74152e-05
1.83628e-05
-1.62947e-08
1.83599e-05