/*--------------------------------*- C++ -*----------------------------------*\
| =========                 |                                                 |
| \\      /  F ield         | OpenFOAM: The Open Source CFD Toolbox           |
|  \\    /   O peration     | Version:  v1812                                 |
|   \\  /    A nd           | Web:      www.OpenFOAM.com                      |
|    \\/     M anipulation  |                                                 |
\*---------------------------------------------------------------------------*/
FoamFile
{
    version     2.0;
    format      ascii;
    class       volVectorField;
    location    "9";
    object      U;
}
// * * * * * * * * * * * * * * * * * * * * * * * * * * * * * * * * * * * * * //

dimensions      [0 1 -1 0 0 0 0];


internalField   nonuniform List<vector> 
9600
(
(0.731507 -0.0067637 0)
(1.22088 0.00335691 0)
(0.904512 0.00279803 0)
(1.13072 0.0222534 0)
(0.846577 -0.0192055 0)
(1.08101 -0.0312824 0)
(0.961 -0.0320886 0)
(1.14141 -0.00733459 0)
(1.02143 -0.000281502 0)
(1.11346 0.0172301 0)
(1.00519 0.0126671 0)
(1.10398 0.0085199 0)
(1.01873 -0.00556021 0)
(1.10372 -0.0158291 0)
(0.99435 -0.0264561 0)
(1.07584 -0.0284241 0)
(0.954999 -0.0258586 0)
(1.07779 -0.0331624 0)
(0.913829 -0.013601 0)
(1.10499 -0.034135 0)
(0.755143 -0.00657812 0)
(1.20462 0.00238044 0)
(0.928105 0.00321732 0)
(1.115 0.0228576 0)
(0.904653 -0.0187054 0)
(1.02841 -0.03254 0)
(0.96036 -0.0332622 0)
(1.1191 -0.00803918 0)
(1.03577 -0.000127355 0)
(1.09622 0.0175174 0)
(1.03396 0.0128183 0)
(1.08115 0.00837736 0)
(1.06362 -0.00553805 0)
(1.06758 -0.0152845 0)
(1.04513 -0.0253914 0)
(1.01942 -0.0275502 0)
(1.01457 -0.0253675 0)
(0.993645 -0.0328776 0)
(1.0014 -0.0129722 0)
(0.989178 -0.0360243 0)
(0.794981 -0.0064293 0)
(1.16895 0.00127367 0)
(0.965908 0.00381168 0)
(1.09243 0.0232433 0)
(0.94253 -0.0178691 0)
(0.987364 -0.0327191 0)
(0.962776 -0.0341343 0)
(1.08335 -0.00889307 0)
(1.04943 0.000121964 0)
(1.07641 0.0175927 0)
(1.0569 0.0129923 0)
(1.07841 0.00789235 0)
(1.0779 -0.00523591 0)
(1.06828 -0.0149387 0)
(1.04697 -0.0243351 0)
(1.01961 -0.0269098 0)
(1.00831 -0.0248846 0)
(0.992913 -0.0318766 0)
(0.994595 -0.0147834 0)
(0.993486 -0.030854 0)
(0.843515 -0.00627284 0)
(1.12122 0.00020798 0)
(1.00131 0.00424189 0)
(1.06886 0.0235213 0)
(0.970425 -0.016881 0)
(0.96204 -0.032888 0)
(0.960047 -0.0351317 0)
(1.04589 -0.00993878 0)
(1.051 0.000100909 0)
(1.06372 0.0173482 0)
(1.06941 0.0128474 0)
(1.0851 0.00755888 0)
(1.08703 -0.00496835 0)
(1.07331 -0.0143155 0)
(1.04963 -0.0231658 0)
(1.02194 -0.0260254 0)
(1.00668 -0.0239863 0)
(0.991272 -0.0316756 0)
(0.989796 -0.0145178 0)
(0.987192 -0.0294621 0)
(0.891938 -0.00607642 0)
(1.07355 -0.000814198 0)
(1.02344 0.00448561 0)
(1.04896 0.0238177 0)
(0.9879 -0.015794 0)
(0.953381 -0.0326558 0)
(0.953801 -0.0358953 0)
(1.0148 -0.0110409 0)
(1.04196 -0.00029676 0)
(1.05673 0.0168722 0)
(1.07678 0.0124485 0)
(1.09347 0.00723145 0)
(1.09459 -0.00461143 0)
(1.07718 -0.0135711 0)
(1.05152 -0.0218704 0)
(1.0228 -0.0250265 0)
(1.00686 -0.0231327 0)
(0.989978 -0.0309731 0)
(0.987188 -0.0145847 0)
(0.98367 -0.02807 0)
(0.932928 -0.00586308 0)
(1.03571 -0.00168106 0)
(1.03039 0.00456388 0)
(1.03461 0.0241418 0)
(0.999449 -0.0148198 0)
(0.956044 -0.0322613 0)
(0.948813 -0.0364355 0)
(0.992664 -0.0121397 0)
(1.02936 -0.00101723 0)
(1.05249 0.0161255 0)
(1.0824 0.0118161 0)
(1.10083 0.00685871 0)
(1.10002 -0.00414657 0)
(1.07914 -0.0126835 0)
(1.05175 -0.0204556 0)
(1.02319 -0.0239529 0)
(1.00672 -0.0221942 0)
(0.989946 -0.0301449 0)
(0.98505 -0.0147757 0)
(0.982057 -0.0265514 0)
(0.962729 -0.00565972 0)
(1.01147 -0.00232154 0)
(1.02612 0.00449612 0)
(1.02611 0.0243805 0)
(1.00828 -0.0139675 0)
(0.964082 -0.0316953 0)
(0.947815 -0.0366929 0)
(0.9794 -0.0131967 0)
(1.01896 -0.00197419 0)
(1.05067 0.0150411 0)
(1.08751 0.0109853 0)
(1.10622 0.0064809 0)
(1.10244 -0.00353461 0)
(1.07841 -0.0116569 0)
(1.04999 -0.0189533 0)
(1.02266 -0.0228315 0)
(1.00634 -0.0212547 0)
(0.990279 -0.0291792 0)
(0.983661 -0.0149689 0)
(0.980922 -0.0249652 0)
(0.981353 -0.00548458 0)
(0.999057 -0.00273141 0)
(1.0165 0.00431087 0)
(1.02279 0.0244595 0)
(1.01614 -0.0132469 0)
(0.973772 -0.03105 0)
(0.950517 -0.0367399 0)
(0.973871 -0.0142045 0)
(1.0133 -0.00311898 0)
(1.05164 0.0136448 0)
(1.09196 0.0100439 0)
(1.10861 0.00616933 0)
(1.10116 -0.00275412 0)
(1.0747 -0.0105022 0)
(1.04638 -0.0174222 0)
(1.02113 -0.0217102 0)
(1.00581 -0.0203388 0)
(0.990684 -0.0281028 0)
(0.983011 -0.0151399 0)
(0.979998 -0.023386 0)
(0.991329 -0.00534173 0)
(0.99406 -0.00294471 0)
(1.00643 0.00404097 0)
(1.02325 0.0243428 0)
(1.02335 -0.0126088 0)
(0.983392 -0.0303436 0)
(0.955298 -0.0366297 0)
(0.973908 -0.015169 0)
(1.01181 -0.00441162 0)
(1.05422 0.0120386 0)
(1.0942 0.00910144 0)
(1.10673 0.00597706 0)
(1.09563 -0.0018101 0)
(1.06808 -0.0092614 0)
(1.04109 -0.0159216 0)
(1.01866 -0.0206196 0)
(1.00496 -0.0194779 0)
(0.991082 -0.0269444 0)
(0.98287 -0.0152784 0)
(0.979395 -0.0218217 0)
(0.995949 -0.00522087 0)
(0.99246 -0.00302004 0)
(0.998519 0.00370201 0)
(1.0255 0.0240353 0)
(1.02934 -0.0120183 0)
(0.992145 -0.0295933 0)
(0.960801 -0.036401 0)
(0.976603 -0.0161137 0)
(1.01195 -0.00577247 0)
(1.05558 0.010336 0)
(1.09198 0.00826621 0)
(1.09957 0.00594946 0)
(1.08576 -0.000736737 0)
(1.05905 -0.00799936 0)
(1.03457 -0.0145107 0)
(1.01545 -0.0195882 0)
(1.00374 -0.0187193 0)
(0.991376 -0.0257356 0)
(0.983077 -0.0153669 0)
(0.979202 -0.0202769 0)
(0.997924 -0.00510922 0)
(0.991989 -0.00300724 0)
(0.993372 0.00330397 0)
(1.02739 0.0235652 0)
(1.03332 -0.0114616 0)
(0.999455 -0.0288072 0)
(0.966363 -0.0360638 0)
(0.979308 -0.0169988 0)
(1.01081 -0.00712423 0)
(1.05267 0.00864814 0)
(1.08366 0.0076044 0)
(1.08698 0.00607663 0)
(1.07226 0.000388098 0)
(1.04845 -0.00679891 0)
(1.02752 -0.0132473 0)
(1.01182 -0.0186417 0)
(1.00223 -0.0180874 0)
(0.991461 -0.024509 0)
(0.983486 -0.0153983 0)
(0.979409 -0.0187901 0)
(0.99888 -0.00499892 0)
(0.991872 -0.002945 0)
(0.990559 0.00286787 0)
(1.02729 0.0229766 0)
(1.03488 -0.0109453 0)
(1.00488 -0.0280141 0)
(0.971724 -0.0356048 0)
(0.980559 -0.0177816 0)
(1.00673 -0.0083761 0)
(1.04396 0.00707765 0)
(1.06924 0.00712516 0)
(1.07008 0.00629406 0)
(1.05665 0.00145029 0)
(1.03737 -0.00574692 0)
(1.02068 -0.0121782 0)
(1.00814 -0.0177978 0)
(1.00059 -0.0175781 0)
(0.991317 -0.0233127 0)
(0.983946 -0.0153784 0)
(0.979907 -0.0174126 0)
(0.999534 -0.0048883 0)
(0.991981 -0.00285894 0)
(0.989419 0.00242866 0)
(1.02477 0.0223162 0)
(1.0343 -0.0104827 0)
(1.0083 -0.0272522 0)
(0.976681 -0.0350271 0)
(0.980291 -0.018405 0)
(1.00002 -0.00942545 0)
(1.03038 0.00569179 0)
(1.05076 0.00678973 0)
(1.05123 0.00650031 0)
(1.04095 0.00233679 0)
(1.02699 -0.00491177 0)
(1.01469 -0.01133 0)
(1.00481 -0.0170541 0)
(0.998991 -0.017178 0)
(0.991005 -0.0221861 0)
(0.984334 -0.01531 0)
(0.980523 -0.0161808 0)
(1.0001 -0.00478017 0)
(0.992276 -0.00275935 0)
(0.989322 0.00202443 0)
(1.02059 0.0216244 0)
(1.03237 -0.0100852 0)
(1.01002 -0.0265538 0)
(0.980965 -0.0343511 0)
(0.979315 -0.0188149 0)
(0.992441 -0.0102109 0)
(1.01489 0.00451356 0)
(1.03159 0.00653176 0)
(1.03328 0.00660169 0)
(1.0271 0.00298112 0)
(1.01825 -0.00431882 0)
(1.00992 -0.0106981 0)
(1.00211 -0.0163992 0)
(0.997591 -0.0168637 0)
(0.990629 -0.0211388 0)
(0.984602 -0.0151957 0)
(0.981097 -0.0151125 0)
(1.0006 -0.00467685 0)
(0.992679 -0.00265276 0)
(0.98972 0.00167779 0)
(1.01601 0.0209258 0)
(1.02995 -0.00974878 0)
(1.0106 -0.025935 0)
(0.984342 -0.0336021 0)
(0.978491 -0.01903 0)
(0.985884 -0.0107198 0)
(1.00081 0.00353285 0)
(1.01496 0.00629365 0)
(1.01849 0.00655187 0)
(1.01629 0.00336413 0)
(1.0116 -0.00394935 0)
(1.00641 -0.0102521 0)
(1.00013 -0.0158153 0)
(0.996475 -0.016598 0)
(0.990279 -0.0201748 0)
(0.984773 -0.0150195 0)
(0.981546 -0.014214 0)
(1.001 -0.00457737 0)
(0.993121 -0.00254637 0)
(0.99022 0.00139008 0)
(1.01199 0.0202277 0)
(1.02763 -0.00946018 0)
(1.01056 -0.0253878 0)
(0.986756 -0.0328087 0)
(0.978208 -0.0190944 0)
(0.981338 -0.0109839 0)
(0.99022 0.00272018 0)
(1.00259 0.0060408 0)
(1.00781 0.0063429 0)
(1.00873 0.00350693 0)
(1.00698 -0.00375094 0)
(1.004 -0.0099523 0)
(0.998772 -0.0152783 0)
(0.995661 -0.0163442 0)
(0.990012 -0.0192899 0)
(0.984905 -0.0147797 0)
(0.981874 -0.0134735 0)
(1.00129 -0.00448123 0)
(0.993563 -0.0024427 0)
(0.990642 0.00115517 0)
(1.00894 0.019528 0)
(1.02563 -0.00920281 0)
(1.01028 -0.0248953 0)
(0.988346 -0.0319804 0)
(0.9784 -0.0190505 0)
(0.978736 -0.0110649 0)
(0.983402 0.00203575 0)
(0.9945 0.00576116 0)
(1.00091 0.00601441 0)
(1.00391 0.0034662 0)
(1.00398 -0.00366255 0)
(1.0024 -0.00975169 0)
(0.997892 -0.014772 0)
(0.99511 -0.0160727 0)
(0.989851 -0.0184723 0)
(0.985053 -0.0144874 0)
(0.98214 -0.0128576 0)
(1.00146 -0.00438768 0)
(0.993979 -0.00234228 0)
(0.990967 0.000965483 0)
(1.0068 0.0188214 0)
(1.02396 -0.00896212 0)
(1.00994 -0.0244412 0)
(0.989346 -0.0311205 0)
(0.978838 -0.0189343 0)
(0.977484 -0.0110197 0)
(0.97952 0.00144762 0)
(0.989687 0.00545161 0)
(0.996797 0.00561027 0)
(1.001 0.00329865 0)
(1.0021 -0.00364361 0)
(1.00137 -0.00960761 0)
(0.997335 -0.0142877 0)
(0.994765 -0.0157684 0)
(0.989795 -0.0177152 0)
(0.985244 -0.0141412 0)
(0.982398 -0.0123248 0)
(1.00151 -0.00429542 0)
(0.994347 -0.0022445 0)
(0.991247 0.000812122 0)
(1.00538 0.0181041 0)
(1.02255 -0.00872904 0)
(1.00959 -0.0240109 0)
(0.98997 -0.0302362 0)
(0.979355 -0.0187726 0)
(0.977001 -0.0108941 0)
(0.977515 0.000925112 0)
(0.986985 0.00511477 0)
(0.994453 0.00515908 0)
(0.999292 0.00304135 0)
(1.00093 -0.00366016 0)
(1.0007 -0.00949374 0)
(0.99699 -0.0138237 0)
(0.994566 -0.0154278 0)
(0.989833 -0.0170025 0)
(0.985486 -0.0137598 0)
(0.982682 -0.0118392 0)
(1.00146 -0.00420172 0)
(0.994651 -0.00215301 0)
(0.99152 0.000688302 0)
(1.00449 0.0173718 0)
(1.02134 -0.00849496 0)
(1.00923 -0.0235957 0)
(0.990369 -0.0293321 0)
(0.979888 -0.0185788 0)
(0.976938 -0.0107242 0)
(0.97661 0.000449065 0)
(0.985552 0.0047518 0)
(0.99318 0.00468204 0)
(0.9983 0.00271842 0)
(1.00019 -0.00369444 0)
(1.00026 -0.00939363 0)
(0.996782 -0.013377 0)
(0.994468 -0.0150469 0)
(0.989946 -0.0163396 0)
(0.985775 -0.0133547 0)
(0.983003 -0.0113746 0)
(1.00133 -0.00410447 0)
(0.994888 -0.00207039 0)
(0.991795 0.000585367 0)
(1.00398 0.0166238 0)
(1.02028 -0.0082548 0)
(1.00888 -0.0231879 0)
(0.990635 -0.0284113 0)
(0.980433 -0.0183599 0)
(0.977137 -0.0105357 0)
(0.976368 5.07462e-06 0)
(0.984891 0.00436358 0)
(0.992558 0.00419253 0)
(0.997736 0.00236015 0)
(0.999698 -0.00374223 0)
(0.999944 -0.00929787 0)
(0.996657 -0.0129395 0)
(0.99443 -0.0146346 0)
(0.990117 -0.0157126 0)
(0.986105 -0.0129382 0)
(0.98336 -0.0109269 0)
(1.00117 -0.00400271 0)
(0.995069 -0.001996 0)
(0.992068 0.000497143 0)
(1.00371 0.0158585 0)
(1.01932 -0.0080058 0)
(1.00853 -0.0227824 0)
(0.990829 -0.0274808 0)
(0.980996 -0.0181194 0)
(0.97753 -0.0103436 0)
(0.976543 -0.000410192 0)
(0.984718 0.00394598 0)
(0.992335 0.00370024 0)
(0.997422 0.00197023 0)
(0.999338 -0.00379947 0)
(0.999688 -0.00919844 0)
(0.996574 -0.0125234 0)
(0.994425 -0.0141811 0)
(0.990326 -0.0151045 0)
(0.986468 -0.0125252 0)
(0.983745 -0.0104968 0)
(1.00101 -0.00389454 0)
(0.995208 -0.00193218 0)
(0.992335 0.000420086 0)
(1.00358 0.0150767 0)
(1.01843 -0.00774452 0)
(1.00817 -0.0223723 0)
(0.99099 -0.0265452 0)
(0.981571 -0.0178603 0)
(0.978071 -0.0101598 0)
(0.976976 -0.000803733 0)
(0.984841 0.00350117 0)
(0.992332 0.00320773 0)
(0.997237 0.00155616 0)
(0.999032 -0.00386038 0)
(0.999446 -0.00908905 0)
(0.996505 -0.0121268 0)
(0.99443 -0.0136971 0)
(0.990556 -0.0145141 0)
(0.986855 -0.0121081 0)
(0.984154 -0.0100771 0)
(1.00087 -0.00377912 0)
(0.995323 -0.00188047 0)
(0.992599 0.000353202 0)
(1.00347 0.0142788 0)
(1.01758 -0.00747204 0)
(1.00778 -0.0219525 0)
(0.991143 -0.0256085 0)
(0.982148 -0.0175869 0)
(0.978719 -0.0099886 0)
(0.977548 -0.00117976 0)
(0.985124 0.00304274 0)
(0.992429 0.0027129 0)
(0.997102 0.00114099 0)
(0.99873 -0.00392099 0)
(0.999195 -0.00896706 0)
(0.996432 -0.0117388 0)
(0.994434 -0.0132106 0)
(0.990795 -0.0139344 0)
(0.987262 -0.0116981 0)
(0.984578 -0.00965407 0)
(1.00076 -0.00365665 0)
(0.995432 -0.00183951 0)
(0.99287 0.000293748 0)
(1.00334 0.013467 0)
(1.01676 -0.00718968 0)
(1.00738 -0.0215204 0)
(0.991304 -0.024676 0)
(0.982714 -0.0172986 0)
(0.979435 -0.0098404 0)
(0.978182 -0.00153183 0)
(0.985478 0.00256849 0)
(0.99255 0.00222513 0)
(0.996976 0.00073125 0)
(0.99841 -0.00398288 0)
(0.998927 -0.00883686 0)
(0.99635 -0.0113683 0)
(0.99443 -0.0127063 0)
(0.991032 -0.0133776 0)
(0.987683 -0.0113094 0)
(0.985011 -0.00922681 0)
(1.00068 -0.00352826 0)
(0.995549 -0.00180678 0)
(0.993156 0.000239561 0)
(1.00316 0.0126453 0)
(1.01597 -0.00690013 0)
(1.00697 -0.0210708 0)
(0.991483 -0.0237523 0)
(0.983262 -0.0169906 0)
(0.980186 -0.00971716 0)
(0.978829 -0.00186578 0)
(0.985852 0.00208461 0)
(0.992661 0.00174396 0)
(0.996839 0.000331054 0)
(0.998067 -0.00404084 0)
(0.998642 -0.00869764 0)
(0.99626 -0.0110236 0)
(0.99442 -0.0121869 0)
(0.991259 -0.0128305 0)
(0.988116 -0.0109488 0)
(0.98545 -0.00881265 0)
(1.00061 -0.00339411 0)
(0.995688 -0.00178362 0)
(0.99346 0.000195617 0)
(1.00292 0.0118176 0)
(1.01521 -0.00660937 0)
(1.00657 -0.0205991 0)
(0.991684 -0.0228438 0)
(0.983796 -0.0166646 0)
(0.980945 -0.00961383 0)
(0.979466 -0.00218175 0)
(0.986216 0.00160518 0)
(0.99275 0.00125832 0)
(0.996691 -6.38332e-05 0)
(0.997703 -0.00409137 0)
(0.998345 -0.00854266 0)
(0.996167 -0.0107035 0)
(0.994408 -0.0116765 0)
(0.991469 -0.0122694 0)
(0.988553 -0.0106198 0)
(0.985896 -0.00843884 0)
(1.00055 -0.00325556 0)
(0.995853 -0.00177062 0)
(0.993784 0.000161187 0)
(1.00265 0.0109894 0)
(1.01447 -0.00631992 0)
(1.00617 -0.020105 0)
(0.991913 -0.0219527 0)
(0.984322 -0.0163241 0)
(0.981693 -0.00952889 0)
(0.980082 -0.00248161 0)
(0.986555 0.00112986 0)
(0.992815 0.000779212 0)
(0.996533 -0.000451372 0)
(0.997327 -0.00413598 0)
(0.998038 -0.00837334 0)
(0.996072 -0.0104048 0)
(0.9944 -0.0111854 0)
(0.991658 -0.0117025 0)
(0.988986 -0.0102957 0)
(0.986352 -0.0081242 0)
(1.00049 -0.00311329 0)
(0.99604 -0.00176595 0)
(0.994121 0.000132362 0)
(1.00236 0.0101625 0)
(1.01374 -0.00603815 0)
(1.00579 -0.0195886 0)
(0.992167 -0.0210788 0)
(0.984855 -0.0159645 0)
(0.982418 -0.00946451 0)
(0.980677 -0.00276898 0)
(0.986862 0.000660703 0)
(0.992856 0.00031245 0)
(0.996369 -0.000834399 0)
(0.996944 -0.00417661 0)
(0.997723 -0.0081898 0)
(0.995976 -0.0101199 0)
(0.994401 -0.0107234 0)
(0.991825 -0.0111503 0)
(0.989404 -0.00995566 0)
(0.986815 -0.00786529 0)
(1.00043 -0.00296703 0)
(0.99624 -0.00176945 0)
(0.994466 0.000106438 0)
(1.00207 0.00934579 0)
(1.01301 -0.0057674 0)
(1.00543 -0.0190482 0)
(0.992443 -0.0202264 0)
(0.985401 -0.0155822 0)
(0.983122 -0.009419 0)
(0.981257 -0.00304433 0)
(0.987139 0.000205842 0)
(0.992879 -0.000149911 0)
(0.996204 -0.00121292 0)
(0.996562 -0.00421176 0)
(0.997402 -0.00799287 0)
(0.995877 -0.00983883 0)
(0.994413 -0.0102998 0)
(0.991975 -0.010616 0)
(0.989802 -0.00960523 0)
(0.987283 -0.00764674 0)
(1.00035 -0.00281882 0)
(0.99644 -0.00177802 0)
(0.99481 8.3718e-05 0)
(1.0018 0.008544 0)
(1.01228 -0.00550788 0)
(1.00508 -0.0184834 0)
(0.992734 -0.019397 0)
(0.985964 -0.0151807 0)
(0.983812 -0.00938405 0)
(0.98183 -0.00331256 0)
(0.987395 -0.000237967 0)
(0.992891 -0.000601975 0)
(0.996044 -0.00158575 0)
(0.996187 -0.0042473 0)
(0.997078 -0.00778485 0)
(0.995776 -0.00955481 0)
(0.994436 -0.00989891 0)
(0.992112 -0.0101055 0)
(0.990174 -0.00924624 0)
(0.987751 -0.00744594 0)
(1.00029 -0.00266897 0)
(0.996633 -0.00179324 0)
(0.995147 6.1127e-05 0)
(1.00155 0.00775755 0)
(1.01153 -0.00526326 0)
(1.00474 -0.017897 0)
(0.993034 -0.0185944 0)
(0.986542 -0.0147581 0)
(0.984498 -0.00935904 0)
(0.982407 -0.00357137 0)
(0.987643 -0.000658021 0)
(0.992903 -0.00103472 0)
(0.995897 -0.00195186 0)
(0.995828 -0.00428254 0)
(0.996756 -0.00756143 0)
(0.995676 -0.00927519 0)
(0.99447 -0.00950889 0)
(0.99224 -0.00961647 0)
(0.99052 -0.00888447 0)
(0.988214 -0.00725352 0)
(1.00022 -0.00251676 0)
(0.996815 -0.00181352 0)
(0.995474 3.29492e-05 0)
(1.00134 0.00699657 0)
(1.01077 -0.00503587 0)
(1.0044 -0.0172941 0)
(0.993339 -0.0178212 0)
(0.987127 -0.014315 0)
(0.985187 -0.00933318 0)
(0.982997 -0.00382374 0)
(0.987893 -0.00104991 0)
(0.992921 -0.00144892 0)
(0.995769 -0.00230645 0)
(0.995495 -0.00432164 0)
(0.996438 -0.00732881 0)
(0.995578 -0.00899784 0)
(0.994517 -0.00914485 0)
(0.992363 -0.00914469 0)
(0.990837 -0.00852284 0)
(0.988667 -0.00706987 0)
(1.00017 -0.00236459 0)
(0.996985 -0.00183168 0)
(0.995791 3.31472e-07 0)
(1.00114 0.00626163 0)
(1.01001 -0.00482588 0)
(1.00406 -0.016672 0)
(0.993646 -0.0170749 0)
(0.987714 -0.0138574 0)
(0.98588 -0.00930027 0)
(0.983601 -0.00408153 0)
(0.988151 -0.0014293 0)
(0.992948 -0.00184312 0)
(0.995664 -0.00265212 0)
(0.995192 -0.00437137 0)
(0.996128 -0.00709145 0)
(0.995482 -0.00871906 0)
(0.994578 -0.00880369 0)
(0.992487 -0.00870311 0)
(0.991127 -0.00815788 0)
(0.989103 -0.00688457 0)
(1.00012 -0.00221128 0)
(0.997148 -0.0018512 0)
(0.996099 -3.39212e-05 0)
(1.00097 0.00554799 0)
(1.00924 -0.00463345 0)
(1.00372 -0.016033 0)
(0.993953 -0.0163574 0)
(0.988294 -0.0133899 0)
(0.986573 -0.00926101 0)
(0.984218 -0.00434033 0)
(0.988421 -0.00179403 0)
(0.992985 -0.00221379 0)
(0.995583 -0.00297738 0)
(0.994925 -0.00442312 0)
(0.995829 -0.00685569 0)
(0.995388 -0.00843553 0)
(0.994652 -0.00848231 0)
(0.992616 -0.00828979 0)
(0.991394 -0.00779717 0)
(0.989516 -0.00668798 0)
(1.00008 -0.0020584 0)
(0.997307 -0.00186877 0)
(0.996398 -7.21851e-05 0)
(1.00082 0.00486179 0)
(1.00849 -0.00445802 0)
(1.00338 -0.0153839 0)
(0.994262 -0.0156756 0)
(0.988864 -0.0129185 0)
(0.987263 -0.00920562 0)
(0.984845 -0.00459243 0)
(0.988701 -0.00214609 0)
(0.993031 -0.00255856 0)
(0.995524 -0.00327809 0)
(0.994693 -0.00447563 0)
(0.995545 -0.00662521 0)
(0.995295 -0.00814264 0)
(0.994739 -0.00818249 0)
(0.992754 -0.00789636 0)
(0.99164 -0.007445 0)
(0.989904 -0.00648178 0)
(1.00005 -0.00190781 0)
(0.997465 -0.00188382 0)
(0.996689 -0.000114707 0)
(1.00068 0.00421074 0)
(1.00775 -0.00429967 0)
(1.00304 -0.0147266 0)
(0.994571 -0.015029 0)
(0.989422 -0.0124518 0)
(0.987942 -0.0091298 0)
(0.985476 -0.00483086 0)
(0.98899 -0.00247955 0)
(0.993084 -0.002884 0)
(0.995487 -0.00356428 0)
(0.994497 -0.0045296 0)
(0.995277 -0.00639236 0)
(0.995202 -0.00784815 0)
(0.994835 -0.00789646 0)
(0.992903 -0.00752902 0)
(0.991869 -0.0071038 0)
(0.990264 -0.00626446 0)
(1.00001 -0.00175796 0)
(0.997624 -0.00189795 0)
(0.996972 -0.000157963 0)
(1.00056 0.00358335 0)
(1.00702 -0.00416097 0)
(1.0027 -0.0140577 0)
(0.99488 -0.0144104 0)
(0.989969 -0.0119974 0)
(0.988609 -0.00903737 0)
(0.986108 -0.00505594 0)
(0.989286 -0.00279355 0)
(0.993143 -0.00319077 0)
(0.99547 -0.00383849 0)
(0.99434 -0.00458365 0)
(0.995028 -0.00615945 0)
(0.995105 -0.00754967 0)
(0.994939 -0.00762611 0)
(0.993062 -0.00718998 0)
(0.992085 -0.00677377 0)
(0.990601 -0.00605139 0)
(0.999979 -0.00161253 0)
(0.997784 -0.00190576 0)
(0.997245 -0.000205494 0)
(1.00044 0.00298554 0)
(1.00633 -0.00403988 0)
(1.00237 -0.013376 0)
(0.995189 -0.0138133 0)
(0.990505 -0.0115574 0)
(0.989259 -0.00892738 0)
(0.986737 -0.00526933 0)
(0.989587 -0.00309091 0)
(0.993204 -0.0034752 0)
(0.995474 -0.00410075 0)
(0.994225 -0.00464502 0)
(0.994802 -0.00593299 0)
(0.995004 -0.00724806 0)
(0.995046 -0.00737237 0)
(0.993235 -0.00687725 0)
(0.992288 -0.0064367 0)
(0.990916 -0.00584473 0)
(0.999948 -0.00147105 0)
(0.997945 -0.0019091 0)
(0.997509 -0.000260907 0)
(1.00033 0.0024291 0)
(1.00566 -0.00394809 0)
(1.00205 -0.0126865 0)
(0.995494 -0.0132295 0)
(0.99103 -0.011139 0)
(0.989892 -0.00880364 0)
(0.98736 -0.00546284 0)
(0.989893 -0.00336723 0)
(0.993266 -0.00372817 0)
(0.995496 -0.00434816 0)
(0.994154 -0.00471381 0)
(0.994604 -0.00571422 0)
(0.994898 -0.00694192 0)
(0.995154 -0.00713163 0)
(0.993427 -0.00660415 0)
(0.992482 -0.00609823 0)
(0.991205 -0.00562317 0)
(0.99992 -0.00133626 0)
(0.998106 -0.00190499 0)
(0.997764 -0.000325738 0)
(1.00023 0.00191358 0)
(1.00503 -0.00388492 0)
(1.00174 -0.0120025 0)
(0.995792 -0.0126518 0)
(0.991544 -0.0107473 0)
(0.990508 -0.00867579 0)
(0.987979 -0.00563261 0)
(0.990205 -0.0036119 0)
(0.993329 -0.00394747 0)
(0.995534 -0.00457926 0)
(0.994129 -0.00479155 0)
(0.994439 -0.00550455 0)
(0.994787 -0.00662515 0)
(0.995256 -0.00689404 0)
(0.993641 -0.00637264 0)
(0.992678 -0.00578081 0)
(0.991466 -0.00538081 0)
(0.999893 -0.00120949 0)
(0.998266 -0.00188897 0)
(0.99801 -0.000408887 0)
(1.00014 0.0014481 0)
(1.00443 -0.00383724 0)
(1.00144 -0.0113441 0)
(0.996083 -0.0120718 0)
(0.992045 -0.0103695 0)
(0.991107 -0.00854672 0)
(0.988594 -0.0057839 0)
(0.990524 -0.00383035 0)
(0.993389 -0.00413501 0)
(0.995584 -0.00479314 0)
(0.994152 -0.00489094 0)
(0.994315 -0.00531785 0)
(0.994673 -0.00630248 0)
(0.995345 -0.00665424 0)
(0.993874 -0.00618322 0)
(0.992888 -0.00549485 0)
(0.991703 -0.00512304 0)
(0.999869 -0.00108952 0)
(0.998423 -0.00186455 0)
(0.998247 -0.000508321 0)
(1.00005 0.00104194 0)
(1.00387 -0.00380589 0)
(1.00116 -0.0107197 0)
(0.996366 -0.0114962 0)
(0.992532 -0.00999354 0)
(0.991688 -0.00841259 0)
(0.989208 -0.00592233 0)
(0.990854 -0.00402612 0)
(0.99345 -0.00428519 0)
(0.995641 -0.00497789 0)
(0.994223 -0.00500324 0)
(0.994242 -0.00516351 0)
(0.994562 -0.00598993 0)
(0.995413 -0.00640306 0)
(0.994123 -0.00603249 0)
(0.993122 -0.00525614 0)
(0.991923 -0.00485732 0)
(0.999846 -0.00098254 0)
(0.998575 -0.00182163 0)
(0.998478 -0.000625363 0)
(0.999981 0.000685677 0)
(1.00333 -0.00377168 0)
(1.0009 -0.010133 0)
(0.996642 -0.0109289 0)
(0.993003 -0.00961704 0)
(0.992249 -0.00827439 0)
(0.989819 -0.00604997 0)
(0.991201 -0.00419846 0)
(0.993514 -0.00439556 0)
(0.995701 -0.00511561 0)
(0.994337 -0.00511129 0)
(0.994221 -0.00504677 0)
(0.994464 -0.00569623 0)
(0.995456 -0.0061349 0)
(0.994376 -0.00588962 0)
(0.993394 -0.0050746 0)
(0.992139 -0.00458879 0)
(0.999825 -0.000886793 0)
(0.998721 -0.00175827 0)
(0.998701 -0.00076545 0)
(0.999919 0.000363376 0)
(1.00283 -0.00372006 0)
(1.00066 -0.00959695 0)
(0.996912 -0.0103861 0)
(0.993457 -0.00923424 0)
(0.992787 -0.00812428 0)
(0.990427 -0.00616244 0)
(0.991568 -0.00435294 0)
(0.993588 -0.00446671 0)
(0.995762 -0.0052045 0)
(0.994486 -0.00521332 0)
(0.994257 -0.00497338 0)
(0.994387 -0.00543667 0)
(0.995477 -0.00585804 0)
(0.99462 -0.00573662 0)
(0.993704 -0.0049529 0)
(0.992369 -0.00434547 0)
(0.999807 -0.000804351 0)
(0.998857 -0.00167681 0)
(0.998914 -0.000913976 0)
(0.999871 7.37502e-05 0)
(1.00236 -0.00363772 0)
(1.00043 -0.00910233 0)
(0.997181 -0.00988146 0)
(0.993897 -0.00884444 0)
(0.993299 -0.00794254 0)
(0.99103 -0.0062508 0)
(0.991956 -0.00449986 0)
(0.993675 -0.00450539 0)
(0.995821 -0.00524011 0)
(0.99466 -0.00530244 0)
(0.994347 -0.00493791 0)
(0.994344 -0.00522708 0)
(0.995484 -0.00559754 0)
(0.99484 -0.00557363 0)
(0.994045 -0.00488074 0)
(0.992638 -0.00416963 0)
(0.99979 -0.00073533 0)
(0.998984 -0.00157911 0)
(0.999115 -0.00106148 0)
(0.999838 -0.000200669 0)
(1.00192 -0.00351491 0)
(1.00022 -0.00862087 0)
(0.997449 -0.00941523 0)
(0.994326 -0.00845076 0)
(0.993786 -0.00771854 0)
(0.991621 -0.00630745 0)
(0.992366 -0.00465211 0)
(0.993784 -0.00454005 0)
(0.995876 -0.00522901 0)
(0.99485 -0.00536309 0)
(0.994486 -0.00492946 0)
(0.99434 -0.00505538 0)
(0.995489 -0.00535857 0)
(0.995034 -0.00539061 0)
(0.994398 -0.00481895 0)
(0.992962 -0.00407788 0)
(0.999775 -0.000676762 0)
(0.999099 -0.00147368 0)
(0.999302 -0.00119921 0)
(0.999823 -0.000484267 0)
(1.00151 -0.00335819 0)
(1.00002 -0.00813009 0)
(0.997717 -0.0089927 0)
(0.99475 -0.00807146 0)
(0.994245 -0.00744855 0)
(0.992192 -0.00632081 0)
(0.992792 -0.00480678 0)
(0.993919 -0.00458376 0)
(0.995932 -0.00518783 0)
(0.995046 -0.00538854 0)
(0.99467 -0.00494176 0)
(0.994382 -0.00492277 0)
(0.995504 -0.00514201 0)
(0.995203 -0.00520242 0)
(0.994738 -0.00473959 0)
(0.993339 -0.00405183 0)
(0.999762 -0.000630297 0)
(0.999203 -0.00136304 0)
(0.99947 -0.00131792 0)
(0.999828 -0.000777764 0)
(1.00114 -0.00318193 0)
(0.999815 -0.00762398 0)
(0.997978 -0.00859657 0)
(0.995176 -0.00772664 0)
(0.99468 -0.00714218 0)
(0.992733 -0.00628297 0)
(0.993228 -0.00495214 0)
(0.994085 -0.00464356 0)
(0.995995 -0.005135 0)
(0.995242 -0.00538538 0)
(0.994887 -0.00495761 0)
(0.994473 -0.00482247 0)
(0.995538 -0.00495304 0)
(0.99536 -0.00502763 0)
(0.995054 -0.00463934 0)
(0.993748 -0.00405228 0)
(0.99975 -0.000593764 0)
(0.999295 -0.00124842 0)
(0.999614 -0.00141549 0)
(0.999853 -0.00107665 0)
(1.0008 -0.00301552 0)
(0.999614 -0.00710239 0)
(0.998227 -0.00821411 0)
(0.995606 -0.00741999 0)
(0.995097 -0.00682015 0)
(0.993238 -0.00617624 0)
(0.993662 -0.00506058 0)
(0.994282 -0.00472432 0)
(0.99607 -0.00509411 0)
(0.995437 -0.0053658 0)
(0.995132 -0.00496865 0)
(0.994611 -0.00474403 0)
(0.995595 -0.00478812 0)
(0.995512 -0.00486637 0)
(0.995346 -0.0045267 0)
(0.994156 -0.00403559 0)
(0.99974 -0.00056363 0)
(0.999375 -0.00114487 0)
(0.999732 -0.00148098 0)
(0.999895 -0.00136761 0)
(1.00052 -0.00287287 0)
(0.999412 -0.00655092 0)
(0.998453 -0.00782556 0)
(0.996041 -0.00717334 0)
(0.995508 -0.00652876 0)
(0.993708 -0.00601653 0)
(0.994081 -0.00511952 0)
(0.994502 -0.00479771 0)
(0.996164 -0.00505755 0)
(0.995632 -0.00531654 0)
(0.995398 -0.00496033 0)
(0.99479 -0.00467301 0)
(0.995678 -0.00463449 0)
(0.995665 -0.00471271 0)
(0.995624 -0.00441825 0)
(0.994545 -0.00398985 0)
(0.999729 -0.000535533 0)
(0.999446 -0.00105569 0)
(0.999822 -0.00152041 0)
(0.99995 -0.00164645 0)
(1.00028 -0.00276936 0)
(0.999213 -0.00598283 0)
(0.99864 -0.00738686 0)
(0.996469 -0.00695741 0)
(0.995921 -0.00627301 0)
(0.99415 -0.00582607 0)
(0.994479 -0.00512562 0)
(0.99474 -0.00485942 0)
(0.99628 -0.00503775 0)
(0.99583 -0.00526594 0)
(0.995677 -0.00494751 0)
(0.995008 -0.00461824 0)
(0.995784 -0.00449571 0)
(0.995814 -0.0045619 0)
(0.99589 -0.00432357 0)
(0.994906 -0.00392462 0)
(0.999719 -0.000510771 0)
(0.999508 -0.000979473 0)
(0.999882 -0.00151834 0)
(1.00001 -0.00190524 0)
(1.00011 -0.0027237 0)
(0.999029 -0.00545492 0)
(0.998785 -0.0069199 0)
(0.996878 -0.00675437 0)
(0.996338 -0.006055 0)
(0.994569 -0.0056036 0)
(0.994846 -0.00503835 0)
(0.994979 -0.0048649 0)
(0.996412 -0.00500062 0)
(0.996032 -0.00520723 0)
(0.995967 -0.0049282 0)
(0.995263 -0.00458045 0)
(0.995922 -0.00438355 0)
(0.99596 -0.00441518 0)
(0.99615 -0.00424344 0)
(0.995252 -0.00386849 0)
(0.999707 -0.000480796 0)
(0.999567 -0.000941725 0)
(0.999914 -0.00147359 0)
(1.00007 -0.0021201 0)
(0.99998 -0.00270522 0)
(0.998868 -0.00494539 0)
(0.998886 -0.00642324 0)
(0.99726 -0.00654737 0)
(0.996768 -0.00593086 0)
(0.994988 -0.00542077 0)
(0.995189 -0.00491682 0)
(0.995207 -0.00482391 0)
(0.996551 -0.0049481 0)
(0.996231 -0.00513156 0)
(0.996258 -0.00489111 0)
(0.995542 -0.00453544 0)
(0.996092 -0.00427815 0)
(0.996101 -0.00425422 0)
(0.996388 -0.00414244 0)
(0.995584 -0.00381186 0)
(0.999694 -0.000439449 0)
(0.999622 -0.000920757 0)
(0.999925 -0.00140849 0)
(1.00012 -0.0023103 0)
(0.999913 -0.00273566 0)
(0.998738 -0.00448856 0)
(0.998938 -0.00587855 0)
(0.997581 -0.00626011 0)
(0.99719 -0.00581661 0)
(0.995417 -0.00527099 0)
(0.995521 -0.00477289 0)
(0.995424 -0.0047322 0)
(0.996694 -0.00488862 0)
(0.996433 -0.00506671 0)
(0.996554 -0.00486682 0)
(0.995849 -0.00451826 0)
(0.996303 -0.00422024 0)
(0.996252 -0.00412844 0)
(0.996603 -0.00404195 0)
(0.995906 -0.00377769 0)
(0.999681 -0.00041547 0)
(0.999677 -0.000902013 0)
(0.999912 -0.00130895 0)
(1.00016 -0.00242107 0)
(0.999896 -0.00277022 0)
(0.99866 -0.00409023 0)
(0.998972 -0.00534358 0)
(0.997848 -0.00594362 0)
(0.99759 -0.00570639 0)
(0.995855 -0.0051943 0)
(0.995851 -0.00463843 0)
(0.995618 -0.00458973 0)
(0.996814 -0.00476992 0)
(0.996617 -0.00496601 0)
(0.996835 -0.00480909 0)
(0.996162 -0.00448297 0)
(0.996542 -0.00416144 0)
(0.996422 -0.0040099 0)
(0.996793 -0.00391362 0)
(0.996203 -0.00372383 0)
(0.999668 -0.000351175 0)
(0.999739 -0.000980846 0)
(0.99989 -0.00126366 0)
(1.00018 -0.0024979 0)
(0.999923 -0.00281876 0)
(0.998629 -0.00372503 0)
(0.998978 -0.00480956 0)
(0.99805 -0.00556035 0)
(0.99795 -0.00553787 0)
(0.996305 -0.0051462 0)
(0.996212 -0.00454842 0)
(0.995825 -0.00444789 0)
(0.99693 -0.00462012 0)
(0.996789 -0.00485299 0)
(0.997109 -0.00475627 0)
(0.996485 -0.00446368 0)
(0.996811 -0.00413185 0)
(0.996619 -0.00393457 0)
(0.99697 -0.00380571 0)
(0.996469 -0.0036651 0)
(0.999652 -0.000296474 0)
(0.999791 -0.00102467 0)
(0.999873 -0.0011959 0)
(1.0002 -0.0024652 0)
(0.999997 -0.00288013 0)
(0.998662 -0.00347224 0)
(0.998985 -0.00434145 0)
(0.998199 -0.00517407 0)
(0.998248 -0.00533842 0)
(0.996727 -0.00509612 0)
(0.996583 -0.00451412 0)
(0.996039 -0.00431703 0)
(0.997028 -0.00444377 0)
(0.996925 -0.00468594 0)
(0.997356 -0.00466635 0)
(0.996805 -0.00442509 0)
(0.997103 -0.00410135 0)
(0.996853 -0.00387315 0)
(0.997159 -0.00370622 0)
(0.996712 -0.00358193 0)
(0.99964 -0.000253765 0)
(0.999856 -0.00100956 0)
(0.999862 -0.0010785 0)
(1.00019 -0.00232694 0)
(1.00007 -0.00291188 0)
(0.99874 -0.00334078 0)
(0.998996 -0.00394782 0)
(0.998301 -0.00479064 0)
(0.998495 -0.00509557 0)
(0.997127 -0.00500592 0)
(0.996982 -0.00450634 0)
(0.996299 -0.00422282 0)
(0.997147 -0.00428009 0)
(0.997043 -0.00449931 0)
(0.997564 -0.00454775 0)
(0.997104 -0.0043826 0)
(0.997398 -0.00408453 0)
(0.997103 -0.00384077 0)
(0.997354 -0.00364086 0)
(0.996921 -0.00350501 0)
(0.999628 -0.000183815 0)
(0.999918 -0.00102974 0)
(0.999858 -0.00101566 0)
(1.00015 -0.00219126 0)
(1.00014 -0.00288069 0)
(0.998873 -0.00326878 0)
(0.99905 -0.00362962 0)
(0.998382 -0.0044208 0)
(0.998685 -0.00481997 0)
(0.997465 -0.00487631 0)
(0.997357 -0.00449602 0)
(0.996571 -0.00417663 0)
(0.997267 -0.00413455 0)
(0.997135 -0.00431244 0)
(0.99772 -0.00438879 0)
(0.997364 -0.00430487 0)
(0.997686 -0.00405915 0)
(0.997372 -0.00381422 0)
(0.997575 -0.00359876 0)
(0.997129 -0.003438 0)
(0.999616 -0.000135009 0)
(0.999979 -0.000998042 0)
(0.999872 -0.000961935 0)
(1.00012 -0.00203139 0)
(1.00018 -0.00277529 0)
(0.999016 -0.00321147 0)
(0.999119 -0.00339564 0)
(0.998439 -0.00407771 0)