/*--------------------------------*- C++ -*----------------------------------*\
| =========                 |                                                 |
| \\      /  F ield         | OpenFOAM: The Open Source CFD Toolbox           |
|  \\    /   O peration     | Version:  v1906                                 |
|   \\  /    A nd           | Web:      www.OpenFOAM.com                      |
|    \\/     M anipulation  |                                                 |
\*---------------------------------------------------------------------------*/
FoamFile
{
    version     2.0;
    format      ascii;
    class       volScalarField;
    location    "0.2";
    object      p;
}
// * * * * * * * * * * * * * * * * * * * * * * * * * * * * * * * * * * * * * //

dimensions      [0 2 -2 0 0 0 0];


internalField   nonuniform List<scalar> 
9600
(
1.87282e-11
0.000593882
0.000109434
0.000711554
0.00080527
0.00112448
0.00106374
0.000514949
0.000547742
0.0013505
0.00178435
0.00226436
0.00131292
0.00275222
0.00338627
0.00365632
0.00416194
0.00469569
0.00572831
0.00762812
2.6137e-06
0.000592603
0.000111565
0.000707354
0.000805615
0.00112402
0.00106349
0.000506552
0.000555535
0.00135211
0.00178034
0.00226229
0.00132316
0.00274399
0.0033921
0.00362007
0.00417249
0.00462444
0.0057388
0.00731165
4.90447e-06
0.000591038
0.000114475
0.000701062
0.000807075
0.00112405
0.0010593
0.000500344
0.000563044
0.00135219
0.00178331
0.00225544
0.00133557
0.00272777
0.00339772
0.0035717
0.00418016
0.00454644
0.00573267
0.00693838
6.99364e-06
0.000589688
0.000117862
0.000693192
0.000809786
0.001126
0.00105085
0.000497766
0.000568926
0.00135322
0.00179196
0.00224021
0.00134977
0.00270691
0.00340283
0.00351577
0.00418478
0.0044775
0.00570077
0.00659869
9.02994e-06
0.000588558
0.000122075
0.000683572
0.000813949
0.00112936
0.00103879
0.000498053
0.000574459
0.00135474
0.00180323
0.0022194
0.00136629
0.00268298
0.00340856
0.00345492
0.00419431
0.00440503
0.00564416
0.00631022
1.10636e-05
0.000587615
0.000127192
0.000672322
0.00081952
0.00113328
0.00102456
0.000500296
0.000580312
0.00135598
0.00181558
0.00219613
0.00138352
0.00265709
0.00341451
0.00339268
0.00420448
0.00432682
0.00556917
0.00605489
1.31167e-05
0.000586808
0.000133024
0.000659861
0.000826246
0.00113748
0.00100961
0.000503418
0.000586975
0.00135674
0.00182845
0.00217178
0.00140031
0.00263013
0.00342052
0.00333009
0.00420939
0.00424939
0.00547355
0.00581974
1.52273e-05
0.000586047
0.000139352
0.000646668
0.000833821
0.00114192
0.000994864
0.00050666
0.000594949
0.00135693
0.00184155
0.00214699
0.00141637
0.00260243
0.00342615
0.00326717
0.00420684
0.00417563
0.00535276
0.00560028
1.74464e-05
0.00058524
0.000146025
0.000633067
0.000841953
0.00114655
0.000980739
0.00050961
0.000604508
0.00135649
0.00185476
0.00212221
0.00143153
0.00257413
0.00343046
0.00320471
0.00419519
0.0041059
0.00520658
0.00539457
1.98196e-05
0.00058431
0.000152952
0.000619219
0.00085042
0.00115133
0.000967386
0.000511937
0.000615702
0.00135544
0.00186794
0.00209775
0.00144554
0.00254529
0.0034326
0.00314417
0.00417256
0.00404049
0.00503703
0.0051986
2.23792e-05
0.000583195
0.000160077
0.000605192
0.000859106
0.00115614
0.000954763
0.000513301
0.00062847
0.00135388
0.00188085
0.0020739
0.00145815
0.00251574
0.00343196
0.00308691
0.00413738
0.00397947
0.00484696
0.0050066
2.5149e-05
0.000581848
0.000167364
0.000591019
0.000867964
0.00116085
0.000942774
0.000513396
0.000642675
0.00135191
0.00189322
0.00205101
0.00146903
0.00248778
0.003428
0.00303391
0.00408875
0.00392189
0.00464061
0.00481335
2.81501e-05
0.000580232
0.000174786
0.000576714
0.000876986
0.00116532
0.000931335
0.00051201
0.000658139
0.00134965
0.00190469
0.0020295
0.00147779
0.00246201
0.00342011
0.00298598
0.00402648
0.00386538
0.00442326
0.00461515
3.14021e-05
0.000578316
0.000182322
0.000562285
0.000886178
0.00116944
0.000920406
0.000509044
0.000674662
0.00134734
0.00191476
0.00200979
0.00148403
0.00243818
0.00340784
0.00294316
0.00395127
0.00380693
0.00420011
0.00441013
3.4925e-05
0.000576064
0.00018996
0.00054774
0.000895551
0.00117314
0.000909974
0.00050452
0.000691985
0.00134532
0.0019229
0.00199224
0.00148735
0.00241637
0.00339095
0.00290429
0.00386451
0.00374367
0.00397557
0.00419812
3.87403e-05
0.00057344
0.000197688
0.000533088
0.000905111
0.00117638
0.000900024
0.000498545
0.000709797
0.00134403
0.00192861
0.00197718
0.0014875
0.00239627
0.00336957
0.00286752
0.00376765
0.00367323
0.00375298
0.00397962
4.28719e-05
0.000570408
0.000205493
0.000518341
0.000914857
0.00117915
0.000890516
0.000491305
0.000727706
0.00134389
0.00193142
0.00196482
0.00148438
0.00237804
0.00334433
0.00283061
0.00366194
0.00359443
0.00353437
0.00375521
4.73466e-05
0.000566929
0.000213357
0.000503518
0.000924783
0.00118143
0.000881363
0.000483046
0.000745231
0.00134536
0.00193097
0.00195522
0.00147813
0.00237071
0.00331621
0.0027913
0.00354829
0.00350739
0.00332075
0.00352554
5.21951e-05
0.00056296
0.000221252
0.000488644
0.000934856
0.0011833
0.000872437
0.000474058
0.000761868
0.00134885
0.00192701
0.00194823
0.00146907
0.0023578
0.00328642
0.00274826
0.00342698
0.00341305
0.00311274
0.00329148
5.74512e-05
0.00055846
0.00022914
0.000473759
0.000945017
0.00118482
0.000863531
0.000464702
0.000777159
0.00135465
0.00191947
0.00194331
0.00145791
0.0023357
0.0032559
0.00270114
0.00329773
0.00331274
0.00291143
0.00305412
6.31522e-05
0.000553387
0.00023697
0.000458915
0.000955176
0.00118615
0.000854376
0.000455345
0.00079072
0.00136283
0.00190853
0.00193981
0.00144594
0.00230614
0.00322447
0.00265033
0.00316002
0.0032074
0.00271837
0.00281428
6.93428e-05
0.000547696
0.000244671
0.000444188
0.000965223
0.00118749
0.000844689
0.000446279
0.000802244
0.00137335
0.00189451
0.00193672
0.00143464
0.00226956
0.00319118
0.00259725
0.00301357
0.003097
0.00253552
0.0025726
7.60711e-05
0.000541355
0.00025214
0.00042967
0.000975003
0.00118907
0.000834184
0.000437749
0.000811504
0.00138604
0.00187805
0.00193252
0.00142515
0.00222578
0.00315463
0.00254368
0.00285859
0.00298075
0.00236515
0.00233018
8.338e-05
0.000534352
0.000259245
0.000415457
0.000984312
0.0011912
0.000822602
0.000429923
0.000818398
0.00140041
0.00186023
0.00192575
0.00141798
0.0021744
0.00311305
0.00249081
0.00269604
0.00285752
0.00220935
0.00208923
9.1313e-05
0.000526691
0.000265838
0.000401653
0.000992934
0.00119419
0.000809771
0.000422783
0.000823055
0.00141565
0.00184231
0.00191536
0.00141293
0.00211699
0.00306476
0.00243893
0.00252787
0.00272604
0.00206925
0.00185324
9.99131e-05
0.000518388
0.000271721
0.000388433
0.00100066
0.00119827
0.000795628
0.000416127
0.000825925
0.00143058
0.00182524
0.00190089
0.00140911
0.00205624
0.00300862
0.00238766
0.0023566
0.00258513
0.00194484
0.00162686
0.000109197
0.000509482
0.000276681
0.000375976
0.00100725
0.00120361
0.00078019
0.000409719
0.000827805
0.00144404
0.00180932
0.00188228
0.00140526
0.00199398
0.00294402
0.00233662
0.00218463
0.00243373
0.00183511
0.00141545
0.000119182
0.000500043
0.000280476
0.000364441
0.00101247
0.0012103
0.000763665
0.000403009
0.000829517
0.00145538
0.00179439
0.00185985
0.00139993
0.00192981
0.00287119
0.002286
0.00201423
0.00227079
0.00173795
0.00122482
0.000129894
0.000490211
0.000282759
0.000353959
0.00101625
0.00121845
0.000746496
0.000395008
0.000831591
0.00146446
0.00178005
0.00183427
0.00139192
0.0018632
0.00279034
0.00223629
0.00184815
0.00209579
0.00164969
0.00106068
0.000141311
0.000480208
0.00028319
0.000344549
0.0010186
0.00122791
0.000729275
0.000384852
0.000834211
0.00147138
0.00176561
0.00180624
0.0013808
0.0017933
0.00270115
0.00218758
0.00168975
0.00190933
0.0015646
0.000927124
0.000153374
0.00047026
0.000281489
0.000336221
0.00101951
0.00123838
0.000712956
0.000371776
0.000837136
0.00147658
0.00174974
0.00177599
0.0013671
0.00172034
0.0026029
0.00213885
0.00154284
0.00171436
0.00147582
0.0008249
0.000165962
0.000460614
0.000277369
0.000328928
0.00101918
0.00124938
0.000698596
0.000355315
0.000839654
0.00148102
0.00173141
0.00174319
0.00135129
0.0016439
0.00249518
0.00208797
0.00141058
0.00151666
0.00137783
0.000750468
0.00017897
0.000451615
0.000270582
0.000322363
0.00101804
0.00126033
0.000687011
0.000335528
0.000840524
0.00148592
0.00171058
0.00170647
0.00133333
0.00156532
0.00237873
0.0020326
0.00129322
0.00132241
0.00126882
0.000697063
0.000192227
0.000443675
0.00026107
0.000315991
0.00101661
0.00127063
0.000678728
0.000312793
0.000837901
0.00149191
0.00168785
0.00166398
0.00131317
0.00148764
0.00225446
0.00197035
0.00118891
0.00113623
0.00115077
0.000658556
0.000205447
0.000437136
0.000248916
0.000309229
0.00101545
0.00127974
0.000673879
0.000288018
0.000829916
0.00149841
0.0016649
0.00161514
0.00128948
0.00141393
0.00212379
0.00189926
0.00109643
0.000960583
0.00102537
0.000631021
0.000218392
0.000432324
0.000234364
0.000301334
0.00101513
0.00128728
0.000672071
0.000262791
0.000815444
0.00150429
0.00164368
0.00156006
0.00125895
0.00134555
0.00199109
0.00181836
0.00101337
0.000797727
0.000892729
0.000608827
0.00023074
0.000429596
0.000217918
0.000291155
0.00101612
0.00129318
0.000672423
0.000239141
0.000794135
0.00150756
0.00162548
0.00149918
0.00121884
0.00128134
0.00186274
0.00172945
0.000934908
0.000649694
0.000755058
0.000582581
0.000242181
0.000429207
0.00020025
0.000277538
0.0010187
0.00129801
0.000673527
0.000218581
0.000766346
0.00150515
0.00161053
0.00143541
0.00116965
0.00121886
0.00174214
0.00163685
0.000857084
0.000515312
0.000617826
0.000543542
0.000252364
0.000431311
0.000182251
0.000259416
0.00102269
0.00130283
0.000673759
0.00020158
0.000733512
0.00149423
0.00159821
0.00137303
0.00110694
0.00115176
0.00162786
0.00154679
0.000781204
0.000389594
0.000485394
0.000489189
0.000260895
0.000435994
0.000165078
0.000235732
0.00102739
0.00130893
0.00067181
0.000188097
0.000698275
0.00147287
0.00158655
0.00131571
0.00103284
0.00107598
0.00151724
0.00146291
0.000712805
0.000268804
0.000356967
0.000422979
0.000267492
0.000443156
0.000150043
0.000205859
0.0010314
0.00131809
0.000666979
0.000176809
0.000663945
0.00144104
0.00157114
0.00126509
0.000954234
0.000991334
0.00140617
0.00138304
0.000658184
0.000156766
0.000228059
0.00034829
0.000271902
0.000452483
0.000138548
0.000169625
0.00103273
0.00133208
0.000659466
0.000164804
0.000632789
0.00140045
0.00154733
0.00122051
0.000879191
0.00089929
0.00129036
0.00130371
0.000618888
6.13752e-05
9.78348e-05
0.000263814
0.000273898
0.000463508
0.000131981
0.000127131
0.00102886
0.00135193
0.000650625
0.000148854
0.000605301
0.00135451
0.00151224
0.00117912
0.000813599
0.000802806
0.00116715
0.00122029
0.000590288
-9.89988e-06
-2.52305e-05
0.000167771
0.000273349
0.000475635
0.000131603
7.89828e-05
0.00101691
0.00137813
0.000643397
0.000125372
0.000580236
0.00130855
0.00146521
0.00113465
0.000757989
0.000711357
0.00103865
0.00112665
0.000566469
-5.61695e-05
-0.000130899
6.82024e-05
0.000270172
0.000488196
0.000138517
2.65586e-05
0.000993886
0.00141042
0.000641456
9.18286e-05
0.000554221
0.00126772
0.00140809
0.00108034
0.000710346
0.00063503
0.000910146
0.00101799
0.000539892
-8.2521e-05
-0.00021329
-2.0881e-05
0.000264348
0.000500563
0.000153538
-2.80437e-05
0.000956995
0.00144715
0.000649068
4.84429e-05
0.000522042
0.00123469
0.00134585
0.00101348
0.000665635
0.000577097
0.000790864
0.000895547
0.00050019
-9.43268e-05
-0.000274612
-9.0484e-05
0.00025614
0.000511495
0.000176964
-8.2477e-05
0.00090422
0.00148523
0.000670313
-3.42203e-06
0.000477095
0.00120894
0.00128747
0.000931093
0.000611772
0.000533849
0.000693852
0.00076763
0.000437305
-0.000100629
-0.00031906
-0.000142912
0.00024599
0.000519674
0.000210234
-0.000133471
0.000834694
0.00152014
0.00070779
-5.95786e-05
0.000413845
0.00118733
0.00124171
0.000836949
0.000538367
0.000498699
0.000627116
0.000647275
0.000348809
-0.000115893
-0.00034828
-0.000187782
0.00023443
0.000524085
0.000249027
-0.00017952
0.00074852
0.00154651
0.000762636
-0.000113576
0.000330003
0.00116282
0.0012131
0.000740855
0.000441869
0.000458498
0.000587495
0.000553102
0.000244551
-0.000157395
-0.000368681
-0.000228463
0.000222146
0.000523672
0.000293206
-0.000211866
0.000646981
0.00155812
0.000833942
-0.000156743
0.000225206
0.00112657
0.00120345
0.000657095
0.000325378
0.000397752
0.000565658
0.000498591
0.000143815
-0.000233529
-0.000397164
-0.00026276
0.000209929
0.000517562
0.00034064
-0.000231055
0.000532918
0.0015489
0.000918485
-0.000180366
0.000100283
0.00106733
0.0012119
0.000600655
0.000195961
0.000306047
0.000546828
0.000481695
7.21821e-05
-0.000331006
-0.00045666
-0.000295964
0.000198508
0.000505414
0.00038834
-0.000234761
0.000410702
0.00151399
0.0010106
-0.000177896
-3.7344e-05
0.000977818
0.0012292
0.00057883
6.74406e-05
0.000181126
0.000512133
0.000491762
4.56517e-05
-0.000423904
-0.000555517
-0.000349911
0.000188672
0.000486883
0.000433014
-0.000221308
0.00028621
0.00144952
0.00110258
-0.000143821
-0.000176319
0.000853026
0.00124088
0.000592011
-4.09709e-05
2.95845e-05
0.000444535
0.000514289
6.34775e-05
-0.000482473
-0.000673854
-0.000449157
0.000180978
0.000462561
0.000471276
-0.000190077
0.000166351
0.00135416
0.001185
-7.63124e-05
-0.000303968
0.000693974
0.00123229
0.000636146
-0.000112084
-0.000136241
0.000333637
0.000528656
0.000115908
-0.000491859
-0.000780297
-0.000593366
0.000175741
0.000433338
0.000500547
-0.000143243
5.77051e-05
0.00122934
0.00124896
2.17126e-05
-0.000407691
0.000505981
0.00118987
0.000700774
-0.000136598
-0.000296856
0.000180401
0.00051306
0.000190087
-0.000454037
-0.000844526
-0.00075206
0.000173066
0.000400513
0.000518577
-8.41408e-05
-3.37509e-05
0.00107925
0.00128601
0.000141343
-0.00047714
0.000299457
0.00110432
0.000768708
-0.00011366
-0.000429515
-2.96164e-06
0.000449526
0.000265641
-0.00037707
-0.000857053
-0.000887238
0.000172827
0.000365796
0.000523768
-1.67394e-05
-0.000103735
0.000910714
0.00128837
0.000271959
-0.00050443
9.16016e-05
0.000972715
0.000820896
-4.91261e-05
-0.000516602
-0.000197412
0.000330503
0.000317467
-0.000270985
-0.000823145
-0.000971215
0.000174582
0.000330791
0.000515862
5.29101e-05
-0.000149799
0.000734243
0.00125183
0.00040066
-0.000485926
-9.93947e-05
0.000799583
0.000840754
4.44479e-05
-0.000549705
-0.000377396
0.000165056
0.0003217
-0.000154276
-0.000750052
-0.00100019
0.00017754
0.000297203
0.000495333
0.000118506
-0.000170569
0.000561582
0.00117576
0.000514299
-0.000425232
-0.000258609
0.000594799
0.000815988
0.000146613
-0.000530781
-0.000520263
-2.71926e-05
0.000264031
-5.28254e-05
-0.000645302
-0.000982974
0.000180905
0.000266315
0.000463635
0.000175198
-0.000165859
0.000402556
0.00106351
0.000599981
-0.00033093
-0.000374364
0.000375464
0.000741768
0.000235851
-0.000468216
-0.000612914
-0.000219575
0.000148699
6.52766e-06
-0.0005242
-0.000928489
0.000183777
0.000238875
0.000423347
0.000219326
-0.000144171
0.000264246
0.000923132
0.000649089
-0.000218449
-0.000441518
0.000162997
0.000622283
0.000294725
-0.000377186
-0.0006524
-0.000386519
-4.72512e-06
6.58992e-06
-0.000410311
-0.000844015
0.000185251
0.000215187
0.000377739
0.00024812
-0.000109277
0.000151364
0.000765913
0.000658562
-0.000104263
-0.000461148
-2.3896e-05
0.000467885
0.00031143
-0.000278746
-0.000644715
-0.000512899
-0.000170252
-5.10853e-05
-0.000328844
-0.000742478
0.000184642
0.000195176
0.000330166
0.000260782
-6.77946e-05
6.57184e-05
0.000604567
0.000629742
-3.21103e-06
-0.000439806
-0.0001729
0.000295034
0.000282918
-0.000192874
-0.000600624
-0.000593256
-0.000322879
-0.000148889
-0.000295392
-0.000644031
0.000181546
0.000178303
0.000283424
0.0002582
-2.6959e-05
6.63407e-06
0.000450796
0.000567257
7.35021e-05
-0.000390504
-0.000278786
0.000123143
0.000214812
-0.000134251
-0.00053653
-0.000630155
-0.000447088
-0.0002645
-0.000309542
-0.000569108
0.000175769
0.000164047
0.000239498
0.00024255
7.68871e-06
-2.9357e-05
0.000312849
0.000479316
0.000119767
-0.00032847
-0.000343097
-3.13524e-05
0.000117929
-0.000110441
-0.000470433
-0.000631829
-0.000536333
-0.000377201
-0.000358381
-0.000529181
0.00016727
0.000150576
0.000199549
0.000217032
3.23845e-05
-4.8263e-05
0.000195626
0.000376646
0.00013466
-0.000267476
-0.000371821
-0.000158033
6.86679e-06
-0.000120895
-0.000416657
-0.000610196
-0.000591294
-0.00047351
-0.000425294
-0.000523715
0.000156206
0.000137389
0.000164088
0.000185225
4.53733e-05
-5.66905e-05
0.000100673
0.000269941
0.00012155
-0.000217584
-0.000374854
-0.000253375
-0.000103732
-0.000158631
-0.000383731
-0.000579114
-0.000617926
-0.000547367
-0.000495249
-0.000543866
0.000142867
0.000123809
0.00013282
0.000150239
4.68605e-05
-6.0329e-05
2.65667e-05
0.000167642
8.62002e-05
-0.000184822
-0.000363864
-0.000319666
-0.00020314
-0.00021382
-0.000373856
-0.000550287
-0.000624582
-0.000598458
-0.000558095
-0.000578279
0.000127687
0.000109325
0.000105056
0.000114567
3.83695e-05
-6.37692e-05
-2.97918e-05
7.54205e-05
3.60341e-05
-0.000171009
-0.000348845
-0.000362005
-0.000285673
-0.000276154
-0.000383876
-0.000531044
-0.000620863
-0.00063025
-0.000608887
-0.000617132
0.000111104
9.36935e-05
7.99972e-05
7.99221e-05
2.20318e-05
-6.99229e-05
-7.25051e-05
-3.94497e-06
-2.14471e-05
-0.000174594
-0.000336794
-0.000387146
-0.000350163
-0.000337411
-0.000407861
-0.00052407
-0.000614822
-0.000648039
-0.000646626
-0.000653708
9.35073e-05
7.69395e-05
5.68574e-05
4.719e-05
2.92599e-07
-8.00577e-05
-0.000105856
-7.01743e-05
-8.0097e-05
-0.000191931
-0.000331762
-0.000402234
-0.000398446
-0.000392489
-0.000439623
-0.000528532
-0.000611647
-0.000657721
-0.000672888
-0.00068452
7.52753e-05
5.9244e-05
3.49744e-05
1.67736e-05
-2.4535e-05
-9.43102e-05
-0.000133531
-0.000124625
-0.000135739
-0.000218639
-0.00033509
-0.000413
-0.000433729
-0.000439153
-0.000474012
-0.000541669
-0.000613618
-0.00066422
-0.000690827
-0.000708712
5.67519e-05
4.09033e-05
1.39401e-05
-1.1266e-05
-5.06314e-05
-0.000112054
-0.000158152
-0.000169361
-0.000186078
-0.000250434
-0.000346062
-0.000423311
-0.000459968
-0.000477245
-0.000507447
-0.000560254
-0.000620892
-0.000670752
-0.000703784
-0.000727157
3.82793e-05
2.2301e-05
-6.42118e-06
-3.70642e-05
-7.66917e-05
-0.000132241
-0.000181253
-0.000206539
-0.000230337
-0.000283901
-0.000362871
-0.000435254
-0.000480758
-0.000507923
-0.00053794
-0.00058147
-0.000632489
-0.000678924
-0.00071447
-0.000741551
2.02149e-05
3.86437e-06
-2.61077e-05
-6.08035e-05
-0.000101808
-0.000153707
-0.000203533
-0.000238124
-0.00026873
-0.000316734
-0.000383447
-0.000449502
-0.000498781
-0.00053299
-0.000564821
-0.000603267
-0.000647066
-0.00068925
-0.00072475
-0.000753678
2.93538e-06
-1.39532e-05
-4.49282e-05
-8.26023e-05
-0.000125413
-0.000175432
-0.000225204
-0.00026561
-0.000301821
-0.00034748
-0.000405842
-0.000465845
-0.000515785
-0.000554305
-0.000588335
-0.000624409
-0.000663344
-0.000701608
-0.000735742
-0.000765057
-1.31515e-05
-3.06606e-05
-6.25263e-05
-0.000102421
-0.000147084
-0.000196472
-0.000246142
-0.000290096
-0.000330459
-0.00037549
-0.000428504
-0.000483569
-0.000532671
-0.000573422
-0.000609217
-0.000644365
-0.0006803
-0.000715523
-0.00074794
-0.000776792
-2.7604e-05
-4.57813e-05
-7.84771e-05
-0.000120055
-0.000166372
-0.000215807
-0.000265496
-0.000311764
-0.000355225
-0.000400551
-0.000450305
-0.000501587
-0.000549335
-0.000591107
-0.00062814
-0.00066301
-0.000697136
-0.0007302
-0.000761148
-0.000789379
-4.00825e-05
-5.88873e-05
-9.23065e-05
-0.000135106
-0.00018271
-0.000232431
-0.000282179
-0.000329891
-0.000375568
-0.000421517
-0.0004694
-0.000518002
-0.000564383
-0.00060653
-0.000644491
-0.000679493
-0.000712561
-0.00074393
-0.000773338
-0.000800594
-5.10842e-05
-7.19559e-05
-0.000107298
-0.000152046
-0.000201542
-0.000252601
-0.00030339
-0.000352674
-0.000400352
-0.000447572
-0.000495274
-0.000542836
-0.000588485
-0.000630745
-0.000669293
-0.000704681
-0.000737583
-0.00076835
-0.000797048
-0.000823727
0.0101224
0.00634989
-0.000707133
-0.00657344
-0.00851802
-0.00763445
-0.00629566
-0.00557216
-0.00538689
-0.00531717
-0.00511021
-0.00486264
-0.00465677
-0.00443317
-0.00433125
-0.00435095
-0.00422852
-0.0040217
-0.00393963
-0.00393416
-0.00391573
-0.00385521
-0.00375879
-0.00370929
-0.00370935
-0.00365449
-0.00354192
-0.00345974
-0.00340208
-0.00329421
-0.00314924
-0.00302819
-0.00291214
-0.00276566
-0.00261771
-0.00248329
-0.00233853
-0.00219005
-0.00205548
-0.00191857
-0.00176945
-0.00162592
-0.00149355
-0.00135901
-0.00121938
-0.00108268
-0.0009504
-0.000818404
-0.000685761
-0.000553982
-0.00042323
-0.000292719
-0.00016217
-3.1646e-05
9.89578e-05
0.000229826
0.000361068
0.000492758
0.000625019
0.000758015
0.000891976
0.00102708
0.00116359
0.00130161
0.00144146
0.00158311
0.00172694
0.0018727
0.00202103
0.00217129
0.00232455
0.00247962
0.00263824
0.00279842
0.00296272
0.00312836
0.00329852
0.00347019
0.00364607
0.00382461
0.00400586
0.00419221
0.00437862
0.00457316
0.00476561
0.00496724
0.0051683
0.00537464
0.00558728
0.00579741
0.00602139
0.00623957
0.00647008
0.0067041
0.00693842
0.00719166
0.00744208
0.00770679
0.00803228
0.00835664
0.00946392
0.00622468
-0.000614178
-0.00644006
-0.00843406
-0.00759156
-0.00626863
-0.00555377
-0.00537391
-0.00530743
-0.00510224
-0.00485579
-0.00465092
-0.00442771
-0.00432619
-0.00434688
-0.00422505
-0.00401828
-0.00393651
-0.00393145
-0.00391334
-0.00385311
-0.00375684
-0.00370747
-0.00370783
-0.00365324
-0.00354077
-0.00345872
-0.00340128
-0.00329358
-0.00314866
-0.00302769
-0.00291176
-0.00276536
-0.00261744
-0.00248308
-0.00233837
-0.00218991
-0.00205537
-0.00191849
-0.00176939
-0.00162587
-0.00149351
-0.00135899
-0.00121937
-0.00108267
-0.000950392
-0.000818401
-0.00068576
-0.000553982
-0.000423232
-0.000292722
-0.000162173
-3.16484e-05
9.89556e-05
0.000229824
0.000361067
0.000492757
0.000625018
0.000758014
0.000891976
0.00102708
0.00116359
0.00130161
0.00144146
0.00158311
0.00172694
0.0018727
0.00202103
0.00217129
0.00232455
0.00247962
0.00263824
0.00279842
0.00296272
0.00312836
0.00329852
0.00347019
0.00364607
0.00382461
0.00400586
0.00419221
0.00437862
0.00457316
0.00476561
0.00496724
0.0051683
0.00537464
0.00558728
0.00579741
0.00602139
0.00623957
0.00647008
0.0067041
0.00693842
0.00719166
0.00744208
0.00770679
0.00803229
0.00835674
0.0088546
0.00614144
-0.000402453
-0.00618149
-0.00829033
-0.00753499
-0.00624009
-0.00553296
-0.00535745
-0.00529423
-0.0050915
-0.00484731
-0.00464444
-0.00442219
-0.00432114
-0.00434262
-0.00422127
-0.00401474
-0.00393345
-0.0039288
-0.00391094
-0.00385098
-0.00375486
-0.00370565
-0.0037063
-0.00365192
-0.00353952
-0.00345763
-0.00340044
-0.00329288
-0.00314801
-0.00302714
-0.00291135
-0.002765
-0.00261713
-0.00248285
-0.00233819
-0.00218974
-0.00205523
-0.0019184
-0.00176931
-0.0016258
-0.00149346
-0.00135896
-0.00121934
-0.00108265
-0.000950378
-0.000818392
-0.000685754
-0.000553978
-0.000423229
-0.000292721
-0.000162173
-3.16488e-05
9.89551e-05
0.000229823
0.000361066
0.000492757
0.000625018
0.000758014
0.000891976
0.00102708
0.00116359
0.00130161
0.00144146
0.00158311
0.00172694
0.0018727
0.00202103
0.00217129
0.00232455
0.00247962
0.00263824
0.00279842
0.00296272
0.00312836
0.00329852
0.00347019
0.00364607
0.00382461
0.00400586
0.00419221
0.00437862
0.00457316
0.00476561
0.00496724
0.0051683
0.00537464
0.00558728
0.00579741
0.00602139
0.00623957
0.00647008
0.00670411
0.00693842
0.00719166
0.00744208
0.00770678
0.00803228
0.00835688
0.00829712
0.00606118
-0.000145265
-0.00586245
-0.00809932
-0.00745783
-0.00620009
-0.0055025
-0.00533251
-0.00527376
-0.00507489
-0.00483449
-0.00463522
-0.00441528
-0.00431491
-0.00433656
-0.00421574
-0.00401018
-0.00392973
-0.00392527
-0.0039075
-0.00384794
-0.00375221
-0.00370323
-0.00370407
-0.00364983
-0.00353761
-0.00345597
-0.00339905
-0.00329168
-0.00314695
-0.00302626
-0.00291063
-0.00276437
-0.0026166
-0.00248245
-0.00233786
-0.00218945
-0.002055
-0.00191822
-0.00176916
-0.00162568
-0.00149337
-0.00135888
-0.00121928
-0.0010826
-0.000950347
-0.000818369
-0.000685737
-0.000553966
-0.000423221
-0.000292716
-0.00016217
-3.1647e-05
9.89559e-05
0.000229824
0.000361067
0.000492757
0.000625018
0.000758014
0.000891976
0.00102708
0.00116359
0.00130161
0.00144146
0.00158311
0.00172694
0.0018727
0.00202103
0.00217129
0.00232455
0.00247962
0.00263824
0.00279842
0.00296272
0.00312836
0.00329852
0.00347019
0.00364607
0.00382461
0.00400586
0.00419221
0.00437862
0.00457316
0.00476561
0.00496724
0.0051683
0.00537464
0.00558728
0.00579741
0.00602139
0.00623957
0.00647008
0.00670411
0.00693841
0.00719165
0.00744208
0.00770676
0.00803223
0.00835706
0.00774385
0.00593961
0.000108683
-0.00552815
-0.00789085
-0.00737151
-0.00615463
-0.00546524
-0.00529956
-0.00524534
-0.00505125
-0.00481585
-0.00462185
-0.00440614
-0.00430681
-0.00432766
-0.00420748
-0.00400411
-0.00392505
-0.00392041
-0.00390229
-0.00384328
-0.00374839
-0.0036997
-0.00370045
-0.00364633
-0.00353449
-0.0034532
-0.00339653
-0.00328947
-0.00314508
-0.00302468
-0.00290926
-0.00276318
-0.00261561
-0.00248168
-0.00233724
-0.00218891
-0.00205454
-0.00191784
-0.00176886
-0.00162545
-0.00149319
-0.00135872
-0.00121915
-0.00108251
-0.000950276
-0.000818313
-0.000685694
-0.000553936
-0.000423201
-0.000292702
-0.000162162
-3.1641e-05
9.89593e-05
0.000229826
0.000361068
0.000492758
0.000625019
0.000758015
0.000891976
0.00102708
0.00116359
0.00130161
0.00144146
0.00158311
0.00172694
0.0018727
0.00202103
0.00217129
0.00232455
0.00247962
0.00263824
0.00279842
0.00296272
0.00312836
0.00329852
0.00347019
0.00364607
0.00382461
0.00400586
0.00419221
0.00437862
0.00457316
0.00476561
0.00496724
0.00516831
0.00537464
0.00558728
0.00579741
0.00602139
0.00623957
0.00647008
0.00670411
0.00693841
0.00719165
0.00744207
0.00770673
0.00803215
0.00835727
0.00718768
0.00577043
0.000354444
-0.00518419
-0.00767039
-0.00728025
-0.00610846
-0.00542576
-0.00526222
-0.00521176
-0.00502264
-0.00479267
-0.00460488
-0.00439484
-0.00429673
-0.00431578
-0.00419636
-0.0039964
-0.00391936
-0.00391418
-0.00389515
-0.00383672
-0.00374316
-0.0036948
-0.00369503
-0.00364097
-0.00352982
-0.00344897
-0.00339248
-0.00328585
-0.00314206
-0.00302207
-0.00290692
-0.00276115
-0.00261392
-0.00248031
-0.00233614
-0.00218798
-0.0020537
-0.00191712
-0.00176831
-0.00162503
-0.00149283
-0.00135841
-0.0012189
-0.00108232
-0.000950131
-0.000818196
-0.000685603
-0.00055387
-0.000423153
-0.000292668
-0.000162139
-3.16262e-05
9.89682e-05
0.000229831
0.00036107
0.000492759
0.00062502
0.000758015
0.000891977
0.00102708
0.00116359
0.00130161
0.00144146
0.00158311
0.00172694
0.0018727
0.00202103
0.00217129
0.00232455
0.00247962
0.00263824
0.00279842
0.00296272
0.00312836
0.00329852
0.00347019
0.00364607
0.00382461
0.00400586
0.00419221
0.00437862
0.00457316
0.00476561
0.00496724
0.00516831
0.00537464
0.00558728
0.00579741
0.00602139
0.00623957
0.00647008
0.0067041
0.00693841
0.00719164
0.00744206
0.00770669
0.00803202
0.00835749
0.00663709
0.00556403
0.000594315
-0.0048299
-0.00743742
-0.00718388
-0.00606252
-0.00538575
-0.00522238
-0.00517501
-0.00499098
-0.00476667
-0.00458554
-0.00438192
-0.00428507
-0.00430165
-0.00418301
-0.00398726
-0.00391273
-0.00390681
-0.00388637
-0.00382846
-0.00373662
-0.00368855
-0.00368778
-0.00363368
-0.00352353
-0.00344316
-0.00338672
-0.00328068
-0.00313776
-0.00301827
-0.00290342
-0.0027581
-0.00261137
-0.0024782
-0.00233443
-0.00218655
-0.00205239
-0.00191597
-0.00176742
-0.00162436
-0.00149224
-0.00135788
-0.00121848
-0.001082
-0.000949874
-0.000817982
-0.000685434
-0.000553743
-0.000423058
-0.000292598
-0.00016209
-3.1593e-05
9.89893e-05
0.000229841
0.000361077
0.000492762
0.000625021
0.000758016
0.000891977
0.00102708
0.00116359
0.00130161
0.00144146
0.00158311
0.00172694
0.0018727
0.00202103
0.00217129
0.00232455
0.00247962
0.00263824
0.00279842
0.00296272
0.00312836
0.00329852
0.00347019
0.00364607
0.00382461
0.00400586
0.00419221
0.00437862
0.00457316
0.00476561
0.00496724
0.00516831
0.00537463
0.00558728
0.00579741
0.00602139
0.00623957
0.00647007
0.0067041
0.0069384
0.00719163
0.00744205
0.00770663
0.00803184
0.00835772
0.00610499
0.00532741
0.000823995
-0.00446817
-0.00719188
-0.00708139
-0.00601664
-0.00534579
-0.0051807
-0.00513578
-0.00495705
-0.00473872
-0.00456451
-0.0043677
-0.00427229
-0.0042861
-0.00416817
-0.00397699
-0.00390528
-0.00389858
-0.00387647
-0.00381901
-0.00372909
-0.00368122
-0.00367901
-0.00362475
-0.0035158
-0.00343595
-0.00337944
-0.00327407
-0.00313226
-0.00301333
-0.00289879
-0.00275403
-0.00260793
-0.00247529
-0.00233206
-0.00218455
-0.00205054
-0.00191432
-0.00176614
-0.00162337
-0.00149137
-0.0013571
-0.00121785
-0.00108152
-0.000949475
-0.000817647
-0.000685166
-0.000553536
-0.000422898
-0.000292476
-0.000162
-3.15306e-05
9.9031e-05
0.000229868
0.000361092
0.00049277
0.000625025
0.000758017
0.000891977
0.00102708
0.00116359
0.00130161
0.00144146
0.00158311
0.00172694
0.0018727
0.00202103
0.00217129
0.00232456
0.00247962
0.00263824
0.00279842
0.00296272
0.00312836
0.00329852
0.00347019
0.00364607
0.00382461
0.00400586
0.00419221
0.00437862
0.00457316
0.00476561
0.00496724
0.00516831
0.00537463
0.00558728
0.00579741
0.00602139
0.00623957
0.00647007
0.00670409
0.0069384
0.00719161
0.00744203
0.00770655
0.00803161
0.00835794
0.00560149
0.00506286
0.00103498
-0.00410274
-0.00693284
-0.00697079
-0.00597007
-0.00530626
-0.00513762
-0.00509431
-0.00492111
-0.00470911
-0.00454203
-0.00435237
-0.00425866
-0.00426963
-0.00415228
-0.00396579
-0.00389711
-0.00388969
-0.00386581
-0.00380875
-0.00372084
-0.00367312
-0.0036692
-0.00361465
-0.00350702
-0.00342768
-0.00337098
-0.00326636
-0.00312583
-0.0030075
-0.00289324
-0.00274913
-0.00260374
-0.0024717
-0.00232911
-0.00218206
-0.00204821
-0.00191221
-0.00176449
-0.00162209
-0.00149023
-0.00135607
-0.00121701
-0.00108086
-0.000948928
-0.000817182
-0.000684788
-0.000553238
-0.000422664
-0.000292294
-0.000161862
-3.14307e-05
9.91005e-05
0.000229913
0.00036112
0.000492786
0.000625033
0.000758021
0.000891979
0.00102708
0.00116359
0.00130161
0.00144146
0.00158311
0.00172694
0.0018727
0.00202103
0.00217129
0.00232456
0.00247962
0.00263824
0.00279842
0.00296272
0.00312836
0.00329852
0.00347019
0.00364607
0.00382461
0.00400586
0.00419221
0.00437862
0.00457316
0.00476561
0.00496724