/*--------------------------------*- C++ -*----------------------------------*\
| =========                 |                                                 |
| \\      /  F ield         | OpenFOAM: The Open Source CFD Toolbox           |
|  \\    /   O peration     | Version:  v1812                                 |
|   \\  /    A nd           | Web:      www.OpenFOAM.com                      |
|    \\/     M anipulation  |                                                 |
\*---------------------------------------------------------------------------*/
FoamFile
{
    version     2.0;
    format      ascii;
    class       surfaceScalarField;
    location    "0.2";
    object      phi;
}
// * * * * * * * * * * * * * * * * * * * * * * * * * * * * * * * * * * * * * //

dimensions      [0 3 -1 0 0 0 0];
oriented        oriented;


internalField   nonuniform List<scalar> 
19000
(
1.17524e-06
-1.39016e-08
1.16803e-06
-1.12689e-07
1.18049e-06
-2.0138e-07
1.16576e-06
8.92471e-08
1.1686e-06
4.0792e-07
1.15975e-06
5.55867e-07
1.16215e-06
1.83016e-07
1.1359e-06
-3.98963e-07
1.17203e-06
-4.7409e-07
1.15248e-06
-6.2009e-07
1.13829e-06
-5.95214e-07
1.15364e-06
-1.62307e-07
1.16767e-06
-9.94618e-08
1.16163e-06
5.50212e-08
1.16831e-06
1.717e-07
1.15103e-06
6.27805e-08
1.1616e-06
3.95527e-07
1.13481e-06
1.25358e-07
1.14069e-06
2.681e-07
1.19501e-07
1.10393e-06
1.23013e-06
-1.97742e-08
1.2241e-06
-1.06651e-07
1.23693e-06
-2.14217e-07
1.2244e-06
1.01781e-07
1.22198e-06
4.10342e-07
1.22141e-06
5.56439e-07
1.21758e-06
1.86841e-07
1.19594e-06
-3.77322e-07
1.22584e-06
-5.03987e-07
1.20967e-06
-6.03924e-07
1.19521e-06
-5.80751e-07
1.21232e-06
-1.79423e-07
1.22146e-06
-1.08601e-07
1.22432e-06
5.21624e-08
1.21984e-06
1.76184e-07
1.21544e-06
6.718e-08
1.20619e-06
4.04778e-07
1.20447e-06
1.27075e-07
1.1811e-06
2.91467e-07
1.1155e-07
1.18905e-06
1.28634e-06
-2.33306e-08
1.28396e-06
-1.04274e-07
1.29421e-06
-2.24467e-07
1.28702e-06
1.08971e-07
1.27841e-06
4.18955e-07
1.28515e-06
5.49699e-07
1.27709e-06
1.94895e-07
1.2617e-06
-3.61928e-07
1.28086e-06
-5.23142e-07
1.27319e-06
-5.96256e-07
1.25438e-06
-5.61941e-07
1.27213e-06
-1.97173e-07
1.27643e-06
-1.12905e-07
1.28636e-06
4.22309e-08
1.27677e-06
1.85773e-07
1.27594e-06
6.8012e-08
1.26857e-06
4.1215e-07
1.26639e-06
1.29252e-07
1.25583e-06
3.02028e-07
1.19827e-07
1.24756e-06
1.34472e-06
-2.39431e-08
1.34649e-06
-1.06048e-07
1.35282e-06
-2.30794e-07
1.35114e-06
1.10651e-07
1.33889e-06
4.312e-07
1.34877e-06
5.39819e-07
1.34e-06
2.03663e-07
1.32976e-06
-3.51683e-07
1.33779e-06
-5.3117e-07
1.33686e-06
-5.95327e-07
1.31739e-06
-5.42471e-07
1.331e-06
-2.10783e-07
1.33513e-06
-1.17037e-07
1.34527e-06
3.20885e-08
1.33898e-06
1.92069e-07
1.33543e-06
7.15607e-08
1.33485e-06
4.12723e-07
1.33005e-06
1.34057e-07
1.32797e-06
3.04108e-07
1.33484e-07
1.31431e-06
1.40638e-06
-2.19667e-08
1.41096e-06
-1.10627e-07
1.41347e-06
-2.33309e-07
1.41526e-06
1.08865e-07
1.40356e-06
4.42896e-07
1.41313e-06
5.30256e-07
1.40659e-06
2.10202e-07
1.39903e-06
-3.4413e-07
1.39852e-06
-5.30653e-07
1.39993e-06
-5.96743e-07
1.38414e-06
-5.2668e-07
1.3926e-06
-2.19237e-07
1.39741e-06
-1.21851e-07
1.4062e-06
2.32998e-08
1.40385e-06
1.94422e-07
1.39897e-06
7.64382e-08
1.40179e-06
4.09898e-07
1.3967e-06
1.39153e-07
1.39863e-06
3.02172e-07
1.48388e-07
1.38373e-06
1.47228e-06
-1.85676e-08
1.47747e-06
-1.15821e-07
1.47716e-06
-2.32994e-07
1.48001e-06
1.06007e-07
1.47205e-06
4.50864e-07
1.48014e-06
5.22162e-07
1.47695e-06
2.13393e-07
1.47033e-06
-3.37514e-07
1.46418e-06
-5.24496e-07
1.4648e-06
-5.97365e-07
1.45349e-06
-5.15368e-07
1.459e-06
-2.24755e-07
1.46305e-06
-1.25895e-07
1.47091e-06
1.54376e-08
1.47124e-06
1.94092e-07
1.46692e-06
8.07542e-08
1.47201e-06
4.04813e-07
1.46664e-06
1.4452e-07
1.47149e-06
2.97322e-07
1.63882e-07
1.456e-06
1.54271e-06
-1.50642e-08
1.54675e-06
-1.19862e-07
1.54461e-06
-2.30849e-07
1.54709e-06
1.03529e-07
1.54394e-06
4.54012e-07
1.55131e-06
5.14787e-07
1.55095e-06
2.1376e-07
1.54462e-06
-3.31183e-07
1.53481e-06
-5.14694e-07
1.53328e-06
-5.9583e-07
1.52489e-06
-5.06981e-07
1.5297e-06
-2.29558e-07
1.53245e-06
-1.28651e-07
1.53948e-06
8.41122e-09
1.54164e-06
1.91926e-07
1.53859e-06
8.38036e-08
1.54597e-06
3.97437e-07
1.53989e-06
1.50604e-07
1.54682e-06
2.90392e-07
1.79646e-07
1.53105e-06
1.61738e-06
-1.23105e-08
1.61955e-06
-1.22034e-07
1.61614e-06
-2.27443e-07
1.61793e-06
1.01737e-07
1.61911e-06
4.5283e-07
1.62705e-06
5.06853e-07
1.62841e-06
2.12398e-07
1.62226e-06
-3.25033e-07
1.61003e-06
-5.0246e-07
1.60598e-06
-5.9178e-07
1.59876e-06
-4.99766e-07
1.60376e-06
-2.34558e-07
1.60575e-06
-1.30642e-07
1.61199e-06
2.17024e-09
1.61543e-06
1.88493e-07
1.61351e-06
8.5722e-08
1.62309e-06
3.87852e-07
1.61603e-06
1.57671e-07
1.62429e-06
2.82126e-07
1.9538e-07
1.60856e-06
1.69579e-06
-1.05242e-08
1.69628e-06
-1.22528e-07
1.69182e-06
-2.22978e-07
1.69324e-06
1.00317e-07
1.69766e-06
4.48406e-07
1.70694e-06
4.97574e-07
1.70915e-06
2.10185e-07
1.70322e-06
-3.19101e-07
1.68939e-06
-4.8863e-07
1.68294e-06
-5.85327e-07
1.67574e-06
-4.92569e-07
1.68083e-06
-2.39648e-07
1.68261e-06
-1.32421e-07
1.68827e-06
-3.49006e-09
1.69267e-06
1.8409e-07
1.69137e-06
8.70231e-08
1.70286e-06
3.7636e-07
1.69467e-06
1.65861e-07
1.70367e-06
2.73132e-07
2.10653e-07
1.68839e-06
1.77771e-06
-9.5088e-09
1.77711e-06
-1.21928e-07
1.77168e-06
-2.17554e-07
1.77308e-06
9.89222e-08
1.77965e-06
4.41835e-07
1.79038e-06
4.86839e-07
1.793e-06
2.07571e-07
1.78734e-06
-3.13448e-07
1.77261e-06
-4.73897e-07
1.76415e-06
-5.76867e-07
1.75633e-06
-4.8475e-07
1.7609e-06
-2.44217e-07
1.76259e-06
-1.34116e-07
1.76775e-06
-8.64846e-09
1.77302e-06
1.78827e-07
1.77179e-06
8.82509e-08
1.78481e-06
3.63339e-07
1.77556e-06
1.75113e-07
1.78476e-06
2.63929e-07
2.24832e-07
1.77058e-06
1.8632e-06
-8.96235e-09
1.86205e-06
-1.20779e-07
1.85582e-06
-2.11323e-07
1.85732e-06
9.74243e-08
1.86511e-06
4.34047e-07
1.87702e-06
4.74929e-07
1.87991e-06
2.04679e-07
1.87458e-06
-3.08117e-07
1.85953e-06
-4.58847e-07
1.84963e-06
-5.66967e-07
1.84087e-06
-4.75992e-07
1.84415e-06
-2.47499e-07
1.84553e-06
-1.35496e-07
1.84996e-06
-1.30778e-08
1.85597e-06
1.72821e-07
1.85438e-06
8.98413e-08
1.86855e-06
3.49171e-07
1.85859e-06
1.85069e-07
1.86757e-06
2.54948e-07
2.37135e-07
1.85527e-06
1.95253e-06
-8.65217e-09
1.95118e-06
-1.19427e-07
1.94434e-06
-2.04485e-07
1.9459e-06
9.58602e-08
1.95419e-06
4.25762e-07
1.9669e-06
4.62215e-07
1.97011e-06
2.01474e-07
1.96508e-06
-3.03085e-07
1.95014e-06
-4.43909e-07
1.93937e-06
-5.56196e-07
1.92961e-06
-4.66236e-07
1.93095e-06
-2.48837e-07
1.9317e-06
-1.36242e-07
1.93496e-06
-1.63418e-08
1.94147e-06
1.66307e-07
1.93922e-06
9.20915e-08
1.95414e-06
3.34251e-07
1.9441e-06
1.95113e-07
1.95252e-06
2.46531e-07
2.46786e-07
1.94286e-06
2.04598e-06
-8.44447e-09
2.04459e-06
-1.18041e-07
2.03733e-06
-1.9722e-07
2.0389e-06
9.42944e-08
2.04722e-06
4.17434e-07
2.06044e-06
4.48994e-07
2.06401e-06
1.97908e-07
2.05917e-06
-2.98244e-07
2.04458e-06
-4.29314e-07
2.03333e-06
-5.44947e-07
2.02274e-06
-4.55655e-07
2.02178e-06
-2.47875e-07
2.02173e-06
-1.36184e-07
2.02343e-06
-1.80416e-08
2.03014e-06
1.59593e-07
2.02711e-06
9.51261e-08
2.04235e-06
3.1901e-07
2.03292e-06
2.04534e-07
2.04054e-06
2.38914e-07
2.53269e-07
2.03406e-06
2.14383e-06
-8.27163e-09
2.14247e-06
-1.1668e-07
2.1349e-06
-1.89651e-07
2.13645e-06
9.27414e-08
2.14463e-06
4.0926e-07
2.15817e-06
4.35453e-07
2.16209e-06
1.93985e-07
2.15728e-06
-2.9343e-07
2.14311e-06
-4.15144e-07
2.1315e-06
-5.33342e-07
2.12043e-06
-4.44587e-07
2.11717e-06
-2.44614e-07
2.11638e-06
-1.35394e-07
2.11637e-06
-1.80314e-08
2.12301e-06
1.52955e-07
2.11928e-06
9.88594e-08
2.13437e-06
3.03914e-07
2.12618e-06
2.12723e-07
2.13286e-06
2.32237e-07
2.56485e-07
2.12964e-06
2.24632e-06
-8.09878e-09
2.245e-06
-1.15361e-07
2.23718e-06
-1.81835e-07
2.23876e-06
9.11663e-08
2.24677e-06
4.01245e-07
2.26053e-06
4.21692e-07
2.26477e-06
1.89749e-07
2.2598e-06
-2.88464e-07
2.24606e-06
-4.01406e-07
2.23399e-06
-5.21269e-07
2.22282e-06
-4.33418e-07
2.21753e-06
-2.39323e-07
2.21625e-06
-1.34115e-07
2.2147e-06
-1.64816e-08
2.22107e-06
1.4659e-07
2.21691e-06
1.03016e-07
2.23142e-06
2.89408e-07
2.22485e-06
2.19293e-07
2.23058e-06
2.26509e-07
2.56788e-07
2.23027e-06
2.35368e-06
-7.90619e-09
2.35241e-06
-1.14089e-07
2.34437e-06
-1.73792e-07
2.34601e-06
8.95213e-08
2.35395e-06
3.93306e-07
2.36787e-06
4.07772e-07
2.37238e-06
1.85244e-07
2.36709e-06
-2.83182e-07
2.3538e-06
-3.88115e-07
2.34103e-06
-5.08495e-07
2.33009e-06
-4.2248e-07
2.32314e-06
-2.32374e-07
2.32164e-06
-1.32617e-07
2.31896e-06
-1.37962e-08
2.32491e-06
1.40638e-07
2.32073e-06
1.07199e-07
2.33427e-06
2.75866e-07
2.32946e-06
2.24101e-07
2.33431e-06
2.21665e-07
2.54773e-07
2.33632e-06
2.46617e-06
-7.68226e-09
2.46495e-06
-1.12868e-07
2.45669e-06
-1.6553e-07
2.45843e-06
8.77751e-08
2.46639e-06
3.85349e-07
2.48041e-06
3.93751e-07
2.48518e-06
1.80478e-07
2.47943e-06
-2.77437e-07
2.46664e-06
-3.75322e-07
2.45293e-06
-4.94788e-07
2.44243e-06
-4.11981e-07
2.4342e-06
-2.24138e-07
2.43264e-06
-1.31061e-07
2.42932e-06
-1.04788e-08
2.43472e-06
1.35241e-07
2.43091e-06
1.11011e-07
2.44326e-06
2.63511e-07
2.44013e-06
2.27237e-07
2.44423e-06
2.17558e-07
2.51063e-07
2.44794e-06
2.58403e-06
-7.42065e-09
2.58287e-06
-1.11703e-07
2.5744e-06
-1.57058e-07
2.57625e-06
8.59223e-08
2.5843e-06
3.77295e-07
2.59835e-06
3.79705e-07
2.60341e-06
1.75416e-07
2.59708e-06
-2.71107e-07
2.58486e-06
-3.63097e-07
2.57005e-06
-4.79986e-07
2.56008e-06
-4.02007e-07
2.55088e-06
-2.1494e-07
2.54926e-06
-1.29435e-07
2.5458e-06
-7.02662e-09
2.55048e-06
1.3057e-07
2.54733e-06
1.14159e-07
2.5585e-06
2.5234e-07
2.55672e-06
2.29012e-07
2.56035e-06
2.13935e-07
2.462e-07
2.56521e-06
2.70753e-06
-7.11877e-09
2.70642e-06
-1.10598e-07
2.69776e-06
-1.48399e-07
2.6997e-06
8.39814e-08
2.70792e-06
3.69083e-07
2.72189e-06
3.65728e-07
2.72732e-06
1.69987e-07
2.7203e-06
-2.64082e-07
2.70871e-06
-3.51507e-07
2.69275e-06
-4.64031e-07
2.68327e-06
-3.92524e-07
2.6734e-06
-2.05076e-07
2.67156e-06
-1.27588e-07
2.6684e-06
-3.86504e-09
2.67217e-06
1.26798e-07
2.66982e-06
1.16503e-07
2.67999e-06
2.42169e-07
2.6792e-06
2.29803e-07
2.6826e-06
2.10536e-07
2.40575e-07
2.68823e-06
2.83693e-06
-6.77697e-09
2.83588e-06
-1.09556e-07
2.82707e-06
-1.39586e-07
2.82906e-06
8.19889e-08
2.83749e-06
3.60659e-07
2.85128e-06
3.51931e-07
2.85717e-06
1.64105e-07
2.84936e-06
-2.56271e-07
2.83844e-06
-3.4059e-07
2.82137e-06
-4.46966e-07
2.81225e-06
-3.834e-07
2.80202e-06
-1.94851e-07
2.7997e-06
-1.25267e-07
2.79716e-06
-1.3177e-09
2.79993e-06
1.24027e-07
2.79833e-06
1.18102e-07
2.8078e-06
2.32697e-07
2.80769e-06
2.29916e-07
2.811e-06
2.07221e-07
2.34388e-07
2.81719e-06
2.97252e-06
-6.39831e-09
2.97153e-06
-1.08572e-07
2.96261e-06
-1.30665e-07
2.9646e-06
7.99964e-08
2.9733e-06
3.51968e-07
2.98679e-06
3.38437e-07
2.99321e-06
1.5768e-07
2.98456e-06
-2.47615e-07
2.9743e-06
-3.30335e-07
2.95626e-06
-4.28925e-07
2.94728e-06
-3.74419e-07
2.93702e-06
-1.84589e-07
2.93394e-06
-1.22186e-07
2.93221e-06
4.07125e-10
2.934e-06
1.2224e-07
2.93292e-06
1.19188e-07
2.94202e-06
2.23597e-07
2.94243e-06
2.29498e-07
2.94565e-06
2.04e-07
2.27702e-07
2.95234e-06
3.1146e-06
-5.98875e-09
3.11366e-06
-1.07633e-07
3.10469e-06
-1.21695e-07
3.10662e-06
7.80685e-08
3.11563e-06
3.42951e-07
3.12871e-06
3.25365e-07
3.13574e-06
1.5064e-07
3.12623e-06
-2.38099e-07
3.11656e-06
-3.20671e-07
3.09776e-06
-4.10119e-07
3.08864e-06
-3.65297e-07
3.07869e-06
-1.74643e-07
3.07457e-06
-1.18067e-07
3.07375e-06
1.22534e-09
3.07474e-06
1.21254e-07
3.07382e-06
1.20111e-07
3.08281e-06
2.14607e-07
3.08376e-06
2.2854e-07
3.08677e-06
2.00991e-07
2.20524e-07
3.09395e-06
3.26348e-06
-5.55746e-09
3.26256e-06
-1.06719e-07
3.25362e-06
-1.12748e-07
3.2554e-06
7.62822e-08
3.26481e-06
3.33543e-07
3.27735e-06
3.12828e-07
3.28504e-06
1.42947e-07
3.2747e-06
-2.2776e-07
3.26549e-06
-3.1146e-07
3.24621e-06
-3.90838e-07
3.23662e-06
-3.55705e-07
3.22732e-06
-1.65343e-07
3.22197e-06
-1.12714e-07
3.22196e-06
1.23417e-09
3.22248e-06
1.20734e-07
3.22139e-06
1.21202e-07
3.23036e-06
2.0563e-07
3.23201e-06
2.26894e-07
3.23466e-06
1.98342e-07
2.12898e-07
3.24229e-06
3.41949e-06
-5.11696e-09
3.41857e-06
-1.058e-07
3.40973e-06
-1.03912e-07
3.41129e-06
7.47254e-08
3.42115e-06
3.23685e-07
3.43306e-06
3.00913e-07
3.4414e-06
1.34611e-07
3.43034e-06
-2.16703e-07
3.42139e-06
-3.02509e-07
3.40196e-06
-3.71404e-07
3.39158e-06
-3.45323e-07
3.38317e-06
-1.56935e-07
3.37655e-06
-1.06092e-07
3.37706e-06
7.20164e-10
3.37751e-06
1.20285e-07
3.37609e-06
1.22624e-07
3.38495e-06
1.96771e-07
3.38749e-06
2.24348e-07
3.38969e-06
1.96146e-07
2.04966e-07
3.39762e-06
3.58298e-06
-4.68333e-09
3.58201e-06
-1.04831e-07
3.57338e-06
-9.52868e-08
3.57462e-06
7.34937e-08
3.58498e-06
3.13321e-07
3.59621e-06
2.89681e-07
3.60512e-06
1.25704e-07
3.59352e-06
-2.05102e-07
3.58458e-06
-2.93572e-07
3.56534e-06
-3.52168e-07
3.55388e-06
-3.33859e-07
3.54647e-06
-1.49525e-07
3.53876e-06
-9.83825e-08
3.53939e-06
8.96442e-11
3.5401e-06
1.19574e-07
3.53834e-06
1.24391e-07
3.5469e-06
1.88203e-07
3.55051e-06
2.20746e-07
3.55227e-06
1.94381e-07
1.96977e-07
3.56026e-06
3.7543e-06
-4.27626e-09
3.75322e-06
-1.03757e-07
3.74493e-06
-8.69896e-08
3.74574e-06
7.26831e-08
3.75664e-06
3.02416e-07
3.76717e-06
2.79153e-07
3.77651e-06
1.16362e-07
3.76462e-06
-1.93205e-07
3.75541e-06
-2.84362e-07
3.73671e-06
-3.3347e-07
3.72396e-06
-3.21114e-07
3.71747e-06
-1.43036e-07
3.70903e-06
-8.99367e-08
3.70936e-06
-2.42459e-10
3.71055e-06
1.18389e-07
3.70855e-06
1.26391e-07
3.71664e-06
1.80104e-07
3.72134e-06
2.16046e-07
3.72283e-06
1.92896e-07
1.89247e-07
3.73056e-06
3.93383e-06
-3.91894e-09
3.93258e-06
-1.02507e-07
3.92474e-06
-7.91439e-08
3.92504e-06
7.23785e-08
3.9365e-06
2.90961e-07
3.94635e-06
2.69303e-07
3.95592e-06
1.06787e-07
3.94403e-06
-1.81311e-07
3.93426e-06
-2.74594e-07
3.91635e-06
-3.15562e-07
3.90233e-06
-3.0709e-07
3.89646e-06
-1.37171e-07
3.88772e-06
-8.11947e-08
3.88746e-06
1.96538e-11
3.88914e-06
1.16703e-07
3.88711e-06
1.28426e-07
3.89461e-06
1.72604e-07
3.90033e-06
2.10325e-07
3.90178e-06
1.91444e-07
1.82085e-07
3.90894e-06
4.12197e-06
-3.63867e-09
4.12046e-06
-1.00996e-07
4.1132e-06
-7.18807e-08
4.11293e-06
7.26441e-08
4.1249e-06
2.78987e-07
4.13416e-06
2.60049e-07
4.1437e-06
9.72481e-08
4.13215e-06
-1.6977e-07
4.12156e-06
-2.63997e-07
4.10457e-06
-2.98569e-07
4.08946e-06
-2.91981e-07
4.08382e-06
-1.31532e-07
4.07517e-06
-7.25467e-08
4.07417e-06
1.01545e-09
4.07626e-06
1.14612e-07
4.07441e-06
1.30285e-07
4.08123e-06
1.6578e-07
4.08782e-06
2.0373e-07
4.08952e-06
1.89748e-07
1.75735e-07
4.09587e-06
4.31913e-06
-3.46626e-09
4.31726e-06
-9.91247e-08
4.31071e-06
-6.53272e-08
4.30984e-06
7.35096e-08
4.32225e-06
2.66574e-07
4.33104e-06
2.51261e-07
4.34024e-06
8.80494e-08
4.32939e-06
-1.58922e-07
4.31777e-06
-2.52379e-07
4.30165e-06
-2.82447e-07
4.28582e-06
-2.76147e-07
4.28001e-06
-1.25726e-07
4.27169e-06
-6.42224e-08
4.27e-06
2.6998e-09
4.27235e-06
1.12261e-07
4.27081e-06
1.31825e-07
4.27696e-06
1.59633e-07
4.28424e-06
1.96451e-07
4.28644e-06
1.87547e-07
1.70323e-07
4.29185e-06
4.52574e-06
-3.43497e-09
4.52341e-06
-9.67884e-08
4.51767e-06
-5.95918e-08
4.51623e-06
7.49523e-08
4.52894e-06
2.53861e-07
4.53745e-06
2.4275e-07
4.54599e-06
7.95084e-08
4.53611e-06
-1.49036e-07
4.52342e-06
-2.39689e-07
4.50796e-06
-2.6699e-07
4.49184e-06
-2.60023e-07
4.48559e-06
-1.19482e-07
4.4776e-06
-5.62313e-08
4.47542e-06
4.87926e-09
4.47789e-06
1.09789e-07
4.47675e-06
1.32969e-07
4.48226e-06
1.54125e-07
4.49e-06
1.88706e-07
4.49293e-06
1.84619e-07
1.65828e-07
4.49743e-06
4.74226e-06
-3.58031e-09
4.73935e-06
-9.38774e-08
4.73451e-06
-5.4756e-08
4.73258e-06
7.68846e-08
4.74539e-06
2.41049e-07
4.75385e-06
2.34298e-07
4.76144e-06
7.19136e-08
4.75266e-06
-1.40261e-07
4.73904e-06
-2.26067e-07
4.72391e-06
-2.51861e-07
4.70791e-06
-2.44016e-07
4.70111e-06
-1.12684e-07
4.69334e-06
-4.84593e-08
4.69086e-06
7.35888e-09
4.69341e-06
1.07234e-07
4.69268e-06
1.33699e-07
4.69759e-06
1.49221e-07
4.7056e-06
1.80692e-07
4.70939e-06
1.80829e-07
1.6208e-07
4.71314e-06
4.96916e-06
-3.93809e-09
4.96556e-06
-9.02861e-08
4.96167e-06
-5.08663e-08
4.95941e-06
7.91527e-08
4.97206e-06
2.28391e-07
4.9807e-06
2.25667e-07
4.98709e-06
6.55144e-08
4.97944e-06
-1.32611e-07
4.96521e-06
-2.11828e-07
4.95002e-06
-2.36672e-07
4.93439e-06
-2.28387e-07
4.92714e-06
-1.05434e-07
4.9194e-06
-4.07231e-08
4.91672e-06
1.00349e-08
4.91941e-06
1.04551e-07
4.91912e-06
1.33989e-07
4.92344e-06
1.44899e-07
4.93151e-06
1.72624e-07
4.93622e-06
1.76115e-07
1.588e-07
4.9395e-06
5.20692e-06
-4.54172e-09
5.20256e-06
-8.59282e-08
5.19962e-06
-4.79192e-08
5.19723e-06
8.15333e-08
5.20943e-06
2.16193e-07
5.21848e-06
2.16618e-07
5.22353e-06
6.04673e-08
5.21683e-06
-1.25916e-07
5.20245e-06
-1.97441e-07
5.18684e-06
-2.2106e-07
5.17165e-06
-2.13202e-07
5.16424e-06
-9.80202e-08
5.15636e-06
-3.28504e-08
5.15347e-06
1.29306e-08
5.1564e-06
1.01614e-07
5.15654e-06
1.33855e-07
5.16036e-06
1.41076e-07
5.16828e-06
1.64705e-07
5.17385e-06
1.70542e-07
1.55663e-07
5.17699e-06
5.45607e-06
-5.41797e-09
5.45088e-06
-8.07473e-08
5.44882e-06
-4.58557e-08
5.44661e-06
8.37407e-08
5.45802e-06
2.04787e-07
5.46768e-06
2.06954e-07
5.47136e-06
5.67874e-08
5.46529e-06
-1.1984e-07
5.45125e-06
-1.83399e-07
5.43504e-06
-2.04851e-07
5.42015e-06
-1.98316e-07
5.41286e-06
-9.07274e-08
5.40491e-06
-2.49045e-08
5.40159e-06
1.62517e-08
5.40485e-06
9.83527e-08
5.40552e-06
1.33185e-07
5.40887e-06
1.37726e-07
5.4165e-06
1.57072e-07
5.42275e-06
1.64301e-07
1.52324e-07
5.42609e-06
5.71713e-06
-6.58551e-09
5.71111e-06
-7.47268e-08
5.7098e-06
-4.45517e-08
5.70809e-06
8.54502e-08
5.7184e-06
1.94477e-07
5.72877e-06
1.96589e-07
5.73123e-06
5.43231e-08
5.72533e-06
-1.13935e-07
5.71206e-06
-1.70136e-07
5.69528e-06
-1.88069e-07
5.68041e-06
-1.83443e-07
5.67345e-06
-8.37689e-08
5.66566e-06
-1.71159e-08
5.66176e-06
2.01571e-08
5.6652e-06
9.49069e-08
5.66661e-06
1.31782e-07
5.66957e-06
1.3476e-07
5.67676e-06
1.49884e-07
5.68346e-06
1.57598e-07
1.48539e-07
5.68725e-06
5.99066e-06
-8.05288e-09
5.98383e-06
-6.78924e-08
5.98309e-06
-4.38187e-08
5.98223e-06
8.63113e-08
5.9912e-06
1.85507e-07
6.00221e-06
1.8558e-07
6.00379e-06
5.27487e-08
5.99756e-06
-1.0771e-07
5.98534e-06
-1.57912e-07
5.96828e-06
-1.71018e-07
5.95303e-06
-1.68192e-07
5.94649e-06
-7.72277e-08
5.9392e-06
-9.82366e-09
5.93467e-06
2.46861e-08
5.93805e-06
9.153e-08
5.94025e-06
1.29578e-07
5.94307e-06
1.31947e-07
5.94968e-06
1.43268e-07
5.95659e-06
1.50692e-07
1.4412e-07
5.96101e-06
6.27725e-06
-9.81459e-09
6.26967e-06
-6.03142e-08
6.26926e-06
-4.3408e-08
6.26959e-06
8.59795e-08
6.2771e-06
1.77999e-07
6.28851e-06
1.7417e-07
6.28964e-06
5.16171e-08
6.28269e-06
-1.00756e-07
6.27151e-06
-1.46739e-07
6.25466e-06
-1.5416e-07
6.23881e-06
-1.52349e-07
6.23247e-06
-7.08846e-08
6.22602e-06
-3.37327e-09
6.22108e-06
2.9624e-08
6.22403e-06
8.85857e-08
6.227e-06
1.26609e-07
6.22991e-06
1.29037e-07
6.23597e-06
1.37205e-07
6.24279e-06
1.43871e-07
1.39016e-07
6.24789e-06
6.5775e-06
-1.18482e-08
6.5693e-06
-5.21139e-08
6.56892e-06
-4.30245e-08
6.57074e-06
8.41605e-08
6.57682e-06
1.71921e-07
6.58821e-06
1.62774e-07
6.58941e-06
5.04242e-08
6.58145e-06
-9.28029e-08
6.57112e-06
-1.36411e-07
6.555e-06
-1.38033e-07
6.53855e-06
-1.35907e-07
6.53201e-06
-6.43441e-08
6.52662e-06
2.02077e-09
6.52164e-06
3.46084e-08
6.52394e-06
8.6285e-08
6.52745e-06
1.23095e-07
6.53056e-06
1.25928e-07
6.5363e-06
1.31462e-07
6.5428e-06
1.37374e-07
1.33368e-07
6.54845e-06
6.89206e-06
-1.41156e-08
6.8834e-06
-4.34541e-08
6.88273e-06
-4.23572e-08
6.88625e-06
8.06441e-08
6.89109e-06
1.67075e-07
6.90194e-06
1.51923e-07
6.90365e-06
4.87142e-08
6.89467e-06
-8.38223e-08
6.88476e-06
-1.26497e-07
6.86985e-06
-1.2312e-07
6.85302e-06
-1.1908e-07
6.84586e-06
-5.71814e-08
6.84155e-06
6.32687e-09
6.8369e-06
3.92575e-08
6.83858e-06
8.46104e-08
6.84231e-06
1.19365e-07
6.84561e-06
1.22627e-07
6.85127e-06
1.25796e-07
6.85735e-06
1.31293e-07
1.27446e-07
6.86328e-06
7.22158e-06
-1.65571e-08
7.21267e-06
-3.45434e-08
7.21141e-06
-4.1096e-08
7.21672e-06
7.533e-08
7.2207e-06
1.631e-07
7.2304e-06
1.4222e-07
7.23296e-06
4.61484e-08
7.22319e-06
-7.40533e-08
7.21312e-06
-1.16422e-07
7.1997e-06
-1.097e-07
7.18297e-06
-1.02346e-07
7.17491e-06
-4.91246e-08
7.17135e-06
9.8845e-09
7.16748e-06
4.31253e-08
7.16866e-06
8.34364e-08
7.17236e-06
1.15659e-07
7.17577e-06
1.19221e-07
7.18138e-06
1.20189e-07
7.18723e-06
1.25443e-07
1.21618e-07
7.19305e-06
7.56676e-06
-1.90919e-08
7.55785e-06
-2.56369e-08
7.5557e-06
-3.89444e-08
7.56279e-06
6.82425e-08
7.56638e-06
1.59513e-07
7.57439e-06
1.3421e-07
7.57789e-06
4.26458e-08
7.56785e-06
-6.40153e-08
7.55705e-06
-1.05621e-07
7.54509e-06
-9.77451e-08
7.52913e-06
-8.63792e-08
7.52006e-06
-4.00517e-08
7.51675e-06
1.31864e-08
7.51392e-06
4.59592e-08
7.51487e-06
8.24827e-08
7.51847e-06
1.12066e-07
7.52181e-06
1.15879e-07
7.52721e-06
1.14786e-07
7.53314e-06
1.19519e-07
1.16195e-07
7.53856e-06
7.92834e-06
-2.1622e-08
7.91972e-06
-1.70137e-08
7.91643e-06
-3.56514e-08
7.92514e-06
5.95294e-08
7.92888e-06
1.55772e-07
7.9348e-06
1.28291e-07
7.93901e-06
3.84338e-08
7.92942e-06
-5.4427e-08
7.9175e-06
-9.36991e-08
7.90662e-06
-8.68616e-08
7.89213e-06
-7.18885e-08
7.88224e-06
-3.01695e-08
7.87864e-06
1.67901e-08
7.87676e-06
4.78376e-08
7.87792e-06
8.13234e-08
7.88138e-06
1.08606e-07
7.88456e-06
1.12696e-07
7.88961e-06
1.09736e-07
7.89566e-06
1.13475e-07
1.1112e-07
7.90073e-06
8.30709e-06
-2.40292e-08
8.29905e-06
-8.97574e-09
8.29445e-06
-3.10476e-08
8.30446e-06
4.95158e-08
8.30896e-06
1.51272e-07
8.31258e-06
1.24666e-07
8.31698e-06
3.40393e-08
8.30862e-06
-4.60679e-08
8.29553e-06
-8.06049e-08
8.28504e-06
-7.63809e-08
8.27243e-06
-5.9274e-08
8.26239e-06
-2.01336e-08
8.25804e-06
2.1147e-08
8.25673e-06
4.91461e-08
8.25844e-06
7.961e-08
8.26188e-06
1.05172e-07
8.26489e-06
1.09686e-07
8.26945e-06
1.05174e-07
8.27548e-06
1.07442e-07
1.06169e-07
8.28043e-06
8.70381e-06
-2.61818e-08
8.69668e-06
-1.83847e-09
8.69066e-06
-2.5029e-08
8.70154e-06
3.86317e-08
8.70733e-06
1.45487e-07
8.70873e-06
1.23261e-07
8.71262e-06
3.01557e-08
8.70603e-06
-3.94819e-08
8.69222e-06
-6.6794e-08
8.68132e-06
-6.54788e-08
8.67062e-06
-4.85796e-08
8.66125e-06
-1.0757e-08
8.65607e-06
2.63253e-08
8.65474e-06
5.04785e-08
8.65701e-06
7.73388e-08
8.66076e-06
1.01421e-07
8.66365e-06
1.06797e-07
8.66757e-06
1.01253e-07
8.67349e-06
1.01522e-07
1.01322e-07
8.67834e-06
9.11938e-06
-2.79389e-08
9.11344e-06
4.09409e-09
9.10601e-06
-1.75928e-08
9.11722e-06
2.74188e-08
9.1247e-06
1.38004e-07
9.12423e-06
1.23735e-07
9.12687e-06
2.7513e-08
9.12228e-06
-3.48922e-08
9.10852e-06
-5.30357e-08
9.09662e-06
-5.35755e-08
9.08739e-06
-3.93472e-08
9.07939e-06
-2.75742e-09
9.07378e-06
3.19371e-08
9.07186e-06
5.2393e-08
9.07437e-06
7.48281e-08
9.07873e-06
9.70648e-08
9.08174e-06
1.03791e-07
9.08491e-06
9.80738e-08
9.09055e-06
9.58896e-08
9.65581e-08
9.09531e-06
9.55468e-06
-2.91633e-08
9.55023e-06
8.55032e-09
9.54148e-06
-8.8398e-09
9.55236e-06
1.65295e-08
9.56186e-06
1.28504e-07
9.56008e-06
1.25518e-07
9.56078e-06
2.68174e-08
9.55803e-06
-3.21499e-08
9.54534e-06
-4.03393e-08
9.53214e-06
-4.03777e-08
9.52363e-06
-3.0835e-08
9.51742e-06
3.45446e-09
9.51205e-06
3.73006e-08
9.50933e-06
5.51141e-08
9.51154e-06
7.26221e-08
9.51643e-06
9.21738e-08
9.52001e-06
1.00206e-07
9.52251e-06
9.55724e-08
9.52749e-06
9.09128e-08
9.17104e-08
9.53234e-06
1.00107e-05
-2.97224e-08
1.00079e-05
1.13196e-08
9.99809e-06
9.92305e-10
1.00079e-05
6.68199e-09
1.00196e-05
1.16873e-07
1.00173e-05
1.27809e-07
1.00155e-05
2.86145e-08
1.00141e-05
-3.0778e-08
1.00033e-05
-2.95544e-08
9.98916e-06
-2.6216e-08
9.98043e-06
-2.20987e-08
9.97602e-06
7.86e-09
9.97165e-06
4.16726e-08
9.9683e-06
5.84642e-08
9.96963e-06
7.12943e-08
9.97468e-06
8.71217e-08
9.97921e-06
9.56806e-08
9.98149e-06
9.32851e-08
9.98536e-06
8.70461e-08
8.66881e-08
9.99038e-06
1.04884e-05
-2.95074e-08
1.04875e-05
1.22701e-08
1.04769e-05
1.15878e-08
1.0485e-05
-1.44508e-09
1.04987e-05
1.03176e-07
1.04968e-05
1.29744e-07
1.04922e-05
3.31395e-08
1.04914e-05
-2.99143e-08
1.04832e-05
-2.14246e-08
1.04688e-05
-1.17907e-08
1.04591e-05
-1.23847e-08
1.0456e-05
1.09718e-08
1.04533e-05
4.44099e-08
1.04498e-05
6.19219e-08
1.045e-05
7.11321e-08
1.04546e-05
8.25198e-08
1.04599e-05
9.03392e-08
1.04628e-05
9.04029e-08
1.04655e-05
8.43662e-08
8.18482e-08
1.04703e-05
1.0989e-05
-2.84399e-08
1.09898e-05
1.13904e-08
1.09789e-05
2.2513e-08
1.09847e-05
-7.27528e-09
1.10002e-05
8.77365e-08
1.09994e-05
1.3048e-07
1.09923e-05
4.02626e-08
1.0991e-05
-2.86167e-08
1.09858e-05
-1.61909e-08
1.09721e-05
1.90693e-09
1.09611e-05
-1.41204e-09
1.09584e-05
1.37143e-08
1.09575e-05
4.52365e-08
1.09547e-05
6.47387e-08
1.09538e-05
7.20267e-08
1.09574e-05
7.89568e-08
1.0963e-05
8.47477e-08
1.09671e-05
8.63351e-08
1.09692e-05
8.22621e-08
7.7802e-08
1.09732e-05
1.15134e-05
-2.64937e-08
1.1516e-05
8.81406e-09
1.15053e-05
3.32299e-08
1.15083e-05
-1.03457e-08
1.1525e-05
7.10549e-08
1.15262e-05
1.29294e-07
1.1517e-05
4.95136e-08
1.15143e-05
-2.59175e-08
1.15117e-05
-1.36268e-08
1.14999e-05
1.36923e-08
1.14878e-05
1.07203e-08
1.14845e-05
1.70243e-08
1.14853e-05
4.44192e-08
1.14839e-05
6.61132e-08
1.14823e-05
7.36073e-08
1.14846e-05
7.67151e-08
1.14897e-05
7.96066e-08
1.14948e-05
8.12462e-08
1.14974e-05
7.96887e-08
7.47768e-08
1.15004e-05
1.2063e-05
-2.37007e-08
1.2067e-05
4.80994e-09
1.20571e-05
4.31702e-08
1.20572e-05
-1.04537e-08
1.20744e-05
5.38943e-08
1.20781e-05
1.25591e-07
1.20673e-05
6.0234e-08
1.20626e-05
-2.1172e-08
1.20621e-05
-1.31308e-08
1.2053e-05
2.27858e-08
1.20404e-05
2.33651e-08
1.20358e-05
2.16333e-08
1.20375e-05
4.26518e-08
1.20381e-05
6.55495e-08
1.20365e-05
7.51779e-08
1.20375e-05
7.57405e-08
1.20416e-05
7.54708e-08
1.2047e-05
7.58476e-08
1.20508e-05
7.59388e-08
7.23209e-08
1.20532e-05
1.2639e-05
-2.01556e-08
1.26441e-05
-2.09393e-10
1.26355e-05
5.17244e-08
1.26327e-05
-7.60134e-09
1.26494e-05
3.71297e-08
1.26559e-05
1.19128e-07
1.26447e-05
7.14076e-08
1.26375e-05
-1.39661e-08
1.26381e-05
-1.37387e-08
1.26323e-05
2.86488e-08
1.262e-05
3.56211e-08
1.26138e-05
2.78065e-08
1.26156e-05
4.09051e-08
1.2618e-05
6.313e-08
1.26174e-05
7.57842e-08
1.26173e-05
7.5829e-08
1.26202e-05
7.25181e-08
1.26252e-05
7.08743e-08
1.26299e-05
7.12343e-08
6.94734e-08
1.26328e-05
1.32428e-05
-1.60135e-08
1.32483e-05
-5.74886e-09
1.32417e-05
5.8338e-08
1.32361e-05
-2.02211e-09
1.32515e-05
2.17452e-08
1.32608e-05
1.09848e-07
1.32502e-05
8.19906e-08
1.32405e-05
-4.27161e-09
1.32411e-05
-1.43226e-08
1.32386e-05
3.12005e-08
1.32277e-05
4.64311e-08
1.32202e-05
3.53801e-08
1.3221e-05
4.00835e-08
1.32247e-05
5.93817e-08
1.32258e-05
7.47334e-08
1.32252e-05
7.64413e-08
1.3227e-05
7.07148e-08
1.32311e-05
6.67867e-08
1.3236e-05
6.63426e-08
6.56709e-08
1.32398e-05
1.38756e-05
-1.14813e-08
1.38811e-05
-1.12531e-08
1.38769e-05
6.25909e-08
1.38691e-05
5.75374e-09
1.38821e-05
8.70739e-09
1.38939e-05
9.8119e-08
1.38851e-05
9.07942e-08
1.38732e-05
7.61573e-09
1.38727e-05
-1.37887e-08
1.38731e-05
3.07951e-08
1.38647e-05
5.4818e-08
1.38561e-05
4.39015e-08
1.38555e-05
4.07577e-08
1.38597e-05
5.51189e-08
1.38626e-05
7.18618e-08
1.38624e-05
7.66329e-08
1.38631e-05
7.00703e-08
1.38662e-05
6.36293e-08
1.38706e-05
6.19387e-08
6.12754e-08
1.3875e-05
1.4539e-05
-6.80927e-09
1.45439e-05
-1.61508e-08
1.45423e-05
6.42091e-08
1.4533e-05
1.50384e-08
1.45428e-05
-1.12773e-09
1.45565e-05
8.44821e-08
1.45504e-05
9.68238e-08
1.4537e-05
2.10821e-08
1.45344e-05
-1.12514e-08
1.45371e-05
2.81543e-08
1.45318e-05
6.01241e-08
1.45231e-05
5.26065e-08
1.45207e-05
4.30645e-08
1.45246e-05
5.12541e-08
1.45289e-05
6.75291e-08
1.45301e-05
7.55245e-08
1.45298e-05
7.02833e-08
1.45321e-05
6.14153e-08
1.45357e-05
5.82861e-08
5.70116e-08
1.454e-05
1.52343e-05
-2.26077e-09
1.52381e-05
-1.9937e-08
1.52392e-05
6.31541e-08
1.52292e-05
2.49753e-08
1.52352e-05
-7.11607e-09
1.525e-05
6.96793e-08
1.52474e-05
9.94789e-08
1.52333e-05
3.51465e-08
1.52283e-05
-6.23929e-09
1.52321e-05
2.43205e-08
1.52301e-05
6.21594e-08
1.52222e-05
6.05296e-08
1.52184e-05
4.68097e-08
1.52211e-05
4.85377e-08
1.52263e-05
6.23807e-08
1.52291e-05
7.27598e-08
1.52288e-05
7.05036e-08
1.52299e-05
6.0346e-08
1.5233e-05
5.5215e-08
5.34854e-08
1.52365e-05
1.59631e-05
1.92306e-09
1.59655e-05
-2.22593e-08
1.59689e-05
5.96907e-08
1.59592e-05
3.46877e-08
1.59613e-05
-9.15385e-09
1.59762e-05
5.47727e-08
1.59772e-05
9.847e-08
1.59636e-05
4.87318e-08
1.59561e-05
1.21579e-09
1.59599e-05
2.05548e-08
1.59609e-05
6.11324e-08
1.59548e-05
6.66577e-08
1.595e-05
5.15906e-08
1.59512e-05
4.73246e-08
1.59564e-05
5.72059e-08
1.59606e-05
6.8576e-08
1.59613e-05
6.97543e-08
1.59613e-05
6.03386e-08
1.59638e-05
5.2715e-08
5.07216e-08
1.59666e-05
1.6727e-05
5.53042e-09
1.67276e-05
-2.28935e-08
1.6733e-05
5.42921e-08
1.67244e-05
4.32914e-08
1.67228e-05
-7.52216e-09
1.67367e-05
4.08987e-08
1.67411e-05
9.40552e-08
1.67292e-05
6.06213e-08
1.67197e-05
1.06677e-08
1.67223e-05
1.80052e-08
1.67258e-05
5.76662e-08
1.67221e-05
7.02705e-08
1.6717e-05
5.67513e-08
1.67167e-05
4.75821e-08
1.67212e-05
5.27666e-08
1.67262e-05
6.35517e-08
1.67285e-05
6.74907e-08
1.67281e-05
6.06892e-08
1.67297e-05
5.11029e-08
4.82913e-08
1.67321e-05
1.75275e-05
8.41851e-09
1.75264e-05
-2.18145e-08
1.75331e-05
4.7589e-08
1.75263e-05
5.00826e-08
1.75217e-05
-2.89914e-09
1.75334e-05
2.91363e-08
1.75407e-05
8.68303e-08
1.75315e-05
6.98119e-08
1.75208e-05
2.13514e-08
1.75213e-05
1.7469e-08
1.75264e-05
5.26375e-08
1.75255e-05
7.11318e-08
1.75208e-05
6.14178e-08
1.75193e-05
4.90671e-08
1.75226e-05
4.95366e-08
1.75278e-05
5.83487e-08
1.75314e-05
6.38414e-08
1.75317e-05
6.04267e-08
1.75323e-05
5.04927e-08
4.60194e-08
1.75346e-05
1.83662e-05
1.05148e-08
1.83636e-05
-1.91863e-08
1.83709e-05
4.03218e-08
1.83664e-05
5.45548e-08
1.83597e-05
3.82741e-09
1.83686e-05
2.02642e-08
1.83777e-05
7.76836e-08
1.83719e-05
7.56281e-08
1.83609e-05
3.22965e-08
1.83592e-05
1.9244e-08
1.83647e-05
4.71418e-08
1.83664e-05
6.94451e-08
1.8363e-05
6.47348e-08
1.83607e-05
5.13697e-08
1.83627e-05
4.75887e-08
1.83674e-05
5.35836e-08
1.83719e-05
5.93833e-08
1.83735e-05
5.88668e-08
1.83735e-05
5.04349e-08
4.4154e-08
1.83754e-05
1.92451e-05
1.18265e-08
1.92412e-05
-1.53436e-08
1.92483e-05
3.32234e-08
1.92464e-05
5.6539e-08
1.92386e-05
1.1603e-08