/*--------------------------------*- C++ -*----------------------------------*\
| =========                 |                                                 |
| \\      /  F ield         | OpenFOAM: The Open Source CFD Toolbox           |
|  \\    /   O peration     | Version:  v1812                                 |
|   \\  /    A nd           | Web:      www.OpenFOAM.com                      |
|    \\/     M anipulation  |                                                 |
\*---------------------------------------------------------------------------*/
FoamFile
{
    version     2.0;
    format      ascii;
    class       volScalarField;
    location    "6";
    object      p;
}
// * * * * * * * * * * * * * * * * * * * * * * * * * * * * * * * * * * * * * //

dimensions      [0 2 -2 0 0 0 0];


internalField   nonuniform List<scalar> 
9600
(
7.83873e-11
-0.000524441
-0.00405102
0.000494434
-8.66147e-05
0.0032191
0.00587474
0.00590219
0.00200464
0.00192291
0.0025852
0.00393121
0.00278434
0.00272977
0.00342639
0.00471253
0.00466372
0.00532676
0.00642259
0.00802626
-1.1792e-06
-0.0005048
-0.00404245
0.00039894
-9.04672e-05
0.00328382
0.00585975
0.00588847
0.00201413
0.0019181
0.0026245
0.00391512
0.0027949
0.00273914
0.00342788
0.00471234
0.00466712
0.00529901
0.00643765
0.00782899
1.35638e-07
-0.00048836
-0.0040529
0.000279018
-7.12924e-05
0.00335274
0.00581843
0.00587408
0.00202844
0.00191549
0.00266887
0.00389925
0.00281546
0.00273805
0.00343757
0.00470164
0.00466714
0.00526057
0.00643895
0.0075652
2.94193e-06
-0.000475462
-0.00407779
0.00016982
-2.603e-05
0.00338962
0.00576199
0.0058648
0.00204038
0.00192852
0.00271656
0.00388533
0.00284035
0.00272689
0.0034523
0.00467812
0.00466178
0.00522277
0.006414
0.00731284
6.61781e-06
-0.00046488
-0.00410928
8.24227e-05
4.73768e-05
0.00338967
0.00569915
0.00585526
0.00204997
0.00195603
0.00276713
0.00387135
0.00286726
0.00270959
0.00346824
0.00464605
0.00465357
0.00518182
0.00636915
0.00708029
1.06047e-05
-0.000456493
-0.0041424
3.21952e-05
0.000148198
0.00335468
0.00563441
0.00584288
0.00205849
0.00199017
0.00281045
0.00385627
0.00289537
0.002688
0.00348497
0.00461089
0.00464234
0.00513788
0.00630998
0.00686182
1.41424e-05
-0.000450266
-0.00416999
2.73671e-05
0.000266619
0.00328637
0.00557295
0.00582908
0.00206648
0.0020251
0.00285126
0.00383981
0.00292352
0.0026654
0.00350401
0.00457653
0.00462847
0.00509334
0.00623539
0.0066511
1.65719e-05
-0.00044561
-0.00418499
6.31163e-05
0.000386259
0.00319709
0.00552074
0.00581588
0.00207416
0.00205808
0.00289106
0.00382168
0.00295115
0.00264767
0.0035258
0.0045458
0.00461251
0.00504735
0.00614349
0.00644745
1.77326e-05
-0.000441471
-0.00418144
0.000127435
0.000493261
0.00309973
0.00547954
0.00580449
0.00208125
0.00208787
0.00293064
0.00380168
0.00297829
0.00263679
0.0035495
0.00452053
0.00459273
0.0049983
0.00603698
0.00625083
1.80572e-05
-0.000436853
-0.00415889
0.00020839
0.000581713
0.00300216
0.00544687
0.00579522
0.00208684
0.00211389
0.00297034
0.00377997
0.00300473
0.00262554
0.0035738
0.00450096
0.00456698
0.00494698
0.00591976
0.00605721
1.83117e-05
-0.000431208
-0.00411827
0.00029743
0.000652427
0.00290701
0.00541906
0.00578738
0.00209025
0.00213601
0.00301042
0.00375679
0.00303005
0.00261556
0.00359699
0.00448651
0.00453467
0.00489427
0.00579346
0.00586209
1.91816e-05
-0.000424501
-0.00406191
0.000388911
0.000709201
0.00281384
0.00539262
0.00577961
0.00209176
0.00215437
0.00305115
0.00373239
0.00305393
0.00260754
0.00361706
0.00447668
0.00449596
0.00483894
0.00565941
0.00566428
2.10443e-05
-0.000417011
-0.00399246
0.000478895
0.000756059
0.0027213
0.00536483
0.00577061
0.00209245
0.00216903
0.0030929
0.00370718
0.00307601
0.00260168
0.00363219
0.00447099
0.004451
0.00477866
0.00552058
0.00546477
2.39894e-05
-0.000409059
-0.00391232
0.000564586
0.000796064
0.00262838
0.00533396
0.00575972
0.00209346
0.00217998
0.00313613
0.00368162
0.00309579
0.00259834
0.00364101
0.00446849
0.00440034
0.0047112
0.0053801
0.00526434
2.79596e-05
-0.000400838
-0.0038234
0.000644296
0.000831553
0.00253488
0.00529917
0.00574678
0.00209561
0.00218721
0.00318117
0.00365627
0.00311264
0.00259802
0.00364282
0.00446786
0.00434516
0.00463446
0.0052397
0.00506365
3.28968e-05
-0.000392441
-0.00372719
0.000717459
0.000864508
0.00244123
0.00526018
0.00573191
0.00209932
0.00219066
0.00322816
0.00363196
0.0031258
0.0026011
0.00363762
0.00446761
0.00428697
0.00454667
0.00509998
0.00486424
3.88044e-05
-0.000383913
-0.00362483
0.000784362
0.000896467
0.00234816
0.00521712
0.0057154
0.00210469
0.00219036
0.00327701
0.00360955
0.0031346
0.0026077
0.00362606
0.00446627
0.00422712
0.00444676
0.00496103
0.00466876
4.57467e-05
-0.000375257
-0.00351717
0.000845675
0.000928499
0.00225643
0.00517031
0.00569749
0.00211168
0.00218638
0.00332742
0.00358975
0.00313852
0.00261766
0.00360923
0.00446252
0.00416662
0.00433457
0.00482269
0.0044804
5.38167e-05
-0.000366444
-0.00340483
0.000902064
0.000961277
0.00216678
0.00511995
0.00567835
0.00212023
0.00217871
0.00337898
0.00357324
0.00313721
0.00263038
0.0035882
0.00445543
0.00410636
0.0042105
0.00468421
0.00430244
6.31156e-05
-0.000357407
-0.00328823
0.000954044
0.000995101
0.00207985
0.00506608
0.00565817
0.00213033
0.00216723
0.00343136
0.00356061
0.00313051
0.002645
0.00356363
0.00444437
0.00404727
0.00407512
0.0045442
0.00413816
7.3742e-05
-0.000348046
-0.00316768
0.00100195
0.00102996
0.00199623
0.00500861
0.0056371
0.00214202
0.00215177
0.00348416
0.0035524
0.0031184
0.00266083
0.00353597
0.00442863
0.00399038
0.00392933
0.00440064
0.00399076
8.57775e-05
-0.000338218
-0.00304342
0.001046
0.00106574
0.00191649
0.0049474
0.00561517
0.00215554
0.00213211
0.00353698
0.00354914
0.00310073
0.00267749
0.00350569
0.00440704
0.00393693
0.00377479
0.00425063
0.00386258
9.92746e-05
-0.00032772
-0.00291572
0.00108634
0.00110211
0.00184116
0.00488232
0.0055924
0.00217117
0.00210785
0.0035896
0.00355148
0.00307704
0.00269464
0.00347328
0.00437791
0.00388829
0.00361418
0.00409016
0.00375409
0.000114251
-0.000316273
-0.00278488
0.001123
0.00113876
0.00177078
0.00481323
0.00556877
0.00218926
0.0020785
0.00364158
0.00356023
0.00304698
0.00271178
0.00343964
0.00433937
0.0038454
0.00345185
0.00391434
0.00366225
0.000130682
-0.000303535
-0.00265123
0.00115606
0.00117536
0.00170584
0.00474006
0.00554402
0.00221036
0.0020437
0.00369179
0.00357633
0.00301058
0.00272804
0.00340642
0.00428972
0.00380778
0.0032937
0.00371898
0.00357873
0.000148474
-0.000289089
-0.00251514
0.00118566
0.00121156
0.0016467
0.00466293
0.00551773
0.00223524
0.00200322
0.00373866
0.00360106
0.00296802
0.00274167
0.00337571
0.00422791
0.00377268
0.00314623
0.00350375
0.00349132
0.000167505
-0.000272429
-0.00237696
0.00121194
0.00124707
0.00159356
0.00458207
0.00548947
0.00226466
0.00195717
0.00378048
0.00363578
0.00291964
0.00274992
0.00334984
0.00415418
0.00373536
0.00301549
0.00327441
0.00338547
0.000187618
-0.000253018
-0.00223708
0.00123509
0.00128173
0.00154654
0.00449787
0.00545855
0.00229913
0.00190631
0.0038152
0.00368151
0.00286661
0.00274961
0.00333079
0.00407036
0.00369011
0.00290523
0.00304271
0.00324801
0.000208578
-0.000230261
-0.00209583
0.00125525
0.0013153
0.00150586
0.0044113
0.00542419
0.00233866
0.00185169
0.00384041
0.00373863
0.00281115
0.00273773
0.00331962
0.00398
0.00363136
0.00281464
0.00282247
0.0030749
0.000230126
-0.000203484
-0.0019536
0.00127254
0.00134768
0.00147377
0.00432343
0.00538588
0.00238304
0.00179428
0.00385373
0.00380678
0.0027562
0.00271159
0.00331636
0.00388834
0.00355495
0.00273722
0.00262622
0.00287675
0.000251994
-0.000172044
-0.00181072
0.00128705
0.00137904
0.00144591
0.00423528
0.00534359
0.00243175
0.0017353
0.00385326
0.00388487
0.00270478
0.00266855
0.00331937
0.00380185
0.00345974
0.0026627
0.00246102
0.00267497
0.000273873
-0.000135387
-0.00166737
0.00129884
0.00140966
0.00142256
0.00414772
0.00529751
0.00248398
0.00167653
0.00383774
0.00397074
0.00266011
0.00260663
0.00332505
0.00372656
0.00334833
0.00258174
0.00232454
0.0024895
0.00029548
-9.29363e-05
-0.00152375
0.00130789
0.0014401
0.00140273
0.00406099
0.00524815
0.00253877
0.00161949
0.00380643
0.00406181
0.00262557
0.00252493
0.00332916
0.00366732
0.00322508
0.00248887
0.00220826
0.00233219
0.000316588
-4.42636e-05
-0.00137987
0.00131426
0.00147101
0.00138536
0.00397491
0.00519658
0.00259515
0.0015648
0.00375898
0.00415574
0.00260435
0.00242269
0.00332683
0.00362889
0.00309482
0.002381
0.00210514
0.00220471
0.000336939
1.08339e-05
-0.00123538
0.00131777
0.00150311
0.00137046
0.00388883
0.00514387
0.00265261
0.00151272
0.00369514
0.00425015
0.00259988
0.00229978
0.00331094
0.00361595
0.00296475
0.00225343
0.00201037
0.0021047
0.000356297
7.23603e-05
-0.00108955
0.00131786
0.00153694
0.00135858
0.00380176
0.00509073
0.0027115
0.00146373
0.00361407
0.00434173
0.00261609
0.00215828
0.00327195
0.00363058
0.00284748
0.00210039
0.00191574
0.00203165
0.000374638
0.000139884
-0.000941277
0.00131406
0.00157205
0.00135042
0.00371263
0.00503741
0.00277259
0.00141842
0.00351492
0.00442623
0.00265645
0.00200376
0.00320017
0.00366837
0.00275923
0.00192186
0.00180744
0.0019841
0.000392006
0.000212698
-0.000789028
0.00130597
0.0016075
0.00134756
0.00362005
0.00498342
0.00283683
0.00137768
0.00339783
0.00449905
0.00272295
0.00184491
0.00308813
0.00371695
0.00271468
0.00172989
0.00166891
0.00195177
0.000408518
0.000289767
-0.000630893
0.00129345
0.0016415
0.00135219
0.00352301
0.00492752
0.00290547
0.00134304
0.00326352
0.00455488
0.0028156
0.00169236
0.00293229
0.0037593
0.00272204
0.00154651
0.00148965
0.00191477
0.000424666
0.000369589
-0.000465121
0.00127718
0.00167135
0.00136684
0.00342196
0.00486757
0.00297954
0.00131734
0.00311233
0.00458695
0.00293266
0.00155816
0.00273372
0.00377746
0.00277986
0.00139449
0.00127359
0.00185128
0.000441092
0.000450562
-0.000290734
0.00125843
0.00169403
0.00139347
0.00331911
0.00480009
0.00305843
0.00130437
0.00294608
0.00458805
0.00306925
0.00145469
0.0024989
0.00375433
0.0028777
0.00129336
0.00103657
0.00174447
0.000458699
0.000531066
-0.000107892
0.00123954
0.00170641
0.00143259
0.0032175
0.00472174
0.00313919
0.00130827
0.00276975
0.00455166
0.00321613
0.00139303
0.00224049
0.00367602
0.00299848
0.00125848
0.000799756
0.00158636
0.00047874
0.000609461
8.21372e-05
0.00122427
0.00170551
0.00148209
0.00312192
0.00463078
0.003218
0.00133261
0.00259025
0.00447287
0.00336114
0.00138075
0.00197577
0.00353439
0.0031196
0.00129922
0.000588494
0.00137686
0.000502441
0.000684357
0.000276942
0.00121749
0.00168995
0.00153911
0.00303733
0.00452675
0.00329019
0.00137921
0.00241504
0.00435064
0.00349131
0.00141837
0.00172335
0.00333129
0.00321556
0.00141267
0.000431093
0.00112593
0.000531015
0.000754485
0.000473229
0.00122487
0.00166049
0.00159809
0.00296838
0.00441139
0.00334948
0.0014461
0.00225237
0.00419024
0.00359528
0.00149883
0.00149978
0.00307942
0.00326444
0.00157946
0.000352888
0.000859406
0.000565593
0.000818852
0.000667522
0.00125113
0.00161926
0.00165185
0.00291889
0.00428923
0.00338887
0.00152786
0.00210939
0.00400077
0.00366567
0.00161078
0.00131551
0.0027962
0.00325591
0.00177241
0.00036485
0.000615068
0.000607248
0.000876907
0.00086435
0.00129998
0.00156995
0.00169248
0.00288849
0.00416687
0.0034046
0.00161754
0.00199058
0.00379347
0.00369947
0.00174257
0.00117633
0.00249853
0.00318971
0.0019659
0.000457965
0.000427002
0.000657009
0.00092878
0.00104774
0.00137318
0.00151858
0.00171209
0.00287203
0.00405458
0.00339922
0.00170493
0.00189611
0.00358155
0.00369725
0.00188331
0.00108579
0.00220227
0.00306812
0.00213926
0.000612276
0.000315469
0.000715542
0.000975645
0.00121241
0.00146893
0.00147284
0.00170688
0.00286331
0.00396153
0.00337837
0.00177983
0.00182181
0.00337598
0.0036643
0.00202411
0.00104345
0.00192209
0.00289486
0.00227503
0.000807388
0.000284609
0.00078316
0.00101934
0.00135708
0.00158424
0.00144157
0.00167677
0.00285165
0.00389121
0.00335137
0.00183896
0.00176114
0.00317989
0.00360902
0.00216022
0.00104429
0.00166959
0.00267964
0.00235918
0.00102384
0.000328033
0.000859745
0.00106242
0.00147929
0.00171382
0.00143414
0.00162507
0.00282302
0.00384019
0.00333156
0.00188666
0.00170628
0.00299164
0.00353628
0.00228906
0.00108273
0.00145228
0.00243709
0.00238485
0.00124188
0.000434749
0.000944652
0.00110775
0.00157778
0.00184945
0.00145744
0.00155764
0.00276637
0.00380155
0.00332913
0.00192882
0.00165398
0.00280988
0.00344654
0.002407
0.00115526
0.00127659
0.0021817
0.00235202
0.00144264
0.000591655
0.00103696
0.00115806
0.00165342
0.0019821
0.00151382
0.00148496
0.00267651
0.00376342
0.00334788
0.00197599
0.00160582
0.00263215
0.00333986
0.00250835
0.0012573
0.00114977
0.00192832
0.00226436
0.00160895
0.000783654
0.00113524
0.00121577
0.00170776
0.00210319
0.00160169
0.0014207
0.00255413
0.00370909
0.00338437
0.00204177
0.00156732
0.00245655
0.00321617
0.00258913
0.00138005
0.00107561
0.00169394
0.00213038
0.00172628
0.000993459
0.00123799
0.00128231
0.0017417
0.00220483
0.00171641
0.00137935
0.00240501
0.00362289
0.00343095
0.00213417
0.0015476
0.00228627
0.00307475
0.00264677
0.00151435
0.00105072
0.00149373
0.00196682
0.00178591
0.00120035
0.00134347
0.00135828
0.00174089
0.00228092
0.0018487
0.00137252
0.00223804
0.00349598
0.00347512
0.00225251
0.00155726
0.00212921
0.00291587
0.00267637
0.00165316
0.00106838
0.00133539
0.00179435
0.0017887
0.00138089
0.00145079
0.00144451
0.00176246
0.00232805
0.00198467
0.00140645
0.00207191
0.00332888
0.00349911
0.00239222
0.00160203
0.00199468
0.00274609
0.00267312
0.00178876
0.00112424
0.00122032
0.00162876
0.00174562
0.0015156
0.00155816
0.00154062
0.00178354
0.00234644
0.00210957
0.00147873
0.00193085
0.00313076
0.00348549
0.00254149
0.00168177
0.00189086
0.00257549
0.00263746
0.00190985
0.00121267
0.00115021
0.00148002
0.0016735
0.00159843
0.00166148
0.00164269
0.00181109
0.00234196
0.00221414
0.00158239
0.00182904
0.00291637
0.00342648
0.00268205
0.00179405
0.00182348
0.0024121
0.00257469
0.00200679
0.00132227
0.0011274
0.00135678
0.00158791
0.00163715
0.0017602
0.0017484
0.00184597
0.00232139
0.00229407
0.00170479
0.00177147
0.00270608
0.00332501
0.00279646
0.00193147
0.00179741
0.00226374
0.00249046
0.0020766
0.00144004
0.00114905
0.00126773
0.00149955
0.00164423
0.00185366
0.00185332
0.0018901
0.00229375
0.00234828
0.0018307
0.00175595
0.00251831
0.00319028
0.00287272
0.00208028
0.00181335
0.00214071
0.00239114
0.00211909
0.00155676
0.00120614
0.00121934
0.00141762
0.00162751
0.00194091
0.0019552
0.00194381
0.00226573
0.00237846
0.00194868
0.00177626
0.00236455
0.00303684
0.00290699
0.00222489
0.00186562
0.00205243
0.00228739
0.00213334
0.00166536
0.00128883
0.00121384
0.00135596
0.00159477
0.00202241
0.00204595
0.00200565
0.00224333
0.00238824
0.0020515
0.00182373
0.00224938
0.00288036
0.00290243
0.00235399
0.00194566
0.00200304
0.00219312
0.00212184
0.00175663
0.001387
0.00124721
0.0013282
0.00156142
0.00209857
0.00213574
0.00207027
0.00222909
0.00238252
0.00213496
0.00188788
0.00217219
0.00273354
0.00286605
0.00246111
0.00204573
0.0019929
0.00212059
0.00209564
0.0018235
0.00148685
0.00130785
0.00133737
0.00154493
0.00216924
0.00221265
0.00213877
0.00222459
0.00236689
0.00219776
0.00195906
0.00212953
0.00260605
0.0028079
0.00254124
0.00215607
0.00201894
0.00207567
0.00206965
0.00187204
0.00158027
0.00138364
0.00137585
0.00155515
0.00223436
0.00228408
0.00220144
0.00222878
0.00234647
0.00223984
0.00202899
0.00211684
0.00250516
0.00274012
0.0025935
0.00226488
0.00207557
0.00206187
0.00205306
0.00191245
0.00166934
0.00147037
0.0014359
0.00159237
0.00229321
0.00234069
0.00226069
0.00224076
0.00232586
0.00226402
0.00209108
0.00212561
0.00243239
0.00267484
0.00262392
0.00236386
0.00215645
0.00208474
0.00205352
0.00194926
0.00175538
0.00156644
0.0015125
0.0016504
0.00234629
0.00239164
0.00230988
0.00225703
0.00230681
0.00227336
0.00214287
0.00214866
0.0023853
0.0026192
0.00264104
0.00245055
0.0022505
0.00214422
0.00208442
0.00199219
0.00183976
0.00167102
0.00160469
0.00172499
0.00239178
0.00243403
0.00234991
0.00227557
0.00229073
0.00227045
0.00218169
0.00218021
0.00236215
0.00257716
0.00265213
0.00252905
0.00235023
0.00223123
0.00215324
0.00205643
0.00193054
0.0017878
0.00171745
0.00181991
0.00242776
0.0024582
0.00238135
0.0022942
0.00227825
0.00225961
0.00220505
0.00221096
0.00235821
0.00255311
0.00266246
0.00260479
0.00246078
0.00234074
0.00225821
0.00215535
0.00203995
0.00192115
0.00185401
0.00194028
0.00245637
0.00248512
0.00239767
0.00230396
0.00226641
0.00224325
0.00221464
0.00223403
0.00236437
0.00254801
0.00267889
0.00267855
0.00258483
0.00247492
0.00239798
0.00229964
0.00218592
0.0020826
0.00202217
0.00209507
0.00247327
0.00249548
0.00240397
0.00230834
0.00225396
0.0022214
0.00221033
0.00224626
0.00237087
0.00255485
0.00270675
0.00275514
0.00272478
0.00264457
0.0025786
0.00249575
0.00238525
0.00228799
0.00223219
0.00229444
0.00247466
0.0024911
0.00240035
0.00230525
0.00223916
0.0021967
0.00219307
0.00224048
0.00236608
0.00255803
0.0027412
0.00284359
0.00289089
0.00287268
0.00282861
0.00276207
0.00265309
0.00254535
0.00248639
0.00253695
0.00246464
0.00248338
0.00238304
0.00228433
0.00221581
0.00216949
0.00216933
0.00221697
0.00233451
0.00252191
0.00274394
0.00293763
0.00310308
0.00321107
0.00325807
0.00325397
0.00317965
0.0030413
0.0028927
0.00280475
0.00244073
0.00245536
0.0023511
0.00225324
0.00218505
0.00213475
0.00213615
0.00218034
0.00228011
0.00240606
0.00255825
0.00278961
0.00310954
0.00339543
0.00360046
0.00376888
0.00396816
0.00421634
0.00450042
0.00474002
0.00239356
0.0024127
0.00231059
0.00222682
0.00217647
0.00212551
0.00209102
0.00211286
0.0022962
0.0026159
0.00294442
0.00321118
0.0034357
0.00362688
0.00382112
0.00402668
0.004249
0.00445018
0.00460665
0.00466907
0.00230726
0.00231092
0.00221057
0.0021326
0.00212941
0.0021645
0.00225378
0.00238655
0.00257557
0.00278614
0.00298427
0.0031516
0.00332433
0.00349393
0.00369607
0.00394474
0.00424965
0.00459843
0.00492733
0.00515909
0.00225196
0.00229632
0.00224939
0.00223404
0.00225908
0.00229489
0.00235442
0.00244788
0.00260683
0.00280555
0.00302713
0.0032483
0.00347634
0.00367636
0.00381805
0.00387996
0.00382661
0.00366022
0.0034172
0.00318229
0.00208213
0.00211522
0.0021675
0.00225379
0.00232957
0.00236532
0.00239945
0.00247036
0.00261764
0.0027951
0.00300794
0.00321588
0.00342755
0.00366706
0.00392268
0.00421539
0.00455297
0.00490305
0.00520156
0.00535799
0.00200665
0.00205765
0.00213697
0.0022613
0.0023588
0.00240802
0.00243786
0.00249446
0.0026368
0.00280616
0.00300971
0.003236
0.00347436
0.00374184
0.00401612
0.00428034
0.00453003
0.00473312
0.00485504
0.00483167
0.0108088
0.00723671
0.000510385
-0.00477586
-0.0057556
-0.00430655
-0.00282713
-0.00178091
-0.000948311
-0.000248749
0.000315591
0.000798771
0.00121055
0.00151902
0.0017693
0.00209081
0.00257888
0.00311474
0.00350547
0.00378012
0.00407014
0.00441936
0.00480976
0.00518317
0.00548898
0.00577718
0.0061311
0.00655767
0.00701885
0.00750196
0.00797572
0.00840172
0.00880371
0.00922048
0.00963459
0.0100379
0.0104164
0.0107547
0.0110646
0.0114028
0.0117709
0.01212
0.0124663
0.0128653
0.0133173
0.0137681
0.0141911
0.0146302
0.0151437
0.0156863
0.0162076
0.0167115
0.0171616
0.0175223
0.0178803
0.0183759
0.0189968
0.0196345
0.0202267
0.020806
0.0213715
0.0219079
0.0224378
0.0230302
0.0236432
0.0242335
0.0248644
0.0255354
0.0261934
0.0268517
0.0275576
0.028251
0.02896
0.0296794
0.0304369
0.0312078
0.0320035
0.0328046
0.0336364
0.0344808
0.03534
0.0362
0.0370532
0.0379714
0.0388999
0.0398628
0.0407792
0.0417257
0.0426902
0.043674
0.044712
0.045743
0.0467888
0.0478683
0.0489315
0.0500565
0.0511479
0.0522637
0.0533323
0.0542261
0.0102874
0.00710711
0.000597352
-0.00462427
-0.00566508
-0.00426465
-0.00280268
-0.00176456
-0.000936141
-0.000238819
0.000324082
0.000806352
0.00121742
0.00152495
0.00177406
0.00209448
0.00258195
0.00311773
0.00350828
0.00378252
0.00407219
0.00442115
0.00481143
0.00518481
0.00549053
0.00577854
0.00613232
0.00655884
0.00702
0.00750308
0.00797687
0.00840284
0.00880475
0.00922148
0.00963556
0.0100389
0.0104173
0.0107556
0.0110655
0.0114036
0.0117717
0.0121208
0.0124671
0.012866
0.0133179
0.0137687
0.0141917
0.0146308
0.0151442
0.0156868
0.0162081
0.016712
0.0171621
0.0175227
0.0178807
0.0183762
0.0189972
0.0196348
0.020227
0.0208063
0.0213718
0.0219082
0.0224381
0.0230304
0.0236434
0.0242337
0.0248646
0.0255356
0.0261936
0.0268518
0.0275578
0.0282512
0.0289602
0.0296796
0.030437
0.0312079
0.0320037
0.0328047
0.0336365
0.034481
0.0353401
0.0362001
0.0370534
0.0379715
0.0389
0.0398629
0.0407793
0.0417258
0.0426903
0.0436741
0.0447121
0.0457431
0.0467889
0.0478684
0.0489315
0.0500566
0.051148
0.0522638
0.0533324
0.0542262
0.00975928
0.00695643
0.000757177
-0.004355
-0.00551146
-0.0042079
-0.00277425
-0.00174373
-0.000920199
-0.000226758
0.000333287
0.00081386
0.00122424
0.00153142
0.00177985
0.00209918
0.00258573
0.00312099
0.00351108
0.00378491
0.0040743
0.00442301
0.00481308
0.00518636
0.00549192
0.0057797
0.00613335
0.00655985
0.00702099
0.00750409
0.00797791
0.00840384
0.00880566
0.00922236
0.00963644
0.0100397
0.0104182
0.0107565
0.0110662
0.0114043
0.0117724
0.0121215
0.0124677
0.0128665
0.0133185
0.0137693
0.0141922
0.0146312
0.0151446
0.0156872
0.0162085
0.0167125
0.0171626
0.0175231
0.017881
0.0183764
0.0189974
0.0196352
0.0202273
0.0208066
0.0213721
0.0219085
0.0224383
0.0230306
0.0236436
0.0242339
0.0248648
0.0255358
0.0261938
0.026852
0.0275579
0.0282514
0.0289604
0.0296797
0.0304372
0.0312081
0.0320038
0.0328049
0.0336367
0.0344811
0.0353402
0.0362003
0.0370535
0.0379716
0.0389001
0.039863
0.0407794
0.0417259
0.0426904
0.0436742
0.0447122
0.0457432
0.0467889
0.0478685
0.0489316
0.0500567
0.0511481
0.0522639
0.0533326
0.0542264
0.00926274
0.00680833
0.00096053
-0.00401353
-0.00529695
-0.00412342
-0.00272995
-0.00171025
-0.000894789
-0.000208585
0.00034589
0.000822812
0.00123172
0.00153934
0.00178863
0.00210749
0.00259214
0.00312548
0.00351457
0.00378825
0.00407764
0.00442594
0.00481541
0.00518827
0.00549354
0.00578104
0.00613449
0.0065609
0.00702201
0.00750511
0.00797893
0.00840481
0.00880659
0.00922331
0.00963735
0.0100406
0.010419
0.0107573
0.011067
0.011405
0.0117731
0.0121222
0.0124683
0.0128671
0.0133191
0.0137699
0.0141928
0.0146317
0.0151451
0.0156877
0.016209
0.016713
0.0171631
0.0175236
0.0178812
0.0183766
0.0189977
0.0196355
0.0202276
0.0208069
0.0213724
0.0219087
0.0224385
0.0230308
0.0236439
0.0242341
0.0248649
0.025536
0.026194
0.0268522
0.0275581
0.0282516
0.0289605
0.0296798
0.0304373
0.0312082
0.0320039
0.032805
0.0336368
0.0344812
0.0353404
0.0362004
0.0370536
0.0379717
0.0389002
0.0398631
0.0407796
0.041726
0.0426905
0.0436743
0.0447122
0.0457433
0.046789
0.0478686
0.0489317
0.0500568
0.0511482
0.0522639
0.0533327
0.0542267
0.00878384
0.0066506
0.00117558
-0.00364701
-0.00505469
-0.0040239
-0.00267622
-0.00166665
-0.000859944
-0.000183256
0.000363399
0.000834596
0.00124063
0.00154911
0.00180115
0.00212068
0.00260235
0.00313173
0.00351895
0.00379303
0.00408308
0.00443094
0.00481925
0.00519118
0.00549595
0.00578305
0.00613608
0.00656218
0.00702317
0.00750618
0.00797987
0.00840568
0.00880752
0.00922435
0.00963835
0.0100415
0.0104199
0.0107582
0.0110679
0.0114058
0.0117738
0.0121228
0.012469
0.0128678
0.0133198
0.0137706
0.0141934
0.0146323
0.0151456
0.0156882
0.0162096
0.0167137
0.0171638
0.017524
0.0178814
0.0183768
0.0189981
0.019636
0.020228
0.0208072
0.0213728
0.021909
0.0224387
0.023031
0.0236442
0.0242343
0.0248651
0.0255362
0.0261942
0.0268523
0.0275583
0.0282517
0.0289607
0.02968
0.0304375
0.0312084
0.0320041
0.0328051
0.0336369
0.0344814
0.0353405
0.0362005
0.0370537
0.0379719
0.0389003
0.0398633
0.0407797
0.0417261
0.0426906
0.0436743
0.0447123
0.0457433
0.0467891
0.0478687
0.0489318
0.0500569
0.0511483
0.0522641
0.053333
0.054227
0.00831697
0.0064794
0.00138563
-0.00327573
-0.00479942
-0.00391809
-0.0026208
-0.00161936
-0.000819786
-0.000152927
0.000384939
0.000849175
0.00125127
0.00156072
0.00181697
0.00213831
0.00261621
0.00313971
0.00352419
0.00379921
0.00409073
0.00443832
0.00482503
0.0051956
0.00549976
0.00578635
0.00613857
0.00656398
0.00702462
0.00750732
0.00798064
0.00840628
0.00880829
0.00922536
0.00963936
0.0100423
0.0104207
0.0107593
0.0110691
0.0114069
0.0117745
0.0121235
0.0124698
0.0128687
0.0133205
0.0137712
0.0141941
0.014633
0.0151463
0.0156888
0.0162103
0.0167145
0.0171646
0.0175245
0.0178816
0.018377
0.0189985
0.0196365
0.0202284
0.0208076
0.0213732
0.0219094
0.022439
0.0230313
0.0236445
0.0242346
0.0248653
0.0255364
0.0261944
0.0268525
0.0275585
0.0282519
0.0289608
0.0296802
0.0304376
0.0312085
0.0320042
0.0328053
0.0336371
0.0344815
0.0353407
0.0362007
0.0370538
0.037972
0.0389005
0.0398634
0.0407798
0.0417262
0.0426907
0.0436744
0.0447125
0.0457435
0.0467892
0.0478688
0.0489319
0.0500569
0.0511484
0.0522642
0.0533333
0.0542275
0.00786825
0.00629788
0.00158244
-0.0029077
-0.00453433
-0.00380662
-0.00256523
-0.00157089
-0.000776548
-0.000119256
0.000409331
0.000865986
0.00126358
0.00157391
0.00183497
0.00215872
0.0026324
0.00314888
0.00353011
0.00380654
0.00410017
0.00444767
0.00483252
0.00520156
0.00550529
0.00579142
0.00614244
0.00656666
0.00702661
0.00750871
0.00798132
0.00840657
0.00880873
0.00922613
0.0096402
0.010043
0.0104214
0.0107604
0.0110707
0.0114082
0.0117754
0.0121243
0.012471
0.0128699
0.0133214
0.0137719
0.0141949
0.0146338
0.015147
0.0156895
0.0162111
0.0167155
0.0171655
0.0175251
0.0178819
0.0183773
0.018999
0.019637
0.0202289
0.0208081
0.0213737
0.0219099
0.0224393
0.0230316
0.0236448
0.0242349
0.0248656
0.0255367
0.0261947
0.0268527
0.0275587
0.0282521
0.028961
0.0296803
0.0304378
0.0312087
0.0320044
0.0328054
0.0336372
0.0344817
0.0353408
0.0362008
0.0370539
0.0379721
0.0389006
0.0398636
0.04078
0.0417263
0.0426909
0.0436745
0.0447126
0.0457436
0.0467893
0.0478689
0.048932
0.050057
0.0511486
0.0522644
0.0533336
0.0542281
0.00744479
0.00610556
0.00175861
-0.00254649
-0.00425795
-0.00368628
-0.00250844
-0.00152195
-0.000731215
-8.3021e-05
0.000435964
0.000884662
0.00127741
0.00158836
0.00185427
0.00218058
0.00264981
0.00315878
0.00353659
0.00381473
0.00411079
0.00445821
0.00484102
0.00520861
0.00551234
0.0057983
0.00614793
0.00657048
0.00702937
0.0075105
0.00798206
0.0084067
0.00880891
0.00922656
0.00964064
0.0100431
0.0104216
0.0107614
0.0110725
0.0114098
0.0117763
0.0121253
0.0124725
0.0128716
0.0133225
0.0137727
0.0141959
0.0146348
0.0151477
0.01569
0.016212
0.0167167
0.0171666
0.0175258
0.0178823
0.0183778
0.0189995
0.0196377
0.0202295
0.0208087
0.0213744
0.0219105
0.0224398
0.0230321
0.0236453
0.0242353
0.024866
0.0255371
0.0261951
0.026853
0.027559
0.0282524
0.0289613
0.0296805
0.030438
0.0312089
0.0320046
0.0328056
0.0336374
0.0344819
0.035341
0.036201
0.037054
0.0379722
0.0389008
0.0398638
0.0407801
0.0417265
0.042691
0.0436747
0.0447127
0.0457437
0.0467894
0.047869
0.0489321
0.0500571
0.0511487
0.0522645
0.053334
0.0542287
0.00704691
0.00590012
0.00191179
-0.00219109
-0.00396765
-0.00355451
-0.00245002
-0.00147366
-0.000684788
-4.46324e-05
0.000464737
0.000905144
0.00129262
0.00160381
0.0018744
0.00220332
0.00266806
0.00316932
0.00354364
0.00382362
0.00412221
0.00446943
0.00485
0.0052162
0.00552036
0.00580659
0.00615487
0.00657549
0.00703295
0.00751279
0.007983
0.00840687
0.00880899
0.00922672
0.00964063
0.0100427
0.0104212
0.0107622
0.0110744
0.0114116
0.0117774
0.0121265
0.0124746
0.0128739
0.0133241
0.0137737
0.0141971
0.0146361
0.0151483
0.0156903
0.0162127
0.016718
0.0171679
0.0175267
0.0178829
0.0183784
0.0190002
0.0196383
0.0202301
0.0208093
0.0213751
0.0219111
0.0224404
0.0230327
0.0236459
0.0242358
0.0248665
0.0255375
0.0261955
0.0268534
0.0275593
0.0282527
0.0289615
0.0296808
0.0304382
0.0312091
0.0320048
0.0328058
0.0336375
0.034482
0.0353412
0.0362012
0.0370542
0.0379724
0.0389009
0.039864
0.0407803
0.0417266
0.0426911
0.0436748
0.0447129
0.0457439
0.0467895
0.0478691
0.0489322
0.0500572
0.051149
0.0522648
0.0533345
0.0542296
0.00667203
0.00568506
0.00204493
-0.001841
-0.00366421
-0.00341093
-0.00239015
-0.00142699
-0.000637947
-4.06733e-06
0.000495942
0.000927621
0.00130923
0.00162017
0.00189527
0.00222689
0.00268719
0.00318057
0.00355124
0.00383307
0.00413424
0.00448114
0.00485927
0.00522402
0.00552887
0.00581577
0.00616291
0.00658151
0.00703731
0.00751554
0.00798416
0.00840715
0.00880914
0.0092268
0.00964025
0.0100416
0.0104201
0.0107625
0.0110763
0.0114135
0.0117784
0.0121278
0.0124771
0.0128767
0.0133261
0.0137751
0.0141988
0.0146378
0.015149
0.0156903
0.0162131
0.016719
0.017169
0.0175277
0.0178839
0.0183794
0.0190011
0.019639
0.0202307
0.0208098
0.0213758
0.0219119
0.0224411
0.0230334
0.0236466
0.0242365
0.0248671
0.0255381
0.026196
0.026854
0.0275598
0.028253
0.0289619
0.0296811
0.0304385
0.0312093
0.032005
0.032806
0.0336377
0.0344822
0.0353414
0.0362014
0.0370543
0.0379725
0.0389011
0.0398642
0.0407805
0.0417267
0.0426913
0.0436749
0.044713
0.045744
0.0467897
0.0478693
0.0489324
0.0500572
0.0511492
0.0522651
0.0533349
0.0542305
0.00632066
0.00546818
0.00215986
-0.00150027
-0.00335091
-0.00325477
-0.00232763
-0.00138195
-0.000590955
3.88692e-05
0.00052999
0.000952394
0.00132737
0.00163753
0.00191701
0.00225144
0.0027073
0.00319257
0.00355936
0.00384304
0.00414683
0.00449334
0.00486886
0.00523202
0.00553763
0.00582548
0.00617172
0.00658836
0.00704233
0.00751871
0.00798551
0.00840755
0.00880942
0.00922691
0.00963967
0.01004
0.0104185
0.0107624
0.011078
0.0114152
0.0117792
0.0121291
0.01248
0.0128801
0.0133285
0.0137769
0.014201
0.01464
0.01515
0.01569
0.016213
0.0167194
0.0171697
0.0175285
0.017885
0.0183809
0.0190025
0.01964
0.0202313
0.0208103
0.0213764
0.0219127
0.0224419
0.0230342
0.0236474
0.0242374
0.0248679
0.0255388
0.0261967
0.0268547
0.0275605
0.0282536
0.0289624
0.0296816
0.0304388
0.0312096
0.0320053
0.0328063
0.0336379
0.0344825
0.0353416
0.0362015
0.0370545
0.0379727
0.0389013
0.0398644
0.0407807
0.0417269
0.0426914
0.0436751
0.0447132
0.0457442
0.0467898
0.0478695
0.0489326
0.0500572
0.0511496
0.0522654
0.0533354
0.0542316
0.00599492
0.00525524
0.00225481
-0.00117436
-0.00302979
-0.0030835
-0.00226006
-0.00133819
-0.000544233