/*--------------------------------*- C++ -*----------------------------------*\
| =========                 |                                                 |
| \\      /  F ield         | OpenFOAM: The Open Source CFD Toolbox           |
|  \\    /   O peration     | Version:  v1812                                 |
|   \\  /    A nd           | Web:      www.OpenFOAM.com                      |
|    \\/     M anipulation  |                                                 |
\*---------------------------------------------------------------------------*/
FoamFile
{
    version     2.0;
    format      ascii;
    class       surfaceScalarField;
    location    "6";
    object      phi;
}
// * * * * * * * * * * * * * * * * * * * * * * * * * * * * * * * * * * * * * //

dimensions      [0 3 -1 0 0 0 0];
oriented        oriented;


internalField   nonuniform List<scalar> 
19000
(
1.16017e-06
-2.21081e-07
1.24112e-06
-1.83268e-07
1.29443e-06
5.48187e-07
1.0202e-06
9.06787e-07
1.03655e-06
-1.07206e-06
1.21978e-06
7.39606e-07
1.17352e-06
5.40231e-07
1.16656e-06
1.25628e-06
1.18851e-06
5.67446e-07
1.15379e-06
6.67825e-07
1.16302e-06
3.96581e-09
1.14546e-06
-1.16165e-08
1.16109e-06
-5.7139e-08
1.17436e-06
9.71766e-08
1.16649e-06
8.87434e-08
1.17561e-06
3.70715e-07
1.16658e-06
2.8271e-07
1.1608e-06
2.57122e-07
1.16177e-06
2.50985e-07
1.73033e-07
1.13824e-06
1.21641e-06
-2.13226e-07
1.29798e-06
-2.64842e-07
1.35834e-06
4.87831e-07
1.08054e-06
1.18458e-06
1.1012e-06
-1.09272e-06
1.28186e-06
5.58953e-07
1.22934e-06
5.92745e-07
1.23149e-06
1.25414e-06
1.251e-06
5.47932e-07
1.22542e-06
6.93408e-07
1.23273e-06
-3.35013e-09
1.21575e-06
5.36657e-09
1.22599e-06
-6.73815e-08
1.24341e-06
7.97583e-08
1.22362e-06
1.08531e-07
1.24772e-06
3.46618e-07
1.21922e-06
3.11211e-07
1.23343e-06
2.42912e-07
1.20795e-06
2.76458e-07
1.57238e-07
1.22375e-06
1.27446e-06
-2.04907e-07
1.35412e-06
-3.44497e-07
1.42307e-06
4.18877e-07
1.16186e-06
1.4458e-06
1.17247e-06
-1.10333e-06
1.35429e-06
3.77132e-07
1.29725e-06
6.49779e-07
1.30803e-06
1.24336e-06
1.31847e-06
5.37496e-07
1.31267e-06
6.99203e-07
1.30873e-06
5.88721e-10
1.30104e-06
1.30611e-08
1.29579e-06
-6.21314e-08
1.3224e-06
5.31461e-08
1.28997e-06
1.40957e-07
1.31379e-06
3.22806e-07
1.28732e-06
3.37675e-07
1.29095e-06
2.39282e-07
1.28038e-06
2.87028e-07
1.63789e-07
1.27383e-06
1.33355e-06
-1.94351e-07
1.40828e-06
-4.1923e-07
1.49006e-06
3.37102e-07
1.26505e-06
1.6708e-06
1.25327e-06
-1.09155e-06
1.43282e-06
1.9758e-07
1.37452e-06
7.08083e-07
1.39061e-06
1.22727e-06
1.39049e-06
5.37614e-07
1.40068e-06
6.89015e-07
1.38385e-06
1.74201e-08
1.3815e-06
1.54083e-08
1.36698e-06
-4.76137e-08
1.39231e-06
2.78186e-08
1.36541e-06
1.67861e-07
1.37543e-06
3.12779e-07
1.36263e-06
3.50482e-07
1.35518e-06
2.46732e-07
1.35086e-06
2.91347e-07
1.74672e-07
1.33997e-06
1.39309e-06
-1.79085e-07
1.45993e-06
-4.86072e-07
1.5572e-06
2.39833e-07
1.38616e-06
1.84184e-06
1.33888e-06
-1.04427e-06
1.50693e-06
2.95265e-08
1.45882e-06
7.56199e-07
1.47333e-06
1.21276e-06
1.46511e-06
5.45838e-07
1.48083e-06
6.73289e-07
1.45526e-06
4.29902e-08
1.4509e-06
1.97744e-08
1.43506e-06
-3.178e-08
1.45305e-06
9.83162e-09
1.44059e-06
1.80316e-07
1.44242e-06
3.1095e-07
1.43703e-06
3.55872e-07
1.42721e-06
2.56553e-07
1.42182e-06
2.96738e-07
1.86814e-07
1.40968e-06
1.4536e-06
-1.5701e-07
1.51013e-06
-5.426e-07
1.62172e-06
1.28244e-07
1.51225e-06
1.95131e-06
1.424e-06
-9.5602e-07
1.56804e-06
-1.14518e-07
1.5454e-06
7.78842e-07
1.55436e-06
1.2038e-06
1.54164e-06
5.58557e-07
1.55393e-06
6.60996e-07
1.52449e-06
7.24339e-08
1.51452e-06
2.97409e-08
1.49938e-06
-1.6633e-08
1.51012e-06
-9.10615e-10
1.50965e-06
1.80785e-07
1.51204e-06
3.08559e-07
1.50984e-06
3.58067e-07
1.50048e-06
2.65914e-07
1.49463e-06
3.02591e-07
2.0114e-07
1.4803e-06
1.51714e-06
-1.2793e-07
1.56164e-06
-5.87102e-07
1.68146e-06
8.42342e-09
1.62851e-06
2.00426e-06
1.5068e-06
-8.34307e-07
1.61654e-06
-2.24265e-07
1.62815e-06
7.67236e-07
1.63404e-06
1.19791e-06
1.61925e-06
5.73348e-07
1.62443e-06
6.55817e-07
1.59364e-06
1.03216e-07
1.57883e-06
4.45571e-08
1.56267e-06
-4.71144e-10
1.56777e-06
-6.01699e-09
1.5737e-06
1.74861e-07
1.58008e-06
3.02172e-07
1.5812e-06
3.56949e-07
1.57301e-06
2.7411e-07
1.56799e-06
3.07607e-07
2.16731e-07
1.5524e-06
1.58677e-06
-9.45691e-08
1.618e-06
-6.18336e-07
1.73619e-06
-1.09765e-07
1.72751e-06
2.01295e-06
1.58976e-06
-6.96558e-07
1.66034e-06
-2.94847e-07
1.70189e-06
7.25689e-07
1.7112e-06
1.1886e-06
1.69638e-06
5.88168e-07
1.69527e-06
6.56928e-07
1.66411e-06
1.34373e-07
1.64697e-06
6.16956e-08
1.62863e-06
1.78739e-08
1.62908e-06
-6.46895e-09
1.63689e-06
1.6705e-07
1.64656e-06
2.92502e-07
1.65158e-06
3.5193e-07
1.64541e-06
2.80276e-07
1.64209e-06
3.10926e-07
2.32033e-07
1.62679e-06
1.66493e-06
-6.19221e-08
1.68204e-06
-6.35448e-07
1.78793e-06
-2.15654e-07
1.81113e-06
1.98974e-06
1.67611e-06
-5.61536e-07
1.70858e-06
-3.27319e-07
1.76582e-06
6.68451e-07
1.78388e-06
1.17054e-06
1.77175e-06
6.00299e-07
1.76765e-06
6.61028e-07
1.73711e-06
1.64911e-07
1.72003e-06
7.87791e-08
1.69991e-06
3.79912e-08
1.69628e-06
-2.83124e-09
1.7031e-06
1.60228e-07
1.71396e-06
2.81639e-07
1.72244e-06
3.43453e-07
1.71879e-06
2.83927e-07
1.71776e-06
3.11947e-07
2.45677e-07
1.70412e-06
1.75183e-06
-3.50261e-08
1.75494e-06
-6.38565e-07
1.84047e-06
-3.01183e-07
1.88603e-06
1.94419e-06
1.76659e-06
-4.42103e-07
1.76745e-06
-3.28173e-07
1.82495e-06
6.10948e-07
1.85255e-06
1.14294e-06
1.84559e-06
6.07256e-07
1.84234e-06
6.64281e-07
1.81396e-06
1.93286e-07
1.7986e-06
9.41403e-08
1.7778e-06
5.87893e-08
1.7706e-06
4.36743e-09
1.77486e-06
1.55975e-07
1.78485e-06
2.71641e-07
1.79558e-06
3.32723e-07
1.7942e-06
2.85311e-07
1.79559e-06
3.10559e-07
2.56675e-07
1.78459e-06
1.84545e-06
-1.67303e-08
1.83646e-06
-6.29574e-07
1.89821e-06
-3.62931e-07
1.95869e-06
1.88371e-06
1.8598e-06
-3.43215e-07
1.83934e-06
-3.07715e-07
1.88738e-06
5.62907e-07
1.9211e-06
1.10923e-06
1.91996e-06
6.08392e-07
1.92027e-06
6.63975e-07
1.89559e-06
2.17962e-07
1.88299e-06
1.06742e-07
1.86256e-06
7.92177e-08
1.8524e-06
1.45269e-08
1.85344e-06
1.54937e-07
1.86103e-06
2.64055e-07
1.87264e-06
3.21113e-07
1.87285e-06
2.85094e-07
1.87621e-06
3.07201e-07
2.64523e-07
1.86836e-06
1.94315e-06
-7.04268e-09
1.92568e-06
-6.12104e-07
1.96461e-06
-4.01861e-07
2.0334e-06
1.81492e-06
1.95429e-06
-2.64095e-07
1.92367e-06
-2.77102e-07
1.95975e-06
5.26829e-07
1.99481e-06
1.07417e-06
1.99797e-06
6.0523e-07
2.00256e-06
6.59387e-07
1.98228e-06
2.38236e-07
1.97292e-06
1.16103e-07
1.95377e-06
9.83712e-08
1.94145e-06
2.68481e-08
1.93941e-06
1.56969e-07
1.94376e-06
2.59706e-07
1.95512e-06
3.0976e-07
1.95626e-06
2.83955e-07
1.96079e-06
3.02669e-07
2.69221e-07
1.95609e-06
2.04319e-06
-4.04154e-09
2.02158e-06
-5.90493e-07
2.04128e-06
-4.21564e-07
2.11248e-06
1.74372e-06
2.04985e-06
-2.01464e-07
2.01811e-06
-2.45371e-07
2.04451e-06
5.00437e-07
2.07742e-06
1.04126e-06
2.08235e-06
6.00293e-07
2.09026e-06
6.5148e-07
2.07392e-06
2.54575e-07
2.06769e-06
1.22331e-07
2.0506e-06
1.15463e-07
2.03718e-06
4.02748e-08
2.03297e-06
1.61179e-07
2.0341e-06
2.58568e-07
2.04448e-06
2.99388e-07
2.04607e-06
2.82363e-07
2.05087e-06
2.97866e-07
2.71196e-07
2.0489e-06
2.14519e-06
-5.2333e-09
2.12315e-06
-5.68449e-07
2.12803e-06
-4.26443e-07
2.19722e-06
1.67453e-06
2.14746e-06
-1.51703e-07
2.11998e-06
-2.17889e-07
2.14037e-06
4.80039e-07
2.16986e-06
1.01177e-06
2.1745e-06
5.95653e-07
2.18413e-06
6.4185e-07
2.17047e-06
2.68242e-07
2.16673e-06
1.26073e-07
2.15224e-06
1.29946e-07
2.13881e-06
5.37086e-08
2.13382e-06
1.66163e-07
2.13256e-06
2.59827e-07
2.14165e-06
2.90304e-07
2.14348e-06
2.80532e-07
2.14776e-06
2.93581e-07
2.71152e-07
2.14781e-06
2.24973e-06
-8.4715e-09
2.22953e-06
-5.48253e-07
2.22376e-06
-4.20673e-07
2.28863e-06
1.60966e-06
2.24859e-06
-1.11664e-07
2.22718e-06
-1.96483e-07
2.24451e-06
4.62711e-07
2.27094e-06
9.85347e-07
2.27438e-06
5.92207e-07
2.28449e-06
6.31741e-07
2.27214e-06
2.80591e-07
2.26992e-06
1.2829e-07
2.25821e-06
1.41661e-07
2.24555e-06
6.63689e-08
2.24119e-06
1.70524e-07
2.23877e-06
2.62241e-07
2.24656e-06
2.82516e-07
2.24865e-06
2.78448e-07
2.25192e-06
2.90308e-07
2.69877e-07
2.25319e-06
2.35769e-06
-1.22832e-08
2.34018e-06
-5.30743e-07
2.32733e-06
-4.07829e-07
2.38752e-06
1.54948e-06
2.35458e-06
-7.87242e-08
2.33864e-06
-1.80545e-07
2.3544e-06
4.46945e-07
2.37874e-06
9.61014e-07
2.38116e-06
5.89787e-07
2.39125e-06
6.21644e-07
2.37932e-06
2.9252e-07
2.37765e-06
1.2996e-07
2.36848e-06
1.50837e-07
2.35685e-06
7.79954e-08
2.354e-06
1.73379e-07
2.35161e-06
2.64629e-07
2.35821e-06
2.75916e-07
2.36069e-06
2.7597e-07
2.36281e-06
2.88181e-07
2.68077e-07
2.36461e-06
2.46995e-06
-1.58379e-08
2.45496e-06
-5.15755e-07
2.43792e-06
-3.90789e-07
2.49431e-06
1.49309e-06
2.46629e-06
-5.06987e-08
2.45406e-06
-1.68323e-07
2.46867e-06
4.3234e-07
2.49179e-06
9.3789e-07
2.4939e-06
5.87675e-07
2.50413e-06
6.11419e-07
2.49233e-06
3.04317e-07
2.49046e-06
1.31829e-07
2.48336e-06
1.57938e-07
2.4726e-06
8.87621e-08
2.47141e-06
1.74569e-07
2.46981e-06
2.66224e-07
2.47532e-06
2.70411e-07
2.47829e-06
2.72995e-07
2.47946e-06
2.87018e-07
2.66299e-07
2.48123e-06
2.58724e-06
-1.87874e-08
2.57412e-06
-5.02633e-07
2.55504e-06
-3.71711e-07
2.60898e-06
1.43915e-06
2.58412e-06
-2.58358e-08
2.57373e-06
-1.57933e-07
2.58708e-06
4.18988e-07
2.60949e-06
9.15483e-07
2.61204e-06
5.85122e-07
2.62281e-06
6.00648e-07
2.61133e-06
3.15804e-07
2.60885e-06
1.34304e-07
2.60332e-06
1.63472e-07
2.59305e-06
9.90231e-08
2.59312e-06
1.74502e-07
2.5926e-06
2.6675e-07
2.59704e-06
2.6597e-07
2.60048e-06
2.69556e-07
2.60104e-06
2.8646e-07
2.6493e-07
2.6024e-06
2.71013e-06
-2.10894e-08
2.69808e-06
-4.90581e-07
2.67845e-06
-3.52083e-07
2.73117e-06
1.38643e-06
2.7082e-06
-2.86256e-09
2.69816e-06
-1.47902e-07
2.71016e-06
4.06992e-07
2.732e-06
8.93642e-07
2.73548e-06
5.81645e-07
2.74717e-06
5.88952e-07
2.73635e-06
3.26629e-07
2.73316e-06
1.37489e-07
2.72879e-06
1.67847e-07
2.71872e-06
1.09097e-07
2.7194e-06
1.7382e-07
2.71985e-06
2.66295e-07
2.72321e-06
2.62609e-07
2.72697e-06
2.65802e-07
2.72733e-06
2.86094e-07
2.64229e-07
2.72803e-06
2.83904e-06
-2.28581e-08
2.82731e-06
-4.78854e-07
2.80808e-06
-3.32853e-07
2.86044e-06
1.33407e-06
2.83857e-06
1.90092e-08
2.82795e-06
-1.37284e-07
2.83867e-06
3.96267e-07
2.85996e-06
8.72357e-07
2.86453e-06
5.77077e-07
2.87734e-06
5.76135e-07
2.86747e-06
3.365e-07
2.86365e-06
1.41316e-07
2.86015e-06
1.71343e-07
2.85007e-06
1.19176e-07
2.85078e-06
1.73115e-07
2.85196e-06
2.65114e-07
2.85425e-06
2.60318e-07
2.85812e-06
2.61933e-07
2.85867e-06
2.85545e-07
2.64315e-07
2.85858e-06
2.97431e-06
-2.4269e-08
2.96228e-06
-4.6683e-07
2.94404e-06
-3.14606e-07
2.99649e-06
1.28162e-06
2.97534e-06
4.01549e-08
2.9636e-06
-1.25547e-07
2.9733e-06
3.8657e-07
2.99408e-06
8.51581e-07
2.99969e-06
5.7146e-07
3.01365e-06
5.62177e-07
3.00485e-06
3.453e-07
3.00048e-06
1.45685e-07
2.99768e-06
1.74146e-07
2.9875e-06
1.29352e-07
2.98782e-06
1.72799e-07
2.98948e-06
2.63455e-07
2.99075e-06
2.59042e-07
2.99457e-06
2.58115e-07
2.99563e-06
2.84492e-07
2.65159e-07
2.99478e-06
3.11625e-06
-2.55138e-08
3.10345e-06
-4.54032e-07
3.08655e-06
-2.97705e-07
3.1392e-06
1.22897e-06
3.1187e-06
6.06617e-08
3.1056e-06
-1.12449e-07
3.11455e-06
3.77614e-07
3.13495e-06
8.31183e-07
3.14147e-06
5.64944e-07
3.15649e-06
5.47153e-07
3.14872e-06
3.53069e-07
3.14386e-06
1.50546e-07
3.14163e-06
1.76376e-07
3.13133e-06
1.3965e-07
3.131e-06
1.73134e-07
3.13297e-06
2.61484e-07
3.13335e-06
2.58664e-07
3.13698e-06
2.54486e-07
3.13879e-06
2.82677e-07
2.66553e-07
3.1374e-06
3.26517e-06
-2.67784e-08
3.25127e-06
-4.40129e-07
3.23594e-06
-2.82378e-07
3.28864e-06
1.17628e-06
3.26885e-06
8.04533e-08
3.25438e-06
-9.79735e-08
3.26285e-06
3.69141e-07
3.28306e-06
8.10975e-07
3.29026e-06
5.5774e-07
3.30623e-06
5.31179e-07
3.29938e-06
3.59919e-07
3.29401e-06
1.55916e-07
3.2923e-06
1.78093e-07
3.28191e-06
1.50041e-07
3.28075e-06
1.74293e-07
3.28299e-06
2.59243e-07
3.28261e-06
2.59048e-07
3.28591e-06
2.51179e-07
3.28867e-06
2.79916e-07
2.68157e-07
3.28707e-06
3.42138e-06
-2.82226e-08
3.40617e-06
-4.24923e-07
3.39256e-06
-2.68765e-07
3.44499e-06
1.12384e-06
3.42606e-06
9.93856e-08
3.41038e-06
-8.22937e-08
3.41856e-06
3.60963e-07
3.43877e-06
7.90766e-07
3.44639e-06
5.50111e-07
3.46318e-06
5.1439e-07
3.45714e-06
3.65961e-07
3.45118e-06
1.61874e-07
3.44999e-06
1.7929e-07
3.4396e-06
1.6043e-07
3.43752e-06
1.7637e-07
3.44004e-06
2.56719e-07
3.4391e-06
2.59992e-07
3.4419e-06
2.48379e-07
3.44566e-06
2.76152e-07
2.69512e-07
3.44431e-06
3.58515e-06
-2.99638e-08
3.56855e-06
-4.08319e-07
3.55673e-06
-2.56946e-07
3.60854e-06
1.07203e-06
3.59061e-06
1.17313e-07
3.57404e-06
-6.57161e-08
3.58203e-06
3.52973e-07
3.60241e-06
7.70386e-07
3.61017e-06
5.42344e-07
3.62763e-06
4.96932e-07
3.62235e-06
3.71247e-07
3.61566e-06
1.68558e-07
3.61503e-06
1.79923e-07
3.6048e-06
1.70658e-07
3.60175e-06
1.79422e-07
3.60461e-06
2.53854e-07
3.60337e-06
2.61242e-07
3.60544e-06
2.46301e-07
3.61012e-06
2.71472e-07
2.70139e-07
3.6095e-06
3.75681e-06
-3.20697e-08
3.73879e-06
-3.90299e-07
3.72879e-06
-2.46945e-07
3.77968e-06
1.02114e-06
3.76287e-06
1.34119e-07
3.74575e-06
-4.85956e-08
3.75357e-06
3.45148e-07
3.77427e-06
7.49687e-07
3.78192e-06
5.34699e-07
3.79987e-06
4.78976e-07
3.79538e-06
3.75738e-07
3.78779e-06
1.76147e-07
3.78777e-06
1.79949e-07
3.77791e-06
1.80518e-07
3.77385e-06
1.83475e-07
3.7771e-06
2.50606e-07
3.77584e-06
2.62504e-07
3.77705e-06
2.45089e-07
3.78235e-06
2.66175e-07
2.69605e-07
3.78288e-06
3.93668e-06
-3.45611e-08
3.91728e-06
-3.709e-07
3.90906e-06
-2.38723e-07
3.95884e-06
9.7136e-07
3.94323e-06
1.49728e-07
3.9259e-06
-3.12613e-08
3.9335e-06
3.37547e-07
3.95464e-06
7.28544e-07
3.96196e-06
5.27378e-07
3.98022e-06
4.60723e-07
3.97664e-06
3.79308e-07
3.96799e-06
1.84804e-07
3.96853e-06
1.79407e-07
3.95929e-06
1.89757e-07
3.95422e-06
1.8854e-07
3.95782e-06
2.47008e-07
3.95691e-06
2.63417e-07
3.95718e-06
2.4482e-07
3.96262e-06
2.60738e-07
2.67566e-07
3.96465e-06
4.12513e-06
-3.74419e-08
4.10443e-06
-3.50195e-07
4.09785e-06
-2.3215e-07
4.14647e-06
9.2274e-07
4.13211e-06
1.6409e-07
4.11485e-06
-1.4005e-08
4.12211e-06
3.30289e-07
4.1438e-06
7.06856e-07
4.15068e-06
5.20496e-07
4.16899e-06
4.42415e-07
4.16653e-06
3.81764e-07
4.15671e-06
1.94633e-07
4.15765e-06
1.78458e-07
4.14934e-06
1.98075e-07
4.14323e-06
1.94647e-07
4.14706e-06
2.43182e-07
4.14685e-06
2.63626e-07
4.14627e-06
2.45395e-07
4.15129e-06
2.55721e-07
2.63963e-07
4.15489e-06
4.32257e-06
-4.07134e-08
4.30066e-06
-3.28283e-07
4.29552e-06
-2.2701e-07
4.34302e-06
8.75245e-07
4.32993e-06
1.77182e-07
4.313e-06
2.92015e-09
4.31976e-06
3.23526e-07
4.34206e-06
6.84561e-07
4.34849e-06
5.14064e-07
4.36657e-06
4.24334e-07
4.36545e-06
3.82884e-07
4.35444e-06
2.05641e-07
4.35552e-06
1.77378e-07
4.34843e-06
2.0517e-07
4.3413e-06
2.0178e-07
4.34507e-06
2.39405e-07
4.34587e-06
2.62834e-07
4.34473e-06
2.46533e-07
4.34887e-06
2.51582e-07
2.59133e-07
4.3537e-06
4.52944e-06
-4.4378e-08
4.50644e-06
-3.05286e-07
4.50245e-06
-2.23018e-07
4.54892e-06
8.28778e-07
4.53709e-06
1.89008e-07
4.52073e-06
1.9275e-08
4.52685e-06
3.17407e-07
4.54976e-06
6.61651e-07
4.55584e-06
5.07987e-07
4.57338e-06
4.06792e-07
4.5738e-06
3.82471e-07
4.56173e-06
2.17706e-07
4.56255e-06
1.76559e-07
4.55696e-06
2.10755e-07
4.54893e-06
2.09818e-07
4.55221e-06
2.36124e-07
4.55415e-06
2.60888e-07
4.5529e-06
2.47786e-07
4.55594e-06
2.48541e-07
2.53717e-07
4.56136e-06
4.74617e-06
-4.84298e-08
4.72225e-06
-2.81367e-07
4.71906e-06
-2.19831e-07
4.76463e-06
7.83207e-07
4.75401e-06
1.99632e-07
4.73848e-06
3.48071e-08
4.74383e-06
3.12051e-07
4.76728e-06
6.38204e-07
4.77321e-06
5.02058e-07
4.78989e-06
3.90108e-07
4.79197e-06
3.80393e-07
4.7791e-06
2.3058e-07
4.77921e-06
1.76446e-07
4.77536e-06
2.1461e-07
4.76665e-06
2.18525e-07
4.76893e-06
2.33839e-07
4.77204e-06
2.57785e-07
4.7711e-06
2.48719e-07
4.77321e-06
2.46431e-07
2.48473e-07
4.77846e-06
4.97321e-06
-5.284e-08
4.94858e-06
-2.5674e-07
4.94581e-06
-2.17064e-07
4.99067e-06
7.3835e-07
4.98112e-06
2.09185e-07
4.96667e-06
4.92529e-08
4.97123e-06
3.07488e-07
4.99501e-06
6.14426e-07
5.00106e-06
4.96007e-07
5.01662e-06
3.74552e-07
5.0204e-06
3.76612e-07
5.00706e-06
2.43919e-07
5.00606e-06
1.7745e-07
5.00402e-06
2.16644e-07
4.99501e-06
2.27543e-07
4.99597e-06
2.32874e-07
5.00002e-06
2.53734e-07
4.99976e-06
2.48986e-07
5.00117e-06
2.45022e-07
2.43877e-07
5.00576e-06
5.21102e-06
-5.75429e-08
5.18597e-06
-2.31691e-07
5.18316e-06
-2.14256e-07
5.22757e-06
6.93937e-07
5.21888e-06
2.1788e-07
5.20577e-06
6.23599e-08
5.20964e-06
3.03623e-07
5.23341e-06
5.90649e-07
5.23986e-06
4.89561e-07
5.25411e-06
3.603e-07
5.25954e-06
3.7118e-07
5.24612e-06
2.57342e-07
5.24367e-06
1.79901e-07
5.24345e-06
2.16862e-07
5.23462e-06
2.36373e-07
5.23392e-06
2.33572e-07
5.23871e-06
2.48952e-07
5.23928e-06
2.48415e-07
5.24022e-06
2.4408e-07
2.39967e-07
5.24413e-06
5.46008e-06
-6.2434e-08
5.43496e-06
-2.06567e-07
5.43158e-06
-2.10876e-07
5.47592e-06
6.49589e-07
5.46782e-06
2.25983e-07
5.45627e-06
7.39086e-08
5.45962e-06
3.00272e-07
5.48301e-06
5.67265e-07
5.49005e-06
4.82516e-07
5.50294e-06
3.47414e-07
5.5099e-06
3.6422e-07
5.49677e-06
2.70475e-07
5.49269e-06
1.83979e-07
5.49409e-06
2.15459e-07
5.48606e-06
2.44404e-07
5.48358e-06
2.36054e-07
5.48855e-06
2.43977e-07
5.4902e-06
2.46764e-07
5.49089e-06
2.43393e-07
2.36653e-07
5.4942e-06
5.72089e-06
-6.73704e-08
5.69612e-06
-1.81791e-07
5.69154e-06
-2.06294e-07
5.73633e-06
6.04794e-07
5.7285e-06
2.33811e-07
5.71862e-06
8.37874e-08
5.72177e-06
2.97122e-07
5.74437e-06
5.44666e-07
5.75211e-06
4.74781e-07
5.76367e-06
3.35852e-07
5.77196e-06
3.55929e-07
5.75955e-06
2.82884e-07
5.75371e-06
1.89825e-07
5.75639e-06
2.1278e-07
5.74982e-06
2.50974e-07
5.74564e-06
2.4023e-07
5.75011e-06
2.39502e-07
5.75305e-06
2.43833e-07
5.75372e-06
2.42722e-07
2.3388e-07
5.75649e-06
5.994e-06
-7.2181e-08
5.97005e-06
-1.57841e-07
5.9636e-06
-1.99842e-07
6.00942e-06
5.58973e-07
6.00155e-06
2.41684e-07
5.99322e-06
9.21205e-08
5.99664e-06
2.93697e-07
6.01815e-06
5.23161e-07
6.02654e-06
4.66383e-07
6.03688e-06
3.25515e-07
6.04629e-06
3.46524e-07
6.03505e-06
2.94115e-07
6.02737e-06
1.97507e-07
6.03082e-06
2.09332e-07
6.02636e-06
2.55434e-07
6.0208e-06
2.45796e-07
6.02403e-06
2.36271e-07
6.0283e-06
2.3956e-07
6.02928e-06
2.41744e-07
2.31633e-07
6.03152e-06
6.27998e-06
-7.66737e-08
6.2574e-06
-1.35257e-07
6.24846e-06
-1.90901e-07
6.29577e-06
5.11659e-07
6.28773e-06
2.49729e-07
6.2805e-06
9.93487e-08
6.28474e-06
2.8945e-07
6.305e-06
5.02903e-07
6.31392e-06
4.57469e-07
6.32313e-06
3.16302e-07
6.33345e-06
3.36204e-07
6.32383e-06
3.03732e-07
6.31435e-06
2.06992e-07
6.31801e-06
2.05668e-07
6.31607e-06
2.57379e-07
6.30969e-06
2.52173e-07
6.31109e-06
2.34868e-07
6.31641e-06
2.34244e-07
6.31819e-06
2.39966e-07
2.29912e-07
6.31991e-06
6.57944e-06
-8.06481e-08
6.55879e-06
-1.14604e-07
6.54703e-06
-1.79143e-07
6.59582e-06
4.62872e-07
6.58785e-06
2.57698e-07
6.58103e-06
1.06165e-07
6.58658e-06
2.83904e-07
6.60567e-06
4.83815e-07
6.61483e-06
4.48311e-07
6.62302e-06
3.08107e-07
6.63405e-06
3.25176e-07
6.62645e-06
3.11332e-07
6.61537e-06
2.18073e-07
6.61855e-06
2.02489e-07
6.61929e-06
2.5663e-07
6.6129e-06
2.58572e-07
6.61223e-06
2.35537e-07
6.61784e-06
2.28633e-07
6.62097e-06
2.36835e-07
2.2849e-07
6.62239e-06
6.89305e-06
-8.39072e-08
6.87491e-06
-9.64658e-08
6.86022e-06
-1.64452e-07
6.90995e-06
4.13146e-07
6.90272e-06
2.64924e-07
6.89553e-06
1.13349e-07
6.90263e-06
2.76804e-07
6.92087e-06
4.65581e-07
6.92995e-06
4.39227e-07
6.93716e-06
3.00901e-07
6.94871e-06
3.13624e-07
6.94342e-06
3.16621e-07
6.93118e-06
2.30318e-07
6.93315e-06
2.00518e-07
6.93643e-06
2.53347e-07
6.9309e-06
2.64105e-07
6.92828e-06
2.3816e-07
6.9333e-06
2.23606e-07
6.93803e-06
2.32106e-07
2.26873e-07
6.93965e-06
7.22149e-06
-8.62631e-08
7.20645e-06
-8.14227e-08
7.18885e-06
-1.46858e-07
7.23851e-06
3.63488e-07
7.23308e-06
2.70354e-07
7.22482e-06
1.21616e-07
7.23341e-06
2.68208e-07
7.25129e-06
4.47706e-07
7.26006e-06
4.30458e-07
7.26622e-06
2.94737e-07
7.27807e-06
3.01777e-07
7.27531e-06
3.19381e-07
7.26245e-06
2.43173e-07
7.26262e-06
2.00346e-07
7.26797e-06
2.48e-07
7.26417e-06
2.67907e-07
7.25995e-06
2.42384e-07
7.26371e-06
2.19842e-07
7.26979e-06
2.26029e-07
2.24449e-07
7.27221e-06
7.56551e-06
-8.75514e-08
7.55412e-06
-7.00279e-08
7.53377e-06
-1.26508e-07
7.582e-06
3.15256e-07
7.57962e-06
2.72732e-07
7.56979e-06
1.31451e-07
7.57953e-06
2.58468e-07
7.59756e-06
4.2967e-07
7.60592e-06
4.22098e-07
7.61092e-06
2.89738e-07
7.62281e-06
2.89894e-07
7.62264e-06
3.19544e-07
7.60983e-06
2.55985e-07
7.60782e-06
2.02354e-07
7.61456e-06
2.41263e-07
7.6131e-06
2.69365e-07
7.60797e-06
2.47515e-07
7.61e-06
2.17817e-07
7.61681e-06
2.19212e-07
2.20698e-07
7.62056e-06
7.9259e-06
-8.76376e-08
7.91841e-06
-6.25408e-08
7.8958e-06
-1.03902e-07
7.94106e-06
2.70004e-07
7.94293e-06
2.70858e-07
7.93147e-06
1.4291e-07
7.94165e-06
2.48293e-07
7.9603e-06
4.11018e-07
7.96834e-06
4.14055e-07
7.97203e-06
2.86049e-07
7.98363e-06
2.783e-07
7.98598e-06
3.17191e-07
7.97385e-06
2.6811e-07
7.96971e-06
2.06499e-07
7.97689e-06
2.34084e-07
7.9781e-06
2.68149e-07
7.97299e-06
2.52627e-07
7.97313e-06
2.17679e-07
7.97985e-06
2.12488e-07
2.15397e-07
7.98516e-06
8.30348e-06
-8.64375e-08
8.29972e-06
-5.87756e-08
8.27579e-06
-7.9977e-08
8.31646e-06
2.29335e-07
8.32355e-06
2.63765e-07
8.31092e-06
1.5554e-07
8.32055e-06
2.38663e-07
8.34005e-06
3.9152e-07
8.34805e-06
4.06055e-07
8.35037e-06
2.83728e-07
8.36126e-06
2.67411e-07
8.36581e-06
3.12638e-07
8.35505e-06
2.78876e-07
8.34907e-06
2.1247e-07
8.35576e-06
2.27397e-07
8.35969e-06
2.64216e-07
8.35551e-06
2.56807e-07
8.35404e-06
2.19158e-07
8.35984e-06
2.06683e-07
2.08704e-07
8.36653e-06
8.69916e-06
-8.39326e-08
8.69868e-06
-5.83005e-08
8.67456e-06
-5.58572e-08
8.70924e-06
1.94654e-07
8.72185e-06
2.51154e-07
8.70894e-06
1.68454e-07
8.71706e-06
2.30543e-07
8.73735e-06
3.71233e-07
8.74569e-06
3.97709e-07
8.74667e-06
2.82756e-07
8.75635e-06
2.57723e-07
8.76264e-06
3.06354e-07
8.75385e-06
2.87661e-07
8.74665e-06
2.19671e-07
8.75219e-06
2.21857e-07
8.75843e-06
2.57976e-07
8.75603e-06
2.59214e-07
8.75355e-06
2.21634e-07
8.75786e-06
2.02378e-07
2.01198e-07
8.76536e-06
9.11386e-06
-8.01747e-08
9.11613e-06
-6.05649e-08
9.09293e-06
-3.26658e-08
9.12074e-06
1.66846e-07
9.13821e-06
2.33686e-07
9.12645e-06
1.80213e-07
9.13217e-06
2.24827e-07
9.15271e-06
3.50687e-07
9.16185e-06
3.88569e-07
9.16157e-06
2.83042e-07
9.16945e-06
2.49844e-07
9.17709e-06
2.98708e-07
9.17088e-06
2.93874e-07
9.16325e-06
2.27305e-07
9.16726e-06
2.17846e-07
9.17515e-06
2.50082e-07
9.17508e-06
2.59284e-07
9.17241e-06
2.24307e-07
9.17504e-06
1.99747e-07
1.93766e-07
9.18247e-06
9.54857e-06
-7.52844e-08
9.55294e-06
-6.49327e-08
9.53177e-06
-1.14985e-08
9.5525e-06
1.46113e-07
9.57333e-06
2.12858e-07
9.56421e-06
1.89329e-07
9.56687e-06
2.22169e-07
9.58677e-06
3.3079e-07
9.59713e-06
3.78211e-07
9.59599e-06
2.84179e-07
9.60161e-06
2.44227e-07
9.61052e-06
2.89797e-07
9.60708e-06
2.97309e-07
9.59978e-06
2.34608e-07
9.60214e-06
2.15481e-07
9.61095e-06
2.41282e-07
9.61337e-06
2.5686e-07
9.61124e-06
2.26433e-07
9.61252e-06
1.9847e-07
1.8729e-07
9.619e-06
1.00043e-05
-6.94667e-08
1.00101e-05
-7.06722e-08
9.99197e-06
6.59079e-09
1.00058e-05
1.3229e-07
1.0028e-05
1.9061e-07
1.00228e-05
1.94579e-07
1.00222e-05
2.22727e-07
1.00406e-05
3.12451e-07
1.00525e-05
3.66273e-07
1.00512e-05
2.85442e-07
1.00546e-05
2.40863e-07
1.00644e-05
2.80048e-07
1.00638e-05
2.97916e-07
1.00573e-05
2.411e-07
1.00581e-05
2.14625e-07
1.00671e-05
2.32347e-07
1.00718e-05
2.52099e-07
1.00707e-05
2.27524e-07
1.00712e-05
1.97966e-07
1.8218e-07
1.00763e-05
1.04822e-05
-6.30094e-08
1.04885e-05
-7.69624e-08
1.04744e-05
2.0624e-08
1.04818e-05
1.24926e-07
1.05034e-05
1.69038e-07
1.05029e-05
1.95093e-07
1.04998e-05
2.25752e-07
1.05156e-05
2.96728e-07
1.05291e-05
3.52711e-07
1.05288e-05
2.858e-07
1.05301e-05
2.39547e-07
1.05398e-05
2.70371e-07
1.05419e-05
2.95803e-07
1.05367e-05
2.46314e-07
1.05364e-05
2.14904e-07
1.05447e-05
2.23997e-07
1.05514e-05
2.45377e-07
1.05517e-05
2.27255e-07
1.0552e-05
1.97727e-07
1.78302e-07
1.05558e-05
1.09833e-05
-5.62527e-08
1.09893e-05
-8.29622e-08
1.098e-05
2.98661e-08
1.09818e-05
1.23172e-07
1.10009e-05
1.49942e-07
1.10056e-05
1.90384e-07
1.10014e-05
2.29888e-07
1.10135e-05
2.84711e-07
1.1028e-05
3.38186e-07
1.10294e-05
2.84334e-07
1.10293e-05
2.39674e-07
1.10382e-05
2.61502e-07
1.10425e-05
2.91485e-07
1.10389e-05
2.49894e-07
1.10379e-05
2.15895e-07
1.10453e-05
2.16672e-07
1.10534e-05
2.3725e-07
1.10553e-05
2.2538e-07
1.10555e-05
1.97467e-07
1.75234e-07
1.10586e-05
1.15087e-05
-4.95855e-08
1.15135e-05
-8.77927e-08
1.15093e-05
3.40565e-08
1.15069e-05
1.25578e-07
1.15221e-05
1.34799e-07
1.15316e-05
1.80887e-07
1.15283e-05
2.332e-07
1.15361e-05
2.76823e-07
1.15503e-05
3.23994e-07
1.15538e-05
2.80829e-07
1.15534e-05
2.40149e-07
1.15611e-05
2.53768e-07
1.15669e-05
2.85674e-07
1.1565e-05
2.5178e-07
1.15638e-05
2.17106e-07
1.157e-05
2.10508e-07
1.15788e-05
2.28408e-07
1.15824e-05
2.21761e-07
1.1583e-05
1.96915e-07
1.72664e-07
1.15856e-05
1.20596e-05
-4.34075e-08
1.20625e-05
-9.06185e-08
1.20632e-05
3.33432e-08
1.20584e-05
1.30383e-07
1.20685e-05
1.24639e-07
1.20815e-05
1.67894e-07
1.20811e-05
2.33601e-07
1.20853e-05
2.7265e-07
1.20976e-05
3.11676e-07
1.21028e-05
2.75604e-07
1.2103e-05
2.40014e-07
1.21096e-05
2.47106e-07
1.21164e-05
2.78939e-07
1.21161e-05
2.52048e-07
1.2115e-05
2.18176e-07
1.21201e-05
2.05425e-07
1.21291e-05
2.19457e-07
1.21343e-05
2.16498e-07
1.21355e-05
1.95725e-07
1.70464e-07
1.21377e-05
1.26373e-05
-3.8079e-08
1.26375e-05
-9.08395e-08
1.26425e-05
2.83033e-08
1.26372e-05
1.35746e-07
1.2642e-05
1.19797e-07
1.26567e-05
1.53229e-07
1.26604e-05
2.2985e-07
1.26622e-05
2.70912e-07
1.26716e-05
3.02271e-07
1.26777e-05
2.69431e-07
1.26789e-05
2.38843e-07
1.2685e-05
2.41035e-07
1.26922e-05
2.71728e-07
1.26934e-05
2.50823e-07
1.26927e-05
2.1885e-07
1.26969e-05
2.01239e-07
1.27056e-05
2.1083e-07
1.27121e-05
2.09908e-07
1.27143e-05
1.93561e-07
1.68513e-07
1.27163e-05
1.32427e-05
-3.38622e-08
1.32401e-05
-8.82258e-08
1.32485e-05
1.99342e-08
1.32444e-05
1.39848e-07
1.32441e-05
1.20028e-07
1.32582e-05
1.39139e-07
1.32665e-05
2.216e-07
1.32676e-05
2.69828e-07
1.32739e-05
2.95943e-07
1.328e-05
2.63367e-07
1.32822e-05
2.3657e-07
1.32882e-05
2.35056e-07
1.32957e-05
2.6424e-07
1.32982e-05
2.48318e-07
1.32981e-05
2.18957e-07
1.33016e-05
1.97689e-07
1.33097e-05
2.02811e-07
1.33172e-05
2.0238e-07
1.33205e-05
1.9022e-07
1.66583e-07
1.33225e-05
1.38772e-05
-3.09219e-08
1.3872e-05
-8.29916e-08
1.38824e-05
9.51369e-09
1.38811e-05
1.41192e-07
1.38764e-05
1.247e-07
1.38877e-05
1.27815e-07
1.39e-05
2.09309e-07
1.39023e-05
2.67523e-07
1.3906e-05
2.92254e-07
1.39111e-05
2.58229e-07
1.39143e-05
2.3344e-07
1.39204e-05
2.28889e-07
1.39283e-05
2.56379e-07
1.39318e-05
2.44769e-07
1.39324e-05
2.18386e-07
1.39356e-05
1.94543e-07
1.39429e-05
1.95513e-07
1.39509e-05
1.94355e-07
1.39554e-05
1.85664e-07
1.64314e-07
1.39577e-05
1.4542e-05
-2.92932e-08
1.45343e-05
-7.52859e-08
1.45456e-05
-1.79801e-09
1.45479e-05
1.38984e-07
1.45399e-05
1.32637e-07
1.45468e-05
1.20971e-07
1.45619e-05
1.94153e-07
1.45672e-05
2.62286e-07
1.45692e-05
2.90251e-07
1.45731e-05
2.54309e-07
1.45765e-05
2.30013e-07
1.45829e-05
2.22481e-07
1.45913e-05
2.48018e-07
1.45958e-05
2.40237e-07
1.4597e-05
2.17146e-07
1.46e-05
1.91585e-07
1.46066e-05
1.88898e-07
1.46147e-05
1.86271e-07
1.46203e-05
1.8002e-07
1.61371e-07
1.46233e-05
1.52385e-05
-2.88692e-08
1.5229e-05
-6.58472e-08
1.52398e-05
-1.25809e-08
1.5245e-05
1.33794e-07
1.52355e-05
1.42171e-07
1.5237e-05
1.19386e-07
1.52532e-05
1.77974e-07
1.52627e-05
2.52814e-07
1.52647e-05
2.88291e-07
1.52673e-05
2.51632e-07
1.52705e-05
2.26805e-07
1.52771e-05
2.15939e-07
1.52859e-05
2.39165e-07
1.52916e-05
2.34567e-07
1.52935e-05
2.15289e-07
1.52964e-05
1.8868e-07
1.53024e-05
1.82878e-07
1.53102e-05
1.78421e-07
1.53166e-05
1.73614e-07
1.57528e-07
1.53205e-05
1.59678e-05
-2.93754e-08
1.59579e-05
-5.59005e-08
1.59658e-05
-2.05166e-08
1.5973e-05
1.26604e-07
1.59641e-05
1.5105e-07
1.5961e-05
1.22528e-07
1.59757e-05
1.6329e-07
1.59898e-05
2.38658e-07
1.59938e-05
2.84319e-07
1.59954e-05
2.50058e-07
1.59981e-05
2.24068e-07
1.60046e-05
2.09502e-07
1.60137e-05
2.29996e-07
1.60206e-05
2.27739e-07
1.60233e-05
2.12576e-07
1.60261e-05
1.85867e-07
1.60317e-05
1.77304e-07
1.60392e-05
1.70896e-07
1.6046e-05
1.66829e-07
1.52781e-07
1.60507e-05
1.67315e-05
-3.02929e-08
1.67174e-05
-4.17922e-08
1.67229e-05
-2.59878e-08
1.67339e-05
1.15563e-07
1.6728e-05
1.56943e-07
1.67219e-05
1.28688e-07
1.67324e-05
1.52737e-07
1.67501e-05
2.20974e-07
1.67576e-05
2.7684e-07
1.67589e-05
2.48718e-07
1.67609e-05
2.22051e-07
1.67669e-05
2.03498e-07
1.67763e-05
2.20613e-07
1.67841e-05
2.19923e-07
1.67879e-05
2.08778e-07
1.67909e-05
1.82935e-07
1.67959e-05
1.7226e-07
1.68032e-05
1.63646e-07
1.68101e-05
1.59931e-07
1.47375e-07
1.68155e-05
1.75315e-05
-3.1437e-08
1.75195e-05
-2.97462e-08
1.75196e-05
-2.61426e-08
1.7531e-05
1.04173e-07
1.75287e-05
1.59279e-07
1.75216e-05
1.35729e-07
1.75273e-05
1.47015e-07
1.75458e-05
2.02541e-07
1.7557e-05
2.65667e-07
1.75593e-05
2.46324e-07
1.75607e-05
2.20687e-07
1.7566e-05
1.98187e-07
1.75753e-05
2.11309e-07
1.7584e-05
2.11231e-07
1.75889e-05
2.03898e-07
1.75923e-05
1.79533e-07
1.75968e-05
1.67727e-07
1.76037e-05
1.56796e-07
1.76106e-05
1.52968e-07
1.41541e-07
1.76165e-05
1.83693e-05
-3.23615e-08
1.83577e-05
-1.82215e-08
1.83547e-05
-2.30963e-08
1.83664e-05
9.24661e-08
1.83675e-05
1.58163e-07
1.83609e-05
1.42328e-07
1.83628e-05
1.45142e-07
1.83794e-05
1.8593e-07
1.83936e-05
2.51479e-07
1.83979e-05
2.41971e-07
1.83991e-05
2.19491e-07
1.84037e-05
1.93661e-07
1.84125e-05
2.02482e-07
1.84219e-05
2.01802e-07
1.84278e-05
1.9799e-07
1.84319e-05
1.75492e-07
1.84362e-05
1.63359e-07
1.84424e-05
1.50591e-07
1.84494e-05
1.4601e-07
1.35434e-07
1.84555e-05
1.92469e-05
-3.28597e-08
1.92372e-05
-8.56162e-09
1.92311e-05
-1.70024e-08
1.92418e-05
8.17888e-08
1.92459e-05
1.5403e-07
1.92409e-05
1.47406e-07
1.92402e-05
1.45851e-07
1.92535e-05
1.72606e-07
1.92695e-05
2.35436e-07
1.92762e-05
2.35306e-07
1.92779e-05
2.17817e-07
1.92818e-05
1.89755e-07
1.92898e-05
1.94453e-07
1.92995e-05
1.92056e-07
1.93066e-05
1.90976e-07