/*--------------------------------*- C++ -*----------------------------------*\
| =========                 |                                                 |
| \\      /  F ield         | OpenFOAM: The Open Source CFD Toolbox           |
|  \\    /   O peration     | Version:  v1812                                 |
|   \\  /    A nd           | Web:      www.OpenFOAM.com                      |
|    \\/     M anipulation  |                                                 |
\*---------------------------------------------------------------------------*/
FoamFile
{
    version     2.0;
    format      ascii;
    class       volVectorField;
    location    "6";
    object      U;
}
// * * * * * * * * * * * * * * * * * * * * * * * * * * * * * * * * * * * * * //

dimensions      [0 1 -1 0 0 0 0];


internalField   nonuniform List<vector> 
9600
(
(0.666498 -0.00230847 0)
(1.29302 -0.00123836 0)
(0.849164 0.00724065 0)
(1.35559 0.0089754 0)
(0.417959 -0.0150312 0)
(1.33329 0.0132029 0)
(0.781277 0.0086607 0)
(1.20051 0.0225728 0)
(0.810516 0.011513 0)
(1.2133 0.0138952 0)
(0.776035 0.000268791 0)
(1.20165 -0.000640434 0)
(0.769406 -0.00124187 0)
(1.20651 0.003376 0)
(0.81558 0.00257451 0)
(1.16861 0.0136845 0)
(0.851796 0.0105347 0)
(1.13639 0.011108 0)
(0.854163 0.0112458 0)
(1.1276 0.0087144 0)
(0.674758 -0.0021694 0)
(1.28632 -0.00249929 0)
(0.851365 0.00607759 0)
(1.35311 0.0135011 0)
(0.440374 -0.015251 0)
(1.32739 0.010383 0)
(0.792446 0.00924074 0)
(1.19551 0.0228835 0)
(0.829661 0.0110807 0)
(1.2012 0.0145773 0)
(0.815485 -2.20764e-05 0)
(1.18554 -3.14227e-05 0)
(0.812013 -0.00179614 0)
(1.17793 0.00272386 0)
(0.86627 0.00311671 0)
(1.12173 0.012894 0)
(0.92412 0.0116243 0)
(1.06207 0.0103988 0)
(0.956228 0.0126446 0)
(1.01447 0.0071303 0)
(0.692876 -0.00210089 0)
(1.26959 -0.00338029 0)
(0.857909 0.00535096 0)
(1.34703 0.0171818 0)
(0.489761 -0.0155979 0)
(1.31041 0.00712218 0)
(0.824793 0.0102934 0)
(1.17921 0.0228378 0)
(0.871051 0.0106831 0)
(1.1749 0.0151141 0)
(0.882321 -9.39176e-05 0)
(1.1498 0.000301242 0)
(0.885346 -0.00190088 0)
(1.1274 0.00197058 0)
(0.941946 0.00417907 0)
(1.06387 0.0118445 0)
(0.986942 0.0128285 0)
(1.01888 0.0100335 0)
(0.994303 0.0130528 0)
(1.00113 0.00779776 0)
(0.722632 -0.00201618 0)
(1.23968 -0.00420371 0)
(0.870291 0.00450699 0)
(1.33437 0.0202329 0)
(0.568878 -0.0156556 0)
(1.27358 0.00436779 0)
(0.878353 0.0114166 0)
(1.15155 0.0224894 0)
(0.925035 0.0105711 0)
(1.13845 0.0150822 0)
(0.951628 0.000167263 0)
(1.10416 0.000367125 0)
(0.953268 -0.00154623 0)
(1.07827 0.00115091 0)
(0.996694 0.00520819 0)
(1.0331 0.0112529 0)
(1.01363 0.0134808 0)
(1.01384 0.0102265 0)
(1.00306 0.0132416 0)
(1.006 0.0085341 0)
(0.764056 -0.0018881 0)
(1.19596 -0.00497771 0)
(0.889084 0.00341215 0)
(1.31172 0.022836 0)
(0.671787 -0.0152022 0)
(1.21454 0.00173443 0)
(0.940261 0.0123287 0)
(1.1198 0.0221482 0)
(0.976254 0.0106741 0)
(1.10282 0.0147249 0)
(1.0021 0.000698826 0)
(1.06503 0.000408941 0)
(0.993745 -0.00107727 0)
(1.04482 0.000461591 0)
(1.01957 0.00581672 0)
(1.02545 0.0111268 0)
(1.02243 0.0137648 0)
(1.01821 0.0106612 0)
(1.00946 0.0135288 0)
(1.00859 0.00910852 0)
(0.813989 -0.00169936 0)
(1.14226 -0.00566571 0)
(0.9129 0.0021469 0)
(1.2771 0.0247443 0)
(0.780919 -0.0141397 0)
(1.14217 -0.000795279 0)
(0.992527 0.0128897 0)
(1.09353 0.0219375 0)
(1.01408 0.0108915 0)
(1.07686 0.0143587 0)
(1.02871 0.00135744 0)
(1.04018 0.000586738 0)
(1.00914 -0.000664614 0)
(1.02508 3.95473e-05 0)
(1.02171 0.00600033 0)
(1.02357 0.0110988 0)
(1.02516 0.013946 0)
(1.02088 0.0111022 0)
(1.01407 0.0138008 0)
(1.01053 0.0097687 0)
(0.866168 -0.00143675 0)
(1.08702 -0.00623078 0)
(0.937916 0.00076208 0)
(1.2322 0.0258475 0)
(0.87635 -0.0125566 0)
(1.07313 -0.00283655 0)
(1.0231 0.0129758 0)
(1.07632 0.0218383 0)
(1.03643 0.0111831 0)
(1.06153 0.0141465 0)
(1.03787 0.00206305 0)
(1.02715 0.00091926 0)
(1.01111 -0.000249627 0)
(1.0128 -0.000157285 0)
(1.0151 0.00589046 0)
(1.01937 0.0109577 0)
(1.02393 0.0140099 0)
(1.02079 0.0114685 0)
(1.01558 0.0140397 0)
(1.01152 0.0105782 0)
(0.913334 -0.00111269 0)
(1.04034 -0.00665343 0)
(0.959041 -0.000660678 0)
(1.18254 0.0262414 0)
(0.946706 -0.0106684 0)
(1.02171 -0.00422137 0)
(1.03066 0.0125226 0)
(1.06443 0.0217388 0)
(1.04608 0.011506 0)
(1.05266 0.0141072 0)
(1.03774 0.00279037 0)
(1.02049 0.00135324 0)
(1.00864 0.000236022 0)
(1.00463 -0.000215227 0)
(1.00662 0.00564343 0)
(1.01267 0.0106686 0)
(1.01957 0.0138804 0)
(1.01843 0.0117673 0)
(1.01482 0.0142562 0)
(1.01135 0.011407 0)
(0.950145 -0.00077013 0)
(1.00922 -0.00691769 0)
(0.972485 -0.00199786 0)
(1.13498 0.0261113 0)
(0.991346 -0.00873059 0)
(0.992624 -0.00496324 0)
(1.02218 0.0116671 0)
(1.05246 0.0215038 0)
(1.04664 0.011793 0)
(1.046 0.0141811 0)
(1.0339 0.00352294 0)
(1.01657 0.00181152 0)
(1.00594 0.000783397 0)
(0.99958 -0.000159868 0)
(0.99939 0.00538967 0)
(1.00545 0.0102802 0)
(1.01367 0.0135836 0)
(1.01454 0.011994 0)
(1.01273 0.0143727 0)
(1.01036 0.0121303 0)
(0.974877 -0.000463894 0)
(0.994469 -0.00701611 0)
(0.977826 -0.00313536 0)
(1.09466 0.0256216 0)
(1.01561 -0.00694728 0)
(0.981676 -0.00514855 0)
(1.00761 0.0106746 0)
(1.03853 0.0210704 0)
(1.04138 0.0119833 0)
(1.0394 0.0142809 0)
(1.02923 0.00422597 0)
(1.0141 0.00223403 0)
(1.00441 0.00135898 0)
(0.997204 7.00422e-06 0)
(0.994508 0.00519967 0)
(0.99923 0.009881 0)
(1.00772 0.0131832 0)
(1.00998 0.0121152 0)
(1.00983 0.014342 0)
(1.0088 0.0127223 0)
(0.989098 -0.000235524 0)
(0.991663 -0.00696385 0)
(0.977839 -0.00400951 0)
(1.06359 0.0248895 0)
(1.02603 -0.00543208 0)
(0.981258 -0.00493597 0)
(0.994993 0.0097691 0)
(1.02454 0.020479 0)
(1.03349 0.0120519 0)
(1.03263 0.014324 0)
(1.0249 0.00485388 0)
(1.01273 0.00259193 0)
(1.00422 0.0019375 0)
(0.996968 0.000272703 0)
(0.992056 0.00510594 0)
(0.994737 0.00955355 0)
(1.00266 0.0127268 0)
(1.00556 0.0121388 0)
(1.00663 0.0142042 0)
(1.00689 0.0131845 0)
(0.99604 -9.85598e-05 0)
(0.994678 -0.00679976 0)
(0.976359 -0.0046034 0)
(1.04109 0.0240096 0)
(1.02805 -0.00420912 0)
(0.984986 -0.00449948 0)
(0.987989 0.00905883 0)
(1.01341 0.0198267 0)
(1.0258 0.0120166 0)
(1.02638 0.0142689 0)
(1.02123 0.00537917 0)
(1.01208 0.00286913 0)
(1.00496 0.00249248 0)
(0.998202 0.000617789 0)
(0.991692 0.00512111 0)
(0.992194 0.00934488 0)
(0.999078 0.0122592 0)
(1.00202 0.0121083 0)
(1.00379 0.0140144 0)
(1.00507 0.0134901 0)
(0.998922 -4.10358e-05 0)
(0.998804 -0.00657339 0)
(0.976064 -0.00494012 0)
(1.02522 0.0230662 0)
(1.02563 -0.00323984 0)
(0.989281 -0.00399815 0)
(0.986323 0.00854214 0)
(1.00656 0.0191976 0)
(1.02006 0.0119253 0)
(1.02139 0.0141248 0)
(1.01827 0.00580015 0)
(1.01168 0.00306012 0)
(1.00604 0.00299949 0)
(1.00018 0.0010139 0)
(0.992914 0.00522791 0)
(0.991593 0.00926424 0)
(0.997342 0.0118219 0)
(0.999989 0.0120502 0)
(1.002 0.0138055 0)
(1.0039 0.0136311 0)
(1.00001 -3.84049e-05 0)
(1.00174 -0.00632863 0)
(0.977691 -0.00507437 0)
(1.01403 0.0221297 0)
(1.02143 -0.00246974 0)
(0.992821 -0.00353189 0)
(0.987844 0.00816346 0)
(1.00348 0.0186303 0)
(1.0167 0.0118269 0)
(1.01798 0.0139269 0)
(1.016 0.00614056 0)
(1.01119 0.00317779 0)
(1.00698 0.00344039 0)
(1.00226 0.00142722 0)
(0.995106 0.00538142 0)
(0.992663 0.00928845 0)
(0.997492 0.0114383 0)
(0.999702 0.0119701 0)
(1.00164 0.0136072 0)
(1.00377 0.0136465 0)
(1.00051 -6.56169e-05 0)
(1.00303 -0.00609659 0)
(0.980624 -0.00505914 0)
(1.00617 0.0212466 0)
(1.01713 -0.00184828 0)
(0.995448 -0.00315837 0)
(0.990404 0.00785821 0)
(1.00266 0.0181266 0)
(1.01516 0.011749 0)
(1.01598 0.0137098 0)
(1.01443 0.00643794 0)
(1.01056 0.00324491 0)
(1.0076 0.00380153 0)
(1.00401 0.00182917 0)
(0.997614 0.00553257 0)
(0.994818 0.0093723 0)
(0.999085 0.0111135 0)
(1.00087 0.0118696 0)
(1.00256 0.0134467 0)
(1.00463 0.0135912 0)
(1.00089 -0.000104224 0)
(1.00305 -0.00589212 0)
(0.983896 -0.00493947 0)
(1.00085 0.0204336 0)
(1.01362 -0.00133809 0)
(0.997369 -0.00288198 0)
(0.99268 0.00758681 0)
(1.00266 0.0176708 0)
(1.01457 0.0116954 0)
(1.01496 0.0134931 0)
(1.01348 0.00672052 0)
(1.00994 0.00328847 0)
(1.00793 0.00408173 0)
(1.00528 0.00220335 0)
(0.999899 0.00564545 0)
(0.997327 0.00946525 0)
(1.00135 0.0108434 0)
(1.00281 0.0117522 0)
(1.00419 0.0133355 0)
(1.00605 0.0135067 0)
(1.00125 -0.000142688 0)
(1.00238 -0.00571768 0)
(0.9868 -0.0047546 0)
(0.997527 0.0196827 0)
(1.0112 -0.000909831 0)
(0.9988 -0.00267209 0)
(0.994185 0.00733705 0)
(1.00258 0.0172439 0)
(1.01421 0.0116544 0)
(1.01444 0.0132792 0)
(1.01297 0.00699779 0)
(1.00948 0.0033342 0)
(1.00809 0.00429605 0)
(1.00613 0.00254707 0)
(1.00168 0.00570624 0)
(0.999581 0.00952873 0)
(1.00354 0.0106212 0)
(1.00477 0.0116232 0)
(1.00586 0.0132684 0)
(1.00747 0.0134185 0)
(1.00159 -0.000175428 0)
(1.00149 -0.00556792 0)
(0.989033 -0.00453417 0)
(0.995721 0.0189742 0)
(1.00978 -0.000536167 0)
(0.999879 -0.00250278 0)
(0.99496 0.00710516 0)
(1.00211 0.0168329 0)
(1.01369 0.0116107 0)
(1.01408 0.0130584 0)
(1.01269 0.00726957 0)
(1.00925 0.00339468 0)
(1.00821 0.00446208 0)
(1.00669 0.00286663 0)
(1.00291 0.00572463 0)
(1.00128 0.00954848 0)
(1.00521 0.0104393 0)
(1.00629 0.0114863 0)
(1.0071 0.013231 0)
(1.0085 0.0133429 0)
(1.00186 -0.000201484 0)
(1.00064 -0.00543329 0)
(0.990582 -0.00430077 0)
(0.994956 0.0182888 0)
(1.00906 -0.000198149 0)
(1.00069 -0.00234789 0)
(0.995251 0.0068942 0)
(1.00135 0.0164327 0)
(1.01293 0.0115504 0)
(1.01371 0.0128211 0)
(1.01247 0.00752987 0)
(1.00923 0.00347209 0)
(1.00833 0.00459383 0)
(1.00712 0.00317163 0)
(1.00373 0.00572208 0)
(1.00241 0.00953227 0)
(1.00624 0.0102899 0)
(1.00725 0.0113444 0)
(1.00779 0.0132108 0)
(1.00901 0.0132921 0)
(1.00207 -0.000221305 0)
(0.999949 -0.0053057 0)
(0.991572 -0.00406776 0)
(0.994828 0.0176121 0)
(1.00874 0.000118576 0)
(1.00132 -0.00219092 0)
(0.995287 0.00670607 0)
(1.00053 0.016044 0)
(1.01202 0.011466 0)
(1.01333 0.012563 0)
(1.01219 0.00776932 0)
(1.00934 0.00356584 0)
(1.00846 0.00470124 0)
(1.00749 0.00346842 0)
(1.00428 0.00571432 0)
(1.00312 0.00949397 0)
(1.00674 0.0101706 0)
(1.00773 0.0112002 0)
(1.00801 0.0131985 0)
(1.00911 0.0132719 0)
(1.00221 -0.000236519 0)
(0.999453 -0.00517762 0)
(0.99216 -0.00384342 0)
(0.99505 0.0169353 0)
(1.00858 0.000422114 0)
(1.00183 -0.00201987 0)
(0.995206 0.00653626 0)
(0.999823 0.0156665 0)
(1.0111 0.0113606 0)
(1.01299 0.0122783 0)
(1.01185 0.00798431 0)
(1.00951 0.00367315 0)
(1.00858 0.00479012 0)
(1.00782 0.00376242 0)
(1.00466 0.00570817 0)
(1.00355 0.0094446 0)
(1.00689 0.0100846 0)
(1.00792 0.0110508 0)
(1.00796 0.0131814 0)
(1.00896 0.0132822 0)
(1.00226 -0.000249111 0)
(0.999148 -0.0050432 0)
(0.992482 -0.00363294 0)
(0.995453 0.0162554 0)
(1.00844 0.000714598 0)
(1.00229 -0.00182713 0)
(0.995079 0.00637929 0)
(0.999316 0.0152974 0)
(1.01027 0.0112378 0)
(1.01275 0.0119672 0)
(1.01145 0.00817753 0)
(1.00969 0.00378707 0)
(1.00868 0.00486424 0)
(1.00811 0.00406158 0)
(1.00493 0.00570999 0)
(1.00382 0.00939132 0)
(1.00683 0.0100367 0)
(1.00796 0.0108926 0)
(1.00781 0.0131458 0)
(1.00871 0.0133257 0)
(1.00222 -0.000261197 0)
(0.999028 -0.00489786 0)
(0.992646 -0.00344055 0)
(0.995944 0.0155732 0)
(1.00822 0.000996996 0)
(1.00273 -0.00161325 0)
(0.994959 0.0062327 0)
(0.999014 0.014933 0)
(1.00955 0.011097 0)
(1.0126 0.0116359 0)
(1.01104 0.00835216 0)
(1.00983 0.00390595 0)
(1.00874 0.00492548 0)
(1.00834 0.00436855 0)
(1.00513 0.00572657 0)
(1.00398 0.00933478 0)
(1.00668 0.0100294 0)
(1.00793 0.0107277 0)
(1.00765 0.0130741 0)
(1.00845 0.0134081 0)
(1.00209 -0.000274144 0)
(0.999068 -0.00473908 0)
(0.992729 -0.00326858 0)
(0.996469 0.0148923 0)
(1.00789 0.00127118 0)
(1.00316 -0.00138055 0)
(0.9949 0.0060907 0)
(0.998886 0.0145707 0)
(1.00897 0.0109441 0)
(1.01253 0.0112844 0)
(1.01062 0.00851062 0)
(1.00989 0.00403959 0)
(1.00879 0.00497365 0)
(1.00851 0.00468122 0)
(1.0053 0.00576426 0)
(1.00411 0.00926718 0)
(1.00651 0.0100601 0)
(1.00789 0.0105642 0)
(1.00755 0.0129427 0)
(1.00822 0.0135241 0)
(1.00186 -0.000289778 0)
(0.999226 -0.00456495 0)
(0.992789 -0.00311731 0)
(0.996985 0.0142176 0)
(1.00746 0.00153099 0)
(1.00356 -0.00113218 0)
(0.994943 0.00595004 0)
(0.998884 0.0142051 0)
(1.0085 0.0107893 0)
(1.01249 0.0109099 0)
(1.01021 0.00865471 0)
(1.00987 0.00419661 0)
(1.00882 0.0050053 0)
(1.00861 0.00499717 0)
(1.00548 0.00583129 0)
(1.00424 0.00917863 0)
(1.00638 0.0101209 0)
(1.00788 0.0104239 0)
(1.00755 0.012739 0)
(1.00805 0.0136421 0)
(1.00158 -0.000309405 0)
(0.999449 -0.00437426 0)
(0.992863 -0.00298983 0)
(0.997457 0.0135541 0)
(1.00699 0.00177341 0)
(1.00391 -0.000870185 0)
(0.995108 0.00581342 0)
(0.998953 0.0138352 0)
(1.00815 0.0106364 0)
(1.01245 0.0105169 0)
(1.00984 0.00878291 0)
(1.00975 0.00437777 0)
(1.00885 0.00501407 0)
(1.00866 0.00531171 0)
(1.00568 0.00593648 0)
(1.00441 0.0090678 0)
(1.00631 0.0101971 0)
(1.00792 0.0103317 0)
(1.00764 0.0124728 0)
(1.00796 0.0137098 0)
(1.00128 -0.000332181 0)
(0.999687 -0.0041692 0)
(0.992972 -0.00288451 0)
(0.997854 0.0129043 0)
(1.00654 0.00200147 0)
(1.00418 -0.00060632 0)
(0.99539 0.00568138 0)
(0.999047 0.0134599 0)
(1.00787 0.0104909 0)
(1.01238 0.0101126 0)
(1.0095 0.00888699 0)
(1.00954 0.00458614 0)
(1.00888 0.00499758 0)
(1.00868 0.00561481 0)
(1.00588 0.00608328 0)
(1.00461 0.00893617 0)
(1.0063 0.0102692 0)
(1.00799 0.0102996 0)
(1.00781 0.012168 0)
(1.00796 0.0136767 0)
(1.001 -0.000359224 0)
(0.999902 -0.00394973 0)
(0.99313 -0.00279763 0)
(0.998154 0.0122683 0)
(1.00614 0.00221235 0)
(1.00437 -0.000342394 0)
(0.995762 0.00555375 0)
(0.999142 0.0130697 0)
(1.00765 0.010362 0)
(1.01228 0.00970516 0)
(1.0092 0.00895932 0)
(1.00926 0.00482809 0)
(1.00891 0.00496254 0)
(1.00867 0.00588907 0)
(1.00606 0.00626918 0)
(1.00484 0.00878832 0)
(1.00633 0.0103155 0)
(1.00808 0.0103268 0)
(1.00802 0.0118627 0)
(1.00804 0.0135118 0)
(1.00076 -0.000390903 0)
(1.00008 -0.00371456 0)
(0.993338 -0.00273098 0)
(0.998353 0.0116474 0)
(1.00581 0.0024053 0)
(1.00449 -7.22441e-05 0)
(0.99619 0.00543383 0)
(0.99923 0.0126617 0)
(1.00745 0.0102445 0)
(1.01215 0.00930432 0)
(1.00892 0.00900118 0)
(1.00893 0.00510941 0)
(1.00892 0.00492688 0)
(1.00866 0.00612413 0)
(1.00621 0.00649044 0)
(1.00508 0.00863561 0)
(1.0064 0.0103178 0)
(1.00816 0.0103977 0)
(1.00824 0.0116053 0)
(1.00819 0.0132277 0)
(1.00057 -0.000425541 0)
(1.00021 -0.00346702 0)
(0.993595 -0.00268059 0)
(0.998465 0.0110427 0)
(1.00553 0.00258135 0)
(1.00457 0.000189962 0)
(0.996639 0.00532524 0)
(0.999317 0.012239 0)
(1.00727 0.0101298 0)
(1.01201 0.00891507 0)
(1.00867 0.0090091 0)
(1.00859 0.00542201 0)
(1.00892 0.00490352 0)
(1.00866 0.00631578 0)
(1.00632 0.00674776 0)
(1.00532 0.0084938 0)
(1.00649 0.010265 0)
(1.00825 0.0104873 0)
(1.00843 0.0114324 0)
(1.00839 0.0128758 0)
(1.00044 -0.000464911 0)
(1.00031 -0.00320817 0)
(0.993891 -0.00264015 0)
(0.998517 0.0104479 0)
(1.00527 0.00273941 0)
(1.00461 0.000440062 0)
(0.997083 0.00523628 0)
(0.999411 0.0118003 0)
(1.00707 0.0100165 0)
(1.01186 0.00854359 0)
(1.00844 0.00897112 0)
(1.00823 0.00574886 0)
(1.00889 0.00489659 0)
(1.00868 0.0064536 0)
(1.00641 0.00703409 0)
(1.00555 0.00838549 0)
(1.00661 0.0101571 0)
(1.00834 0.0105638 0)
(1.00859 0.0113455 0)
(1.0086 0.0125334 0)
(1.00034 -0.000508528 0)
(1.00037 -0.00293874 0)
(0.994215 -0.00260481 0)
(0.998542 0.00986395 0)
(1.005 0.00288181 0)
(1.00463 0.000673668 0)
(0.997507 0.00516877 0)
(0.999517 0.0113552 0)
(1.00686 0.00990288 0)
(1.01171 0.00819996 0)
(1.00822 0.00888434 0)
(1.00788 0.00608442 0)
(1.00884 0.00491507 0)
(1.00874 0.0065358 0)
(1.00647 0.00732784 0)
(1.00575 0.00832208 0)
(1.00675 0.0100089 0)
(1.00844 0.0106044 0)
(1.00873 0.0113056 0)
(1.00879 0.0122649 0)
(1.00028 -0.000554768 0)
(1.00041 -0.00266482 0)
(0.994557 -0.00257596 0)
(0.998565 0.00929033 0)
(1.00471 0.00300759 0)
(1.00464 0.000883117 0)
(0.997904 0.00511663 0)
(0.999633 0.0109159 0)
(1.00663 0.00977792 0)
(1.01157 0.00789376 0)
(1.00803 0.00875956 0)
(1.00752 0.00642521 0)
(1.00877 0.00496715 0)
(1.00882 0.00657271 0)
(1.00651 0.00762076 0)
(1.00592 0.00830459 0)
(1.00691 0.00983367 0)
(1.00855 0.0106112 0)
(1.00885 0.0112703 0)
(1.00895 0.0120688 0)
(1.00023 -0.000603806 0)
(1.00042 -0.00238993 0)
(0.994908 -0.00253907 0)
(0.998603 0.00871834 0)
(1.0044 0.00311853 0)
(1.00464 0.00106316 0)
(0.998275 0.00507378 0)
(0.999754 0.0104884 0)
(1.00639 0.00963307 0)
(1.01142 0.00762464 0)
(1.00786 0.00860801 0)
(1.00717 0.00675803 0)
(1.00867 0.00505305 0)
(1.00894 0.00656351 0)
(1.00655 0.00790931 0)
(1.00603 0.00834378 0)
(1.00707 0.00963367 0)
(1.00867 0.0105878 0)
(1.00895 0.0112385 0)
(1.00908 0.0119027 0)
(1.00019 -0.000654388 0)
(1.00041 -0.00211351 0)
(0.995256 -0.00249469 0)
(0.998662 0.00814435 0)
(1.00408 0.00323231 0)
(1.00463 0.00120917 0)
(0.998622 0.00502897 0)
(0.999874 0.010074 0)
(1.00615 0.00947046 0)
(1.01126 0.00737711 0)
(1.00772 0.00843119 0)
(1.00683 0.0070741 0)
(1.00854 0.00517988 0)
(1.00907 0.00650521 0)
(1.00661 0.00817408 0)
(1.0061 0.00845553 0)
(1.00723 0.00941905 0)
(1.00881 0.0105129 0)
(1.00905 0.0112366 0)
(1.00918 0.0117479 0)
(1.00016 -0.000704737 0)
(1.00039 -0.00184353 0)
(0.995595 -0.00243115 0)
(0.998741 0.00756016 0)
(1.00374 0.00335282 0)
(1.00461 0.00133458 0)
(0.998948 0.00497709 0)
(0.999987 0.00967742 0)
(1.00588 0.00929337 0)
(1.01109 0.00714041 0)
(1.0076 0.00822734 0)
(1.00649 0.00736773 0)
(1.00838 0.00535674 0)
(1.00923 0.00640467 0)
(1.00668 0.00838389 0)
(1.00611 0.00864551 0)
(1.00736 0.0092243 0)
(1.00898 0.0103543 0)
(1.00915 0.0112569 0)
(1.00925 0.0116265 0)
(1.00012 -0.000751851 0)
(1.00035 -0.00159029 0)
(0.995916 -0.00233995 0)
(0.998836 0.00695562 0)
(1.0034 0.00347669 0)
(1.00457 0.00144606 0)
(0.999255 0.00491384 0)
(1.00009 0.00931016 0)
(1.00561 0.00911042 0)
(1.0109 0.00692409 0)
(1.00751 0.00800539 0)
(1.00617 0.00763274 0)
(1.00817 0.00558751 0)
(1.00938 0.00628068 0)
(1.00679 0.0085073 0)
(1.00607 0.00889318 0)
(1.00745 0.00909777 0)
(1.00918 0.0101087 0)
(1.00926 0.011243 0)
(1.00929 0.0115629 0)
(1.00009 -0.000796263 0)
(1.00031 -0.00135138 0)
(0.996215 -0.00222074 0)
(0.998943 0.0063274 0)
(1.00307 0.00360053 0)
(1.00452 0.00154744 0)
(0.999547 0.00482729 0)
(1.00018 0.00897467 0)
(1.00533 0.00892646 0)
(1.01069 0.00673288 0)
(1.00745 0.00777062 0)
(1.00586 0.00785597 0)
(1.00791 0.00586739 0)
(1.00953 0.00615875 0)
(1.00695 0.00853361 0)
(1.00601 0.00916129 0)
(1.00746 0.0090743 0)
(1.0094 0.00981851 0)
(1.00942 0.0111385 0)
(1.00931 0.0115526 0)
(1.00007 -0.000833795 0)
(1.00026 -0.00113702 0)
(0.996485 -0.00206163 0)
(0.999056 0.00567529 0)
(1.00275 0.00371634 0)
(1.00444 0.00165364 0)
(0.999822 0.00470844 0)
(1.00027 0.00866107 0)
(1.00503 0.00874576 0)
(1.01046 0.0065533 0)
(1.0074 0.00751849 0)
(1.00557 0.00803135 0)
(1.00762 0.00619087 0)
(1.00966 0.00605962 0)
(1.00716 0.00846329 0)
(1.00595 0.00940981 0)
(1.0074 0.00915338 0)
(1.00959 0.00954258 0)
(1.00962 0.010926 0)
(1.00933 0.0115403 0)
(1.00004 -0.000862111 0)
(1.00021 -0.000957827 0)
(0.996724 -0.00186326 0)
(0.999172 0.00501177 0)
(1.00245 0.00381086 0)
(1.00434 0.00177478 0)
(1.00008 0.00455487 0)
(1.00035 0.00834905 0)
(1.00473 0.00857829 0)
(1.01021 0.00638375 0)
(1.00738 0.00724224 0)
(1.00532 0.0081547 0)
(1.00728 0.00655088 0)
(1.00975 0.00600472 0)
(1.00741 0.00830217 0)
(1.00591 0.00960412 0)
(1.00726 0.00931566 0)
(1.00972 0.00933003 0)
(1.00987 0.0106362 0)
(1.00938 0.0114676 0)
(1.00001 -0.00088212 0)
(1.00016 -0.000811367 0)
(0.996932 -0.00163099 0)
(0.999287 0.00435984 0)
(1.00216 0.00387061 0)
(1.00421 0.00191952 0)
(1.00032 0.00437358 0)
(1.00043 0.00802655 0)
(1.00441 0.00843063 0)
(1.00992 0.0062448 0)
(1.00737 0.00694589 0)
(1.00511 0.00820848 0)
(1.00691 0.00692731 0)
(1.00978 0.00601498 0)
(1.0077 0.00806999 0)
(1.00592 0.00971292 0)
(1.00707 0.00953066 0)
(1.00978 0.00919644 0)
(1.01013 0.010302 0)
(1.00948 0.0113093 0)
(0.99998 -0.000888639 0)
(1.00011 -0.000710193 0)
(0.997108 -0.00136817 0)
(0.999396 0.00374177 0)
(1.00191 0.00387372 0)
(1.00406 0.00210041 0)
(1.00053 0.00418862 0)
(1.00051 0.00768609 0)
(1.00409 0.00829237 0)
(1.00961 0.00614806 0)
(1.00737 0.00664414 0)
(1.00495 0.00818714 0)
(1.00651 0.00730177 0)
(1.00973 0.0061074 0)
(1.00802 0.00780062 0)
(1.00599 0.00971569 0)
(1.00683 0.009771 0)
(1.00975 0.00915116 0)
(1.01039 0.00995095 0)
(1.00965 0.0110656 0)
(0.999953 -0.000882514 0)
(1.00007 -0.000651882 0)
(0.997257 -0.0010875 0)
(0.999495 0.00317773 0)
(1.00168 0.00380504 0)
(1.00389 0.0023105 0)
(1.00072 0.00401672 0)
(1.0006 0.00732712 0)
(1.00377 0.0081552 0)
(1.00926 0.0060913 0)
(1.00737 0.00634834 0)
(1.00485 0.00808652 0)
(1.0061 0.00764537 0)
(1.0096 0.00627881 0)
(1.00833 0.0075369 0)
(1.00615 0.00960231 0)
(1.0066 0.00999623 0)
(1.0096 0.00920294 0)
(1.01061 0.00962004 0)
(1.00987 0.0107383 0)
(0.999925 -0.000862996 0)
(1.00004 -0.000631189 0)
(0.997381 -0.000801456 0)
(0.999579 0.00269099 0)
(1.00148 0.00365534 0)
(1.0037 0.00252562 0)
(1.00086 0.00386442 0)
(1.00069 0.00694798 0)
(1.00346 0.00801261 0)
(1.00887 0.00607654 0)
(1.00736 0.00608319 0)
(1.0048 0.00791496 0)
(1.00571 0.00792783 0)
(1.00938 0.00650546 0)
(1.0086 0.00731884 0)
(1.00638 0.00938339 0)
(1.00639 0.0101482 0)
(1.00935 0.00933328 0)
(1.01074 0.00935934 0)
(1.01015 0.0103346 0)
(0.999899 -0.000830751 0)
(1.00001 -0.000644367 0)
(0.997486 -0.000515927 0)
(0.999643 0.00229251 0)
(1.00131 0.00342306 0)
(1.00349 0.00272679 0)
(1.00098 0.00375447 0)
(1.00079 0.00654372 0)
(1.00317 0.0078443 0)
(1.00845 0.00609892 0)
(1.00732 0.00587302 0)
(1.00481 0.00769507 0)
(1.00535 0.00812951 0)
(1.00908 0.00675588 0)
(1.00881 0.00716968 0)
(1.00667 0.00910296 0)
(1.00624 0.0101948 0)
(1.00903 0.00949294 0)
(1.01075 0.00920714 0)
(1.01044 0.00989915 0)
(0.999874 -0.000786514 0)
(0.999999 -0.000682221 0)
(0.997578 -0.000247061 0)
(0.999683 0.00198157 0)
(1.00118 0.00313619 0)
(1.00329 0.00289718 0)
(1.00104 0.00370035 0)
(1.00088 0.00613603 0)
(1.00291 0.00763707 0)
(1.00801 0.00614779 0)
(1.00725 0.00572561 0)
(1.00486 0.00745043 0)
(1.00503 0.00824318 0)
(1.00873 0.00700067 0)
(1.00894 0.00708743 0)
(1.00699 0.0087994 0)
(1.00616 0.0101382 0)
(1.00867 0.00962156 0)
(1.01064 0.00914849 0)
(1.01069 0.00950344 0)
(0.99985 -0.000731294 0)
(0.999998 -0.000741731 0)
(0.997664 -2.18639e-06 0)
(0.999695 0.00176858 0)
(1.00107 0.00281257 0)
(1.00311 0.00300669 0)
(1.00107 0.00371201 0)
(1.00097 0.00576741 0)
(1.00268 0.0073848 0)
(1.00757 0.00619855 0)
(1.00715 0.00564695 0)
(1.00493 0.0071995 0)
(1.00476 0.0082745 0)
(1.00834 0.00722143 0)
(1.00899 0.00705772 0)
(1.00733 0.0084826 0)
(1.00616 0.00998761 0)
(1.00831 0.00969022 0)
(1.01041 0.00913239 0)
(1.01085 0.00919907 0)
(0.999828 -0.000666839 0)
(1.00001 -0.000813214 0)
(0.997752 0.00019355 0)
(0.999677 0.0016501 0)
(1.00099 0.00248845 0)
(1.00295 0.00303867 0)
(1.00107 0.00377825 0)
(1.00103 0.00546287 0)
(1.00248 0.00709093 0)
(1.00713 0.00621721 0)
(1.007 0.00563696 0)
(1.00502 0.00695966 0)
(1.00455 0.00823087 0)
(1.00793 0.00739984 0)
(1.00896 0.0070665 0)
(1.00766 0.00816622 0)
(1.00623 0.00975047 0)
(1.00796 0.00970622 0)
(1.0101 0.0091274 0)
(1.01089 0.00898682 0)
(0.999808 -0.000598448 0)
(1.00003 -0.000884618 0)
(0.99785 0.000331803 0)
(0.999636 0.00160812 0)
(1.00092 0.00219834 0)
(1.00282 0.00299441 0)
(1.00104 0.00386193 0)
(1.00107 0.00522687 0)
(1.00231 0.00677568 0)
(1.00671 0.00618643 0)
(1.00683 0.00566336 0)
(1.0051 0.00675405 0)
(1.00438 0.00813084 0)
(1.00752 0.00751814 0)
(1.00884 0.00709146 0)
(1.00794 0.00787547 0)
(1.00637 0.00943982 0)
(1.00766 0.00966468 0)
(1.00973 0.00912781 0)
(1.01082 0.00883095 0)
(0.999792 -0.000527971 0)
(1.00006 -0.00094765 0)
(0.997963 0.000410727 0)
(0.999576 0.00162849 0)
(1.00086 0.0019546 0)
(1.00274 0.0028617 0)
(1.00102 0.0039381 0)
(1.00108 0.00507908 0)
(1.00216 0.00647497 0)
(1.00633 0.00609758 0)
(1.00664 0.00567773 0)
(1.00518 0.0065808 0)
(1.00425 0.00800003 0)
(1.00712 0.00758369 0)
(1.00865 0.00711779 0)
(1.00817 0.00762943 0)
(1.00656 0.0090895 0)
(1.00743 0.00954598 0)
(1.00932 0.00912605 0)
(1.01066 0.00870311 0)
(0.999779 -0.000461898 0)
(1.0001 -0.000989223 0)
(0.998097 0.000424908 0)
(0.999507 0.00168894 0)
(1.00078 0.00178352 0)
(1.00269 0.00265522 0)
(1.00101 0.00396825 0)
(1.00107 0.00501248 0)
(1.00201 0.00621958 0)
(1.00597 0.00596536 0)
(1.00644 0.00566945 0)
(1.00525 0.00641987 0)
(1.00415 0.00784725 0)
(1.00673 0.00761288 0)
(1.00841 0.00714271 0)
(1.00834 0.00742298 0)
(1.00679 0.00873395 0)
(1.00728 0.00935041 0)
(1.00891 0.00910287 0)
(1.01041 0.0085968 0)
(0.999771 -0.000403296 0)
(1.00014 -0.00100533 0)
(0.998253 0.000381619 0)
(0.999438 0.0017598 0)
(1.0007 0.0016898 0)
(1.00267 0.00242118 0)
(1.00104 0.00392677 0)
(1.00104 0.004991 0)
(1.00185 0.00602075 0)
(1.00563 0.00581577 0)
(1.00624 0.00563464 0)
(1.00532 0.00626455 0)
(1.0041 0.00767256 0)
(1.00636 0.00761289 0)
(1.00812 0.00717194 0)
(1.00843 0.00724625 0)
(1.00703 0.00838161 0)
(1.00721 0.00909116 0)
(1.00852 0.00903627 0)
(1.01009 0.00850804 0)
(0.999768 -0.00035436 0)
(1.00017 -0.000991729 0)
(0.99843 0.000289514 0)
(0.999382 0.00182546 0)
(1.00059 0.00167146 0)
(1.00267 0.00218974 0)
(1.00111 0.0038042 0)
(1.00102 0.00498485 0)
(1.00168 0.00589673 0)
(1.00531 0.00567511 0)
(1.00605 0.00555935 0)
(1.00538 0.00610394 0)
(1.00408 0.00747623 0)
(1.00603 0.00757268 0)
(1.00779 0.00719988 0)
(1.00846 0.00710498 0)
(1.00727 0.00804006 0)
(1.00722 0.00878195 0)
(1.00818 0.00891789 0)
(1.00973 0.00842941 0)
(0.999769 -0.000319495 0)
(1.0002 -0.000944038 0)
(0.998624 0.000166071 0)
(0.99935 0.00186247 0)
(1.00047 0.00172755 0)
(1.00267 0.00199051 0)
(1.00123 0.00359875 0)
(1.00103 0.00495587 0)
(1.00151 0.00584202 0)
(1.00499 0.00556868 0)
(1.00585 0.00546656 0)
(1.00544 0.0059299 0)
(1.0041 0.00726587 0)
(1.00574 0.00748988 0)
(1.00744 0.00720542 0)
(1.00841 0.00699448 0)
(1.00747 0.00772459 0)
(1.0073 0.00843039 0)
(1.00791 0.0087354 0)
(1.00934 0.00833933 0)
(0.999776 -0.000295617 0)
(1.00022 -0.000870823 0)
(0.99883 3.46597e-05 0)
(0.99935 0.00185251 0)
(1.00033 0.00183793 0)
(1.00265 0.0018551 0)
(1.00139 0.00333131 0)
(1.00109 0.00487617 0)
(1.00135 0.0058192 0)
(1.00467 0.00550217 0)
(1.00565 0.00538527 0)
(1.0055 0.00574241 0)
(1.00415 0.0070347 0)
(1.0055 0.00737517 0)
(1.00709 0.00718599 0)
(1.00829 0.0069014 0)
(1.00761 0.00745739 0)
(1.00741 0.00806758 0)
(1.00773 0.00849091 0)
(1.00896 0.00822475 0)
(0.999786 -0.000289367 0)
(1.00023 -0.000770295 0)
(0.99904 -9.71413e-05 0)
(0.999388 0.00179316 0)
(1.00019 0.00197538 0)
(1.00261 0.00180142 0)
(1.00157 0.00304148 0)
(1.00121 0.00472359 0)
(1.0012 0.00579905 0)
(1.00434 0.00546857 0)
(1.00543 0.00531989 0)
(1.00555 0.00555577 0)
(1.00424 0.00677369 0)
(1.00532 0.00722176 0)
(1.00675 0.00714572 0)
(1.00813 0.00680529 0)
(1.00771 0.00722385 0)
(1.00754 0.00772011 0)
(1.00763 0.00819498 0)
(1.00862 0.0080674 0)
(0.999801 -0.000286004 0)
(1.00024 -0.000671386 0)
(0.999246 -0.000210416 0)
(0.999468 0.00168933 0)
(1.00007 0.00211309 0)
(1.00253 0.00183998 0)
(1.00176 0.00277797 0)
(1.00139 0.00446623 0)
(1.00109 0.00574286 0)
(1.00402 0.0054554 0)
(1.00519 0.00527438 0)
(1.00558 0.0053925 0)
(1.00435 0.00650331 0)
(1.0052 0.00702218 0)
(1.00642 0.0070799 0)
(1.00792 0.00670862 0)
(1.00775 0.00700195 0)
(1.00766 0.00739552 0)
(1.00759 0.00787263 0)
(1.00835 0.00785111 0)
(0.999818 -0.000296449 0)
(1.00023 -0.000532278 0)
(0.999441 -0.000289129 0)
(0.999586 0.00155052 0)
(0.999974 0.00221431 0)
(1.00241 0.00194351 0)
(1.00192 0.00258007 0)
(1.00162 0.00413357 0)
(1.00105 0.0056103 0)
(1.0037 0.00543653 0)
(1.00493 0.00524205 0)
(1.00559 0.00524184 0)
(1.00447 0.0062355 0)
(1.00513 0.00678073 0)
(1.00613 0.00697012 0)
(1.00769 0.00661636 0)
(1.00773 0.00679479 0)
(1.00776 0.00708469 0)
(1.00758 0.00754807 0)
(1.00817 0.00757931 0)
(0.999839 -0.000312393 0)
(1.00021 -0.000381157 0)
(0.999607 -0.000323084 0)
(0.999732 0.00139912 0)
(0.99991 0.00226411 0)
(1.00226 0.0020644 0)
(1.00203 0.00246136 0)
(1.00188 0.00378636 0)
(1.00107 0.00539337 0)
(1.00341 0.00539419 0)
(1.00464 0.00522109 0)
(1.00555 0.00510355 0)
(1.00459 0.00597301 0)
(1.00511 0.00651847 0)
(1.00588 0.00681567 0)
(1.00742 0.00651166 0)
(1.00766 0.00661326 0)
(1.00783 0.00678179 0)
(1.0076 0.00722771 0)
(1.00803 0.0072775 0)
(0.99986 -0.000320503 0)
(1.00018 -0.000258146 0)
(0.999749 -0.000303387 0)
(0.999894 0.00124735 0)
(0.999882 0.00226195 0)
(1.0021 0.00217756 0)
(1.00209 0.00242173 0)
(1.00213 0.00346521 0)
(1.00116 0.0051051 0)
(1.00317 0.00531185 0)
(1.00435 0.00520308 0)
(1.00547 0.00498998 0)
(1.0047 0.0057194 0)
(1.00513 0.00624156 0)
(1.00568 0.0066312 0)
(1.00716 0.00637711 0)
(1.00753 0.00644894 0)
(1.00786 0.0064998 0)
(1.00762 0.0069053 0)
(1.00794 0.00697434 0)
(0.999882 -0.000331491 0)
(1.00015 -0.000136696 0)
(0.999858 -0.000245585 0)
(1.00006 0.00110124 0)
(0.99989 0.00221529 0)
(1.00195 0.00226382 0)
(1.00209 0.00243794 0)
(1.00236 0.00320448 0)
(1.0013 0.00477846 0)
(1.00298 0.00517232 0)
(1.00405 0.00516849 0)
(1.00534 0.0048962 0)
(1.00478 0.0054865 0)
(1.00518 0.00594469 0)
(1.00553 0.00641617 0)
(1.00691 0.00621295 0)
(1.00736 0.0062746 0)
(1.00783 0.00624481 0)
(1.00763 0.00657626 0)
(1.00787 0.00666529 0)
(0.999903 -0.000333446 0)
(1.00013 -4.31819e-05 0)
(0.999937 -0.000158872 0)
(1.00022 0.000978798 0)
(0.99993 0.00213263 0)
(1.0018 0.00231961 0)
(1.00205 0.00247667 0)
(1.00254 0.00300998 0)
(1.00146 0.00444793 0)
(1.00286 0.00497926 0)
(1.00376 0.00510978 0)
(1.00518 0.0048139 0)
(1.00481 0.00528874 0)
(1.00523 0.00565091 0)
(1.00542 0.00617152 0)
(1.00667 0.00603972 0)
(1.00716 0.00609283 0)
(1.00775 0.00601495 0)
(1.00762 0.00626505 0)
(1.00782 0.00633828 0)
(0.999923 -0.00032915 0)
(1.0001 2.66527e-05 0)
(0.999988 -5.66084e-05 0)
(1.00036 0.000890272 0)
(0.999995 0.00202144 0)
(1.00168 0.00234342 0)
(1.00197 0.00252302 0)
(1.00266 0.0028738 0)
(1.00164 0.00413997 0)
(1.0028 0.00474771 0)
(1.0035 0.00501939 0)
(1.00499 0.00472446 0)
(1.00479 0.0051059 0)
(1.00528 0.00536567 0)
(1.00535 0.0058859 0)
(1.00646 0.00583275 0)
(1.00694 0.00590124 0)
(1.00762 0.00578694 0)
(1.00756 0.00598361 0)
(1.00777 0.00600131 0)
(0.99994 -0.000318683 0)
(1.00008 7.70066e-05 0)