/*--------------------------------*- C++ -*----------------------------------*\
| =========                 |                                                 |
| \\      /  F ield         | OpenFOAM: The Open Source CFD Toolbox           |
|  \\    /   O peration     | Version:  v1812                                 |
|   \\  /    A nd           | Web:      www.OpenFOAM.com                      |
|    \\/     M anipulation  |                                                 |
\*---------------------------------------------------------------------------*/
FoamFile
{
    version     2.0;
    format      ascii;
    class       volScalarField;
    location    "8.8";
    object      p;
}
// * * * * * * * * * * * * * * * * * * * * * * * * * * * * * * * * * * * * * //

dimensions      [0 2 -2 0 0 0 0];


internalField   nonuniform List<scalar> 
9600
(
1.96871e-11
-0.00241136
-0.000634788
-0.00415802
-0.00250595
-0.00286097
-0.00181447
0.000974567
0.00129143
-0.00159043
-0.00471621
-0.00800573
-0.00962578
-0.00840832
-0.00797274
-0.00626832
-0.00659263
-0.00455823
-0.00310216
0.000901931
2.34924e-06
-0.00241821
-0.000634745
-0.00415949
-0.0025111
-0.00285254
-0.00180335
0.000946342
0.00129758
-0.00176927
-0.00471331
-0.00801039
-0.00963113
-0.00838168
-0.00797282
-0.00627946
-0.00656952
-0.00457431
-0.00306967
0.000599948
4.49645e-06
-0.00242686
-0.000632442
-0.00416213
-0.00251535
-0.00284277
-0.00179625
0.000907211
0.00131386
-0.00189294
-0.00470827
-0.00799179
-0.00963572
-0.00833427
-0.00797247
-0.0063039
-0.00654435
-0.00460587
-0.00305642
0.000171396
5.34069e-06
-0.0024384
-0.000632922
-0.00416475
-0.00251912
-0.00283514
-0.00179307
0.00085792
0.0013113
-0.00202756
-0.00470946
-0.00794491
-0.00964527
-0.00828117
-0.00797607
-0.00634156
-0.0065184
-0.00464955
-0.00306708
-0.000242944
4.73056e-06
-0.0024538
-0.000637812
-0.00416626
-0.00252302
-0.00282893
-0.00178988
0.000793959
0.00128419
-0.00217174
-0.00471432
-0.00787895
-0.00965568
-0.00822754
-0.00797881
-0.0063867
-0.00649175
-0.00470335
-0.00309687
-0.00063878
2.31369e-06
-0.00247409
-0.000645068
-0.00416505
-0.00252724
-0.00282316
-0.00178683
0.000713607
0.00124278
-0.00232011
-0.00471816
-0.00779709
-0.00966065
-0.00817448
-0.00797528
-0.00643645
-0.0064665
-0.00476372
-0.00314378
-0.00102902
-2.34528e-06
-0.00249978
-0.000651849
-0.00415983
-0.00253189
-0.00281755
-0.00178552
0.000618213
0.00119584
-0.0024687
-0.00471944
-0.0077019
-0.00965732
-0.00812179
-0.00796382
-0.00648993
-0.00644456
-0.0048275
-0.00320998
-0.00141962
-9.49719e-06
-0.00253102
-0.000656305
-0.00414981
-0.00253703
-0.00281216
-0.00178738
0.000509988
0.00114849
-0.00261475
-0.00471909
-0.0075961
-0.00964491
-0.00806887
-0.00794569
-0.00654591
-0.00642666
-0.00489456
-0.00329758
-0.00180779
-1.91291e-05
-0.00256778
-0.000657623
-0.00413464
-0.00254275
-0.00280713
-0.00179354
0.000391123
0.00110418
-0.0027567
-0.00471856
-0.0074819
-0.00962344
-0.00801575
-0.00792279
-0.00660222
-0.00641445
-0.00496718
-0.00340442
-0.00218867
-3.09621e-05
-0.00260981
-0.000655858
-0.00411443
-0.0025492
-0.00280257
-0.00180469
0.00026362
0.00106455
-0.00289397
-0.00471906
-0.00736075
-0.00959375
-0.00796277
-0.00789639
-0.00665737
-0.00641044
-0.00504628
-0.00352654
-0.00256349
-4.451e-05
-0.0026566
-0.000651843
-0.00408982
-0.00255651
-0.00279849
-0.0018208
0.000129012
0.00102916
-0.00302633
-0.00472178
-0.00723386
-0.00955698
-0.00790996
-0.00786803
-0.00671098
-0.0064152
-0.00513201
-0.00366114
-0.00293602
-5.92066e-05
-0.00270726
-0.000646893
-0.00406187
-0.00256487
-0.00279474
-0.00184124
-1.17246e-05
0.000996012
-0.00315336
-0.00472826
-0.00710251
-0.00951417
-0.00785742
-0.00783981
-0.00676286
-0.00642761
-0.00522623
-0.0038069
-0.003307
-7.45573e-05
-0.00276068
-0.000642389
-0.00403181
-0.00257449
-0.00279102
-0.00186517
-0.000157921
0.000962335
-0.00327452
-0.00474007
-0.00696797
-0.00946672
-0.0078056
-0.00781326
-0.00681319
-0.00644693
-0.00533218
-0.00396189
-0.00367377
-9.0249e-05
-0.00281566
-0.000639459
-0.0040008
-0.00258551
-0.00278701
-0.00189189
-0.00030863
0.000925126
-0.00338949
-0.00475852
-0.00683165
-0.00941637
-0.00775474
-0.00778901
-0.00686305
-0.0064721
-0.00545373
-0.00412411
-0.00403207
-0.000106185
-0.00287117
-0.000638841
-0.00396971
-0.00259813
-0.00278243
-0.00192101
-0.000462358
0.000881527
-0.00349842
-0.00478463
-0.00669473
-0.0093647
-0.00770486
-0.00776683
-0.00691469
-0.0065001
-0.00559363
-0.0042949
-0.00437807
-0.000122452
-0.00292655
-0.00064095
-0.00393896
-0.00261255
-0.00277705
-0.00195265
-0.000617493
0.000829335
-0.00360158
-0.0048192
-0.00655801
-0.00931259
-0.00765616
-0.00774585
-0.00697145
-0.00652715
-0.00575157
-0.00447811
-0.00470828
-0.000139237
-0.0029815
-0.00064601
-0.00390857
-0.00262903
-0.00277071
-0.00198736
-0.000772693
0.000767232
-0.00369907
-0.00486289
-0.00642214
-0.00926027
-0.00760916
-0.00772437
-0.00703711
-0.00655111
-0.00592544
-0.00467823
-0.00501789
-0.000156767
-0.00303596
-0.000654168
-0.00387829
-0.00264785
-0.00276332
-0.00202592
-0.000926874
0.000694508
-0.00379082
-0.00491616
-0.00628742
-0.0092079
-0.00756509
-0.00769963
-0.00711553
-0.00657184
-0.00611179
-0.00490113
-0.00530281
-0.000175274
-0.00309002
-0.000665561
-0.00384781
-0.00266935
-0.00275481
-0.00206905
-0.0010792
0.000610668
-0.00387669
-0.00497935
-0.00615407
-0.00915513
-0.00752628
-0.0076683
-0.0072098
-0.00659136
-0.00630375
-0.00515251
-0.00556312
-0.00019498
-0.00314374
-0.000680379
-0.00381681
-0.00269391
-0.00274507
-0.00211734
-0.00122922
0.000515228
-0.00395637
-0.00505283
-0.00602278
-0.00910053
-0.00749606
-0.00762733
-0.00732093
-0.006614
-0.00649264
-0.00543644
-0.00580294
-0.000216094
-0.00319717
-0.000698889
-0.00378498
-0.0027219
-0.00273406
-0.00217126
-0.00137677
0.000407697
-0.00402962
-0.0051365
-0.00589489
-0.00904197
-0.00747763
-0.00757519
-0.0074482
-0.00664625
-0.00666957
-0.00575406
-0.00603073
-0.000238817
-0.00325035
-0.0007214
-0.00375203
-0.0027537
-0.00272174
-0.0022313
-0.00152184
0.000287781
-0.00409631
-0.00522969
-0.00577232
-0.00897755
-0.00747336
-0.00751176
-0.00758883
-0.00669659
-0.00682719
-0.00610112
-0.00625873
-0.000263351
-0.00330328
-0.000748243
-0.00371766
-0.00278976
-0.00270807
-0.00229782
-0.00166471
0.000155261
-0.00415654
-0.00533151
-0.00565712
-0.00890529
-0.00748558
-0.00743801
-0.00773763
-0.00677371
-0.0069607
-0.00646828
-0.006502
-0.000289872
-0.00335597
-0.000779817
-0.00368156
-0.00283055
-0.00269309
-0.00237108
-0.00180561
1.00407e-05
-0.00421093
-0.00544029
-0.00555144
-0.00882314
-0.00751618
-0.00735658
-0.00788809
-0.00688518
-0.00706834
-0.00684296
-0.00677477
-0.00031853
-0.00340838
-0.000816597
-0.00364345
-0.00287653
-0.00267685
-0.00245133
-0.00194356
-0.000147149
-0.00426037
-0.00555381
-0.00545792
-0.00873036
-0.00756547
-0.00727157
-0.00803331
-0.00703643
-0.00715406
-0.00721046
-0.00708671
-0.000349483
-0.00346039
-0.000859065
-0.00360311
-0.00292805
-0.00265954
-0.00253852
-0.00208204
-0.000315272
-0.0043065
-0.00566985
-0.00537838
-0.00862693
-0.00763283
-0.00718763
-0.00816656
-0.00723052
-0.00722721
-0.00755357
-0.00744101
-0.000382894
-0.00351192
-0.000907751
-0.00356031
-0.00298543
-0.00264149
-0.00263219
-0.00222161
-0.000492887
-0.00435142
-0.00578665
-0.00531356
-0.00851328
-0.00771741
-0.00710997
-0.00828144
-0.00746779
-0.00730072
-0.00785511
-0.00783262
-0.000418923
-0.00356284
-0.000963268
-0.00351471
-0.00304897
-0.00262307
-0.00273174
-0.00236346
-0.000677614
-0.00439702
-0.00590317
-0.00526416
-0.00839041
-0.00781766
-0.00704481
-0.00837227
-0.00774333
-0.00739088
-0.00810409
-0.00824876
-0.000457745
-0.00361299
-0.00102622
-0.0034661
-0.00311885
-0.00260517
-0.00283587
-0.00250941
-0.000867107
-0.00444448
-0.00601896
-0.00523109
-0.0082595
-0.00793168
-0.00699834
-0.00843394
-0.00804872
-0.00751592
-0.00829787
-0.0086695
-0.000499526
-0.00366218
-0.00109729
-0.00341433
-0.00319512
-0.00258899
-0.00294254
-0.00266174
-0.00105901
-0.00449423
-0.00613467
-0.0052144
-0.00812182
-0.00805831
-0.00697668
-0.00846243
-0.00837369
-0.00769124
-0.00844013
-0.00906724
-0.000544444
-0.00371015
-0.00117722
-0.00335928
-0.00327765
-0.00257575
-0.00304961
-0.00282247
-0.00125155
-0.00454634
-0.0062511
-0.00521341
-0.00797844
-0.00819611
-0.00698598
-0.00845712
-0.00870439
-0.0079259
-0.00854417
-0.00941295
-0.000592731
-0.00375662
-0.00126671
-0.00330101
-0.00336601
-0.00256686
-0.00315432
-0.00299341
-0.00144427
-0.00459952
-0.00637008
-0.00522877
-0.00782944
-0.00834116
-0.00703303
-0.00842159
-0.00902321
-0.00822245
-0.00863737
-0.00968348
-0.000644616
-0.00380123
-0.00136652
-0.00323966
-0.00345957
-0.00255932
-0.00325367
-0.0031758
-0.00163753
-0.00465137
-0.00649434
-0.00526245
-0.00767395
-0.00848876
-0.00712503
-0.00836341
-0.00931121
-0.00857438
-0.00875007
-0.00987232
-0.000700381
-0.00384358
-0.00147737
-0.00317556
-0.00355726
-0.0025659
-0.00334497
-0.00336975
-0.00183267
-0.00469962
-0.00662481
-0.00531703
-0.00751251
-0.00863454
-0.00726649
-0.00829181
-0.00955279
-0.00896859
-0.00890588
-0.00998876
-0.000760381
-0.00388314
-0.0015999
-0.00310922
-0.00365739
-0.00258562
-0.00342557
-0.00357424
-0.00203239
-0.00474183
-0.00676139
-0.00539674
-0.00734594
-0.00877222
-0.00745893
-0.00821898
-0.00973698
-0.0093861
-0.00912181
-0.0100592
-0.000824978
-0.00391938
-0.00173462
-0.00304196
-0.00375788
-0.00262111
-0.00349366
-0.00378762
-0.00224055
-0.00477582
-0.00690249
-0.00550706
-0.00718067
-0.00889153
-0.00770083
-0.00816311
-0.00985764
-0.00980286
-0.0094023
-0.0101199
-0.000894557
-0.00395185
-0.00188171
-0.00297521
-0.00385611
-0.00267518
-0.00354876
-0.00400661
-0.00246132
-0.00480133
-0.00704415
-0.00565198
-0.00701143
-0.00898092
-0.00798717
-0.0081449
-0.00991634
-0.0101949
-0.00973849
-0.0102053
-0.000969543
-0.00398002
-0.00204121
-0.00291077
-0.00394908
-0.00275059
-0.00359164
-0.00422601
-0.00269846
-0.00481968
-0.00718128
-0.00583433
-0.00685428
-0.00903122
-0.00831064
-0.0081817
-0.00991972
-0.010541
-0.0101161
-0.0103399
-0.00105039
-0.00400337
-0.00221288
-0.00285099
-0.00403357
-0.0028493
-0.00362425
-0.00444003
-0.00295544
-0.00483403
-0.00730684
-0.00605496
-0.00672111
-0.00903616
-0.00865668
-0.0082871
-0.00988266
-0.0108248
-0.0105178
-0.010534
-0.00113756
-0.00402156
-0.0023959
-0.00279877
-0.00410649
-0.00297243
-0.00364991
-0.0046423
-0.00323471
-0.00484989
-0.0074133
-0.00631092
-0.00662688
-0.00899421
-0.00900469
-0.00846878
-0.00983002
-0.0110356
-0.0109208
-0.0107823
-0.00123162
-0.0040344
-0.00258877
-0.00275742
-0.00416519
-0.00311991
-0.00367374
-0.00482634
-0.00353553
-0.00487496
-0.00749571
-0.00659554
-0.00658597
-0.00891198
-0.00933041
-0.00872282
-0.00979025
-0.0111702
-0.0113008
-0.011079
-0.00133303
-0.0040416
-0.00278962
-0.00273082
-0.00420754
-0.00329055
-0.00370268
-0.00498641
-0.00385426
-0.00491874
-0.0075518
-0.0068995
-0.00660966
-0.00879924
-0.00961168
-0.00903921
-0.00979089
-0.011235
-0.0116348
-0.0114119
-0.00144232
-0.00404304
-0.00299606
-0.00272313
-0.00423229
-0.00348174
-0.00374461
-0.00511838
-0.00418495
-0.00499037
-0.00758199
-0.00721135
-0.00670388
-0.00867008
-0.0098336
-0.00939689
-0.00985452
-0.0112511
-0.0119026
-0.0117585
-0.00156019
-0.0040389
-0.0032048
-0.00273851
-0.00423969
-0.00368812
-0.00380755
-0.00522233
-0.0045188
-0.00509712
-0.00759047
-0.00751744
-0.00686832
-0.00854067
-0.009989
-0.00976748
-0.00998994
-0.0112477
-0.012097
-0.0120953
-0.00168718
-0.00402954
-0.00341221
-0.00278093
-0.00423127
-0.00390201
-0.00389866
-0.00530072
-0.00484548
-0.0052433
-0.00758571
-0.0078054
-0.00709685
-0.008457
-0.0100808
-0.0101246
-0.0101942
-0.0112548
-0.0122262
-0.0123956
-0.00182359
-0.00401575
-0.00361434
-0.00285365
-0.00421015
-0.00411477
-0.00402262
-0.00536087
-0.00515531
-0.00542916
-0.00757939
-0.00806546
-0.00737609
-0.00842088
-0.0101163
-0.0104457
-0.0104503
-0.0112954
-0.0123076
-0.0126413
-0.00196943
-0.00399903
-0.00380656
-0.0029587
-0.00418247
-0.00431626
-0.00418001
-0.00541574
-0.00544129
-0.00564903
-0.00758388
-0.00829134
-0.0076873
-0.00844153
-0.0101122
-0.010716
-0.0107439
-0.0113851
-0.0123606
-0.0128314
-0.00212423
-0.00398172
-0.00398441
-0.00309635
-0.00415687
-0.0044982
-0.00436807
-0.00547633
-0.00570042
-0.00589363
-0.00760895
-0.00848186
-0.00801098
-0.00852189
-0.0100793
-0.0109316
-0.0110519
-0.0115269
-0.0124081
-0.0129732
-0.00228703
-0.00396708
-0.00414525
-0.00326396
-0.00414392
-0.00465836
-0.00457901
-0.00555089
-0.00593305
-0.00615277
-0.00766051
-0.00864066
-0.00833167
-0.00866046
-0.0100745
-0.011094
-0.0113515
-0.0117166
-0.0124692
-0.0130766
-0.00245665
-0.00395836
-0.00428783
-0.00345632
-0.00415427
-0.00479721
-0.00480213
-0.00564495
-0.00614209
-0.00641665
-0.00774101
-0.00877586
-0.00863829
-0.00884809
-0.0100923
-0.0112155
-0.0116249
-0.011941
-0.0125603
-0.013153
-0.00263173
-0.0039595
-0.00441267
-0.00366706
-0.00419401
-0.00491874
-0.00502873
-0.00576034
-0.00633298
-0.00667846
-0.00784949
-0.00889659
-0.00892292
-0.00907176
-0.0101448
-0.0113102
-0.0118635
-0.0121806
-0.0126891
-0.013222
-0.00281103
-0.0039727
-0.0045205
-0.00388802
-0.0042663
-0.00503284
-0.00525345
-0.00589639
-0.00651158
-0.00693258
-0.00798306
-0.00901199
-0.00918197
-0.00931595
-0.0102338
-0.0113939
-0.0120701
-0.0124197
-0.0128501
-0.0133039
-0.00299328
-0.00399934
-0.00461412
-0.00411207
-0.00437169
-0.0051483
-0.00547486
-0.00605145
-0.00668139
-0.00717479
-0.00813849
-0.00913049
-0.00941697
-0.00956645
-0.010354
-0.0114756
-0.0122506
-0.0126509
-0.0130294
-0.0134105
-0.00317707
-0.00404082
-0.00469688
-0.00433439
-0.00450719
-0.00526964
-0.00569244
-0.0062229
-0.0068447
-0.00740155
-0.00830982
-0.00925891
-0.00963325
-0.00981466
-0.0104991
-0.0115604
-0.0124075
-0.0128716
-0.0132177
-0.0135398
-0.00336097
-0.00409646
-0.00477464
-0.00455163
-0.00467004
-0.00540377
-0.00590853
-0.00640936
-0.00700573
-0.00760932
-0.0084885
-0.00940061
-0.009838
-0.0100567
-0.0106619
-0.0116524
-0.0125429
-0.0130786
-0.0134124
-0.013683
-0.00354548
-0.00416802
-0.0048472
-0.00475991
-0.00485435
-0.00555186
-0.00612467
-0.0066095
-0.00716764
-0.0077988
-0.00866802
-0.00955508
-0.0100391
-0.0102927
-0.0108378
-0.0117539
-0.0126591
-0.0132665
-0.0136123
-0.0138355
-0.00372835
-0.00425928
-0.00492151
-0.00495869
-0.0050568
-0.00571242
-0.00633966
-0.00682024
-0.0073315
-0.00797142
-0.00884151
-0.00971802
-0.0102415
-0.0105267
-0.0110231
-0.0118657
-0.0127612
-0.0134279
-0.0138097
-0.0139989
-0.00390298
-0.00434576
-0.00501324
-0.00517388
-0.00527923
-0.00588182
-0.00654933
-0.00703954
-0.00750255
-0.00812906
-0.00900191
-0.00988288
-0.0104442
-0.0107608
-0.0112162
-0.0119882
-0.0128576
-0.0135589
-0.0139919
-0.0141727
-0.00407984
-0.00445959
-0.00510945
-0.0053745
-0.00550441
-0.00605605
-0.00675064
-0.00726752
-0.00769266
-0.00828217
-0.00914818
-0.010044
-0.0106462
-0.0109967
-0.0114202
-0.0121216
-0.0129544
-0.0136671
-0.0141472
-0.0143482
-0.00425823
-0.00458036
-0.00521272
-0.00557135
-0.00573621
-0.00623747
-0.00694531
-0.00750344
-0.00790471
-0.00844108
-0.00928135
-0.0101914
-0.010841
-0.011232
-0.0116365
-0.0122667
-0.0130545
-0.0137653
-0.0142726
-0.0145094
-0.00443691
-0.00471426
-0.00532486
-0.00576309
-0.00597327
-0.00642807
-0.00713097
-0.00773656
-0.00813515
-0.00861315
-0.00940531
-0.0103214
-0.0110212
-0.0114603
-0.0118616
-0.0124288
-0.0131595
-0.0138596
-0.0143772
-0.0146449
-0.00461966
-0.00486135
-0.0054454
-0.00594676
-0.00621144
-0.00662898
-0.00730885
-0.00795771
-0.00837934
-0.00880734
-0.0095314
-0.0104352
-0.0111822
-0.0116758
-0.0120896
-0.01261
-0.0132733
-0.0139512
-0.0144718
-0.0147552
-0.00480501
-0.00502113
-0.00557344
-0.0061243
-0.00644926
-0.00684232
-0.00748439
-0.008162
-0.00862625
-0.00902429
-0.00966979
-0.0105354
-0.0113191
-0.0118726
-0.0123106
-0.0128036
-0.013404
-0.0140428
-0.0145612
-0.0148488
-0.00499074
-0.00518454
-0.00571674
-0.00630157
-0.0066849
-0.00706565
-0.00766121
-0.00834933
-0.0088618
-0.00925696
-0.00982968
-0.0106321
-0.0114318
-0.0120449
-0.0125172
-0.0129998
-0.0135529
-0.0141413
-0.014647
-0.0149339
-0.00517929
-0.00536279
-0.00587016
-0.00647553
-0.0069147
-0.00729597
-0.0078443
-0.00852364
-0.00907828
-0.00949407
-0.0100118
-0.0107388
-0.0115251
-0.0121867
-0.012704
-0.0131886
-0.0137103
-0.0142512
-0.0147326
-0.015017
-0.0053706
-0.00554421
-0.00603513
-0.00664831
-0.00713529
-0.00752966
-0.00803839
-0.00869268
-0.00927613
-0.00972412
-0.0102085
-0.0108619
-0.0116099
-0.0122985
-0.0128627
-0.0133629
-0.0138665
-0.0143687
-0.0148187
-0.0150977
-0.00556537
-0.00573573
-0.00620932
-0.00682282
-0.00734936
-0.00776445
-0.00824081
-0.00885773
-0.00945364
-0.00993667
-0.01041
-0.0110006
-0.0116987
-0.0123882
-0.0129872
-0.0135123
-0.0140117
-0.0144883
-0.0149064
-0.0151738
-0.00576231
-0.00592731
-0.00639426
-0.00700371
-0.00755482
-0.00799439
-0.00845119
-0.00902912
-0.00961773
-0.0101264
-0.0106021
-0.0111466
-0.0117937
-0.0124677
-0.0130832
-0.0136296
-0.0141344
-0.0145979
-0.0149909
-0.0152398
-0.00596379
-0.00612384
-0.00658513
-0.00718791
-0.0077541
-0.00821648
-0.00866303
-0.00920665
-0.00977909
-0.0103004
-0.0107768
-0.0112866
-0.0118822
-0.0125327
-0.0131567
-0.0137192
-0.0142348
-0.0146938
-0.0150711
-0.0153031
-0.00617011
-0.0063304
-0.00678093
-0.00737548
-0.00794894
-0.00843148
-0.00887198
-0.00938212
-0.00993233
-0.0104604
-0.0109417
-0.0114266
-0.0119658
-0.0125708
-0.0131901
-0.0137669
-0.014301
-0.0147692
-0.0151428
-0.0153682
-0.00637709
-0.00653064
-0.00698248
-0.00757264
-0.00814322
-0.00863961
-0.00908353
-0.00956345
-0.0100792
-0.0105974
-0.0110819
-0.0115595
-0.0120561
-0.0125999
-0.013185
-0.0137526
-0.0142943
-0.014785
-0.0151761
-0.0154126
-0.00658844
-0.00673797
-0.00718506
-0.00777083
-0.00833584
-0.00883913
-0.00928981
-0.00975102
-0.010233
-0.0107252
-0.0111922
-0.0116573
-0.0121298
-0.0126238
-0.013158
-0.0136917
-0.0142109
-0.0146976
-0.0151012
-0.0153612
-0.00680454
-0.00695251
-0.0073901
-0.00796749
-0.00852457
-0.00902907
-0.009483
-0.00993405
-0.0103948
-0.0108625
-0.0112965
-0.0117223
-0.0121634
-0.0126229
-0.0131193
-0.0136231
-0.0141136
-0.0145625
-0.0149208
-0.0151375
-0.00701975
-0.00716663
-0.00760175
-0.00816959
-0.00871365
-0.00921127
-0.00966572
-0.0101173
-0.0105729
-0.0110079
-0.0113843
-0.0117246
-0.0120635
-0.0124343
-0.0128734
-0.0133634
-0.0138822
-0.01442
-0.0149264
-0.015308
-0.00723275
-0.00738645
-0.00782206
-0.00837828
-0.00890945
-0.00939503
-0.00983044
-0.0102847
-0.010801
-0.0113134
-0.0117023
-0.011962
-0.0121685
-0.0123922
-0.0126725
-0.0129347
-0.0130925
-0.0131453
-0.0131582
-0.0132251
-0.00745319
-0.00758201
-0.00800123
-0.00854244
-0.00908439
-0.00959506
-0.0100079
-0.010359
-0.0107268
-0.0111153
-0.0114695
-0.0118005
-0.0121306
-0.0124229
-0.0126883
-0.0129516
-0.0131986
-0.0134241
-0.013642
-0.0138859
-0.00774466
-0.0079048
-0.00822694
-0.00865227
-0.00909512
-0.00952526
-0.00992753
-0.0103539
-0.0108023
-0.0112601
-0.0117003
-0.0120707
-0.0123809
-0.0126236
-0.0127756
-0.0128792
-0.01292
-0.0129035
-0.0128968
-0.0129949
-0.00786384
-0.00794218
-0.00828338
-0.00873449
-0.00916424
-0.00958464
-0.00999237
-0.0104187
-0.0108695
-0.011295
-0.0116581
-0.0119586
-0.0122266
-0.012532
-0.0128888
-0.0133257
-0.0138531
-0.0144275
-0.0149915
-0.0154539
-0.00810559
-0.00822739
-0.00848719
-0.00882712
-0.00918843
-0.00958077
-0.0099879
-0.0104365
-0.0109193
-0.0113854
-0.0117893
-0.0121325
-0.0124154
-0.0126386
-0.0127976
-0.0128692
-0.0128856
-0.0128809
-0.0129211
-0.0131057
-0.00823517
-0.00832829
-0.00855745
-0.00885762
-0.00918926
-0.00956512
-0.00996726
-0.0104385
-0.0109523
-0.0114494
-0.0118609
-0.0121687
-0.0124295
-0.0126689
-0.0129025
-0.0131328
-0.0133539
-0.0135702
-0.0137969
-0.0140855
0.00676325
-0.00135222
-0.0102445
-0.0166231
-0.0187199
-0.0185108
-0.0184436
-0.0187319
-0.018751
-0.0182845
-0.0177334
-0.0174815
-0.0175221
-0.0177707
-0.0181314
-0.0183717
-0.0184321
-0.0185213
-0.0187351
-0.0189818
-0.0191971
-0.0193739
-0.0195408
-0.0198013
-0.0201901
-0.0205954
-0.0209723
-0.0214621
-0.0221211
-0.0227746
-0.0232209
-0.0234288
-0.0235397
-0.0237343
-0.024043
-0.0244042
-0.0247535
-0.0250737
-0.0254322
-0.0258899
-0.0264
-0.0269125
-0.0274162
-0.027878
-0.0282442
-0.0285491
-0.0288814
-0.0292662
-0.0296903
-0.0301342
-0.0305862
-0.0310429
-0.0314958
-0.0319513
-0.0324244
-0.0329082
-0.0334237
-0.0339353
-0.0344564
-0.0349974
-0.0355321
-0.036008
-0.036486
-0.0370241
-0.0375745
-0.03812
-0.0386921
-0.0392808
-0.039857
-0.0404465
-0.0410523
-0.0416681
-0.0422906
-0.0428975
-0.0435396
-0.0442281
-0.0449531
-0.0456499
-0.0463566
-0.0470528
-0.0477528
-0.0484962
-0.0492512
-0.0500313
-0.0508151
-0.0516295
-0.0524214
-0.0532549
-0.0540882
-0.0549754
-0.0558189
-0.0567068
-0.057619
-0.0585201
-0.0594731
-0.0603589
-0.0613104
-0.0621597
-0.0631877
-0.0642537
0.00574149
-0.00152428
-0.0101669
-0.0164611
-0.0186177
-0.0184634
-0.018418
-0.0187174
-0.0187422
-0.0182782
-0.0177276
-0.017476
-0.0175168
-0.0177656
-0.0181273
-0.0183684
-0.0184289
-0.0185179
-0.0187318
-0.0189788
-0.0191943
-0.0193712
-0.0195382
-0.0197987
-0.0201876
-0.0205932
-0.0209702
-0.0214599
-0.0221192
-0.022773
-0.0232196
-0.0234276
-0.0235383
-0.023733
-0.0240418
-0.0244032
-0.0247526
-0.0250729
-0.0254313
-0.0258891
-0.0263993
-0.0269118
-0.0274156
-0.0278774
-0.0282437
-0.0285486
-0.0288809
-0.0292657
-0.0296899
-0.0301338
-0.0305858
-0.0310426
-0.0314954
-0.031951
-0.032424
-0.0329079
-0.0334234
-0.033935
-0.0344561
-0.0349971
-0.0355318
-0.0360077
-0.0364858
-0.0370239
-0.0375742
-0.0381198
-0.0386919
-0.0392806
-0.0398567
-0.0404463
-0.0410521
-0.0416679
-0.0422904
-0.0428973
-0.0435394
-0.044228
-0.044953
-0.0456498
-0.0463564
-0.0470527
-0.0477526
-0.0484961
-0.0492511
-0.0500312
-0.050815
-0.0516294
-0.0524213
-0.0532548
-0.0540881
-0.0549753
-0.0558188
-0.0567067
-0.0576189
-0.05852
-0.059473
-0.0603588
-0.0613103
-0.0621596
-0.0631876
-0.0642538
0.00486402
-0.00170147
-0.0100325
-0.0161878
-0.0184549
-0.0184044
-0.0183852
-0.0186919
-0.0187235
-0.0182652
-0.0177191
-0.0174705
-0.0175121
-0.0177608
-0.0181227
-0.0183648
-0.018426
-0.0185154
-0.0187294
-0.0189762
-0.0191918
-0.0193689
-0.0195359
-0.0197964
-0.0201854
-0.0205911
-0.0209681
-0.0214579
-0.0221176
-0.0227719
-0.0232186
-0.0234265
-0.023537
-0.0237317
-0.0240406
-0.0244022
-0.0247517
-0.025072
-0.0254304
-0.0258883
-0.0263986
-0.0269112
-0.0274151
-0.027877
-0.0282433
-0.0285482
-0.0288804
-0.0292652
-0.0296895
-0.0301335
-0.0305854
-0.0310422
-0.0314951
-0.0319507
-0.0324238
-0.0329076
-0.0334231
-0.0339347
-0.0344559
-0.0349969
-0.0355316
-0.0360075
-0.0364855
-0.0370236
-0.037574
-0.0381196
-0.0386917
-0.0392804
-0.0398566
-0.0404461
-0.0410519
-0.0416677
-0.0422902
-0.0428971
-0.0435392
-0.0442278
-0.0449528
-0.0456496
-0.0463563
-0.0470526
-0.0477525
-0.048496
-0.0492509
-0.0500311
-0.0508149
-0.0516293
-0.0524212
-0.0532547
-0.054088
-0.0549752
-0.0558187
-0.0567066
-0.0576189
-0.0585199
-0.0594729
-0.0603587
-0.0613103
-0.0621595
-0.0631875
-0.064254
0.00404815
-0.00189586
-0.00987311
-0.0158545
-0.0182362
-0.0183184
-0.0183312
-0.0186442
-0.0186854
-0.0182392
-0.0177046
-0.0174636
-0.0175078
-0.0177553
-0.0181157
-0.0183585
-0.0184223
-0.0185137
-0.0187278
-0.0189736
-0.0191888
-0.0193666
-0.0195342
-0.0197946
-0.0201832
-0.0205885
-0.0209655
-0.0214558
-0.0221161
-0.0227708
-0.0232176
-0.0234253
-0.0235356
-0.0237302
-0.0240393
-0.024401
-0.0247507
-0.025071
-0.0254294
-0.0258873
-0.0263978
-0.0269106
-0.0274146
-0.0278767
-0.0282429
-0.0285477
-0.0288799
-0.0292648
-0.029689
-0.0301331
-0.0305851
-0.0310419
-0.0314947
-0.0319503
-0.0324234
-0.0329073
-0.0334228
-0.0339344
-0.0344556
-0.0349967
-0.0355314
-0.0360073
-0.0364853
-0.0370234
-0.0375738
-0.0381194
-0.0386915
-0.0392802
-0.0398564
-0.0404459
-0.0410518
-0.0416676
-0.0422901
-0.042897
-0.043539
-0.0442276
-0.0449527
-0.0456495
-0.0463562
-0.0470525
-0.0477524
-0.0484958
-0.0492508
-0.050031
-0.0508148
-0.0516292
-0.0524211
-0.0532546
-0.0540879
-0.0549751
-0.0558186
-0.0567065
-0.0576188
-0.0585199
-0.0594728
-0.0603586
-0.0613102
-0.0621595
-0.0631874
-0.0642543
0.00324668
-0.00211733
-0.00970762
-0.0155004
-0.0179918
-0.0182175
-0.0182636
-0.0185773
-0.0186272
-0.0181985
-0.0176824
-0.0174544
-0.0175035
-0.0177489
-0.0181053
-0.0183481
-0.0184165
-0.0185124
-0.0187272
-0.0189711
-0.0191851
-0.019364
-0.0195334
-0.019794
-0.0201812
-0.0205854
-0.0209625
-0.0214536
-0.0221145
-0.0227694
-0.0232161
-0.0234236
-0.0235339
-0.0237286
-0.0240377
-0.0243995
-0.0247493
-0.0250698
-0.0254281
-0.025886
-0.0263966
-0.0269098
-0.027414
-0.0278762
-0.0282424
-0.0285471
-0.0288793
-0.0292642
-0.0296885
-0.0301326
-0.0305847
-0.0310415
-0.0314944
-0.03195
-0.0324231
-0.0329069
-0.0334225
-0.0339341
-0.0344553
-0.0349964
-0.0355312
-0.0360071
-0.036485
-0.0370232
-0.0375736
-0.0381191
-0.0386913
-0.03928
-0.0398562
-0.0404457
-0.0410516
-0.0416674
-0.0422899
-0.0428968
-0.0435388
-0.0442274
-0.0449525
-0.0456494
-0.046356
-0.0470523
-0.0477522
-0.0484957
-0.0492507
-0.0500309
-0.0508146
-0.0516291
-0.052421
-0.0532545
-0.0540878
-0.054975
-0.0558185
-0.0567064
-0.0576187
-0.0585198
-0.0594728
-0.0603586
-0.0613101
-0.0621594
-0.0631872
-0.0642548
0.00245113
-0.00236061
-0.00954531
-0.0151434
-0.0177347
-0.0181104
-0.0181935
-0.0185023
-0.018557
-0.0181474
-0.0176542
-0.0174432
-0.0174992
-0.0177416
-0.0180916
-0.0183335
-0.0184081
-0.0185107
-0.0187271
-0.0189686
-0.0191807
-0.019361
-0.0195335
-0.0197949
-0.0201799
-0.020582
-0.0209593
-0.0214516
-0.0221129
-0.0227672
-0.0232134
-0.0234211
-0.0235318
-0.0237269
-0.0240359
-0.0243974
-0.0247474
-0.0250682
-0.0254265
-0.0258843
-0.026395
-0.0269086
-0.0274132
-0.0278755
-0.0282417
-0.0285463
-0.0288785
-0.0292635
-0.0296879
-0.0301321
-0.0305842
-0.0310411
-0.0314939
-0.0319495
-0.0324227
-0.0329065
-0.0334221
-0.0339338
-0.034455
-0.0349961
-0.035531
-0.0360069
-0.0364847
-0.0370229
-0.0375734
-0.0381189
-0.038691
-0.0392798
-0.039856
-0.0404455
-0.0410514
-0.0416672
-0.0422897
-0.0428966
-0.0435386
-0.0442272
-0.0449524
-0.0456492
-0.0463559
-0.0470522
-0.0477521
-0.0484955
-0.0492506
-0.0500308
-0.0508145
-0.051629
-0.0524209
-0.0532544
-0.0540877
-0.0549749
-0.0558185
-0.0567063
-0.0576186
-0.0585197
-0.0594727
-0.0603585
-0.0613101
-0.0621593
-0.063187
-0.0642555
0.0016698
-0.00261832
-0.00939547
-0.0147928
-0.0174678
-0.0179974
-0.0181235
-0.0184239
-0.0184796
-0.0180892
-0.0176217
-0.0174303
-0.0174945
-0.0177336
-0.0180758
-0.018316
-0.0183976
-0.0185082
-0.0187269
-0.0189659
-0.0191756
-0.0193577
-0.0195343
-0.0197969
-0.0201791
-0.0205788
-0.0209567
-0.0214507
-0.0221118
-0.0227645
-0.0232094
-0.023417
-0.0235289
-0.0237248
-0.0240337
-0.0243949
-0.0247452
-0.0250665
-0.0254247
-0.0258819
-0.0263928
-0.026907
-0.027412
-0.0278743
-0.0282406
-0.0285453
-0.0288776
-0.0292626
-0.0296871
-0.0301315
-0.0305836
-0.0310405
-0.0314933
-0.0319489
-0.0324222
-0.032906
-0.0334217
-0.0339334
-0.0344546
-0.0349958
-0.0355307
-0.0360066
-0.0364844
-0.0370226
-0.0375731
-0.0381186
-0.0386908
-0.0392796
-0.0398557
-0.0404453
-0.0410511
-0.041667
-0.0422895
-0.0428964
-0.0435383
-0.044227
-0.0449522
-0.0456491
-0.0463557
-0.047052
-0.0477519
-0.0484954
-0.0492504
-0.0500306
-0.0508144
-0.0516289
-0.0524207
-0.0532543
-0.0540876
-0.0549748
-0.0558184
-0.0567061
-0.0576186
-0.0585196
-0.0594726
-0.0603584
-0.06131
-0.0621593
-0.0631868
-0.0642562
0.000914745
-0.00289053
-0.00926914
-0.0144552
-0.0171894
-0.0178738
-0.0180517
-0.0183435
-0.018397
-0.0180257
-0.0175856
-0.0174157
-0.017489
-0.0177251
-0.0180587
-0.0182968
-0.0183857
-0.0185047
-0.0187261
-0.0189626
-0.0191702
-0.0193544
-0.0195356
-0.0197997
-0.0201786
-0.0205757
-0.0209551
-0.0214515
-0.0221122
-0.022762
-0.0232042
-0.0234114
-0.0235246
-0.0237218
-0.0240308
-0.0243918
-0.0247427
-0.0250649
-0.0254229
-0.0258792
-0.0263899
-0.0269048
-0.0274104
-0.0278726
-0.028239
-0.028544
-0.0288764
-0.0292615
-0.0296861
-0.0301307
-0.0305829
-0.0310397
-0.0314926
-0.0319482
-0.0324215
-0.0329053
-0.033421
-0.0339328
-0.0344542
-0.0349954
-0.0355303
-0.0360062
-0.036484
-0.0370222
-0.0375728
-0.0381184
-0.0386906
-0.0392794
-0.0398555
-0.040445
-0.0410509
-0.0416667
-0.0422893
-0.0428961
-0.0435381
-0.0442268
-0.0449521
-0.0456489
-0.0463555
-0.0470518
-0.0477516
-0.0484952
-0.0492502
-0.0500304
-0.0508142
-0.0516287
-0.0524206
-0.0532541
-0.0540874
-0.0549747
-0.0558182
-0.056706
-0.0576185
-0.0585195
-0.0594726
-0.0603583
-0.0613099
-0.0621593
-0.0631866
-0.0642571
0.000189552
-0.00318224
-0.00917231
-0.0141301
-0.0168944
-0.0177345
-0.0179772
-0.0182624
-0.0183108
-0.0179576
-0.0175463
-0.0173994
-0.0174828
-0.0177159
-0.018041
-0.0182768
-0.0183729
-0.0185006
-0.0187247
-0.0189589
-0.0191646
-0.0193512
-0.0195373
-0.0198029
-0.0201782
-0.0205727
-0.0209544
-0.0214543
-0.0221147
-0.0227606
-0.023199
-0.0234048
-0.023519
-0.0237175
-0.0240267
-0.0243876
-0.0247397
-0.0250636
-0.0254215
-0.0258764
-0.0263867
-0.0269024
-0.0274083
-0.0278702
-0.0282367
-0.0285421
-0.0288749
-0.0292601
-0.0296849
-0.0301297
-0.030582
-0.0310388
-0.0314916
-0.0319474
-0.0324207
-0.0329045
-0.0334202
-0.0339321
-0.0344536
-0.0349949
-0.0355299
-0.0360058
-0.0364836
-0.0370218
-0.0375724
-0.0381181
-0.0386903
-0.0392791
-0.0398553
-0.0404448
-0.0410507
-0.0416665
-0.0422891
-0.0428959
-0.0435377
-0.0442265
-0.0449519
-0.0456487
-0.0463553
-0.0470516
-0.0477514
-0.0484949
-0.04925
-0.0500302
-0.050814
-0.0516286
-0.0524204
-0.053254
-0.0540873
-0.0549746
-0.0558181
-0.0567059
-0.0576184
-0.0585194
-0.0594726
-0.0603582
-0.0613099
-0.0621593
-0.0631862
-0.0642581
-0.000509152
-0.00349157
-0.00909971
-0.0138143
-0.0165821
-0.0175784
-0.0179012
-0.018183
-0.0182225
-0.0178854
-0.0175036
-0.017381
-0.0174756
-0.0177063
-0.0180228
-0.018256
-0.0183593
-0.0184958
-0.0187228
-0.0189549
-0.0191588
-0.0193481
-0.0195393
-0.0198064
-0.0201782
-0.0205701
-0.0209546
-0.0214587
-0.0221192
-0.0227609
-0.0231945
-0.0233979
-0.0235125
-0.0237121
-0.0240213
-0.0243823
-0.0247361
-0.0250624
-0.0254206
-0.025874
-0.0263837
-0.0269
-0.027406
-0.0278673
-0.0282337
-0.0285397
-0.0288729
-0.0292584
-0.0296835
-0.0301285
-0.030581
-0.0310377
-0.0314905