/*--------------------------------*- C++ -*----------------------------------*\
| =========                 |                                                 |
| \\      /  F ield         | OpenFOAM: The Open Source CFD Toolbox           |
|  \\    /   O peration     | Version:  v1812                                 |
|   \\  /    A nd           | Web:      www.OpenFOAM.com                      |
|    \\/     M anipulation  |                                                 |
\*---------------------------------------------------------------------------*/
FoamFile
{
    version     2.0;
    format      ascii;
    class       surfaceScalarField;
    location    "8.8";
    object      phi;
}
// * * * * * * * * * * * * * * * * * * * * * * * * * * * * * * * * * * * * * //

dimensions      [0 3 -1 0 0 0 0];
oriented        oriented;


internalField   nonuniform List<scalar> 
19000
(
1.18267e-06
9.57157e-07
1.13407e-06
-2.04281e-06
1.16703e-06
2.25443e-06
1.14241e-06
-8.2327e-07
1.12672e-06
-6.82865e-07
1.17027e-06
-2.68496e-07
1.19366e-06
7.41598e-07
1.12298e-06
-6.33148e-07
1.18652e-06
2.23624e-06
1.09969e-06
5.60424e-08
1.12861e-06
7.50297e-07
1.08722e-06
3.54691e-07
1.09151e-06
-3.37513e-07
1.11112e-06
-1.45318e-07
1.10805e-06
-7.95422e-07
1.13134e-06
-4.04291e-07
1.15156e-06
-5.47002e-07
1.15853e-06
-2.43141e-07
1.17358e-06
-2.26969e-07
-9.80476e-08
1.14544e-06
1.23836e-06
9.43063e-07
1.19114e-06
-1.9956e-06
1.21643e-06
2.22914e-06
1.1945e-06
-8.01337e-07
1.17764e-06
-6.66006e-07
1.22668e-06
-3.17543e-07
1.24727e-06
7.21012e-07
1.17829e-06
-5.64172e-07
1.2315e-06
2.18304e-06
1.15908e-06
1.28462e-07
1.16459e-06
7.44789e-07
1.15954e-06
3.59739e-07
1.14741e-06
-3.2538e-07
1.18652e-06
-1.84431e-07
1.17359e-06
-7.82498e-07
1.20464e-06
-4.35331e-07
1.20494e-06
-5.47311e-07
1.23292e-06
-2.71118e-07
1.21939e-06
-2.13439e-07
-1.09155e-07
1.2305e-06
1.29675e-06
9.29092e-07
1.24959e-06
-1.94843e-06
1.26999e-06
2.20875e-06
1.25096e-06
-7.82308e-07
1.23418e-06
-6.49232e-07
1.28127e-06
-3.64629e-07
1.30419e-06
6.98088e-07
1.23792e-06
-4.97898e-07
1.27926e-06
2.1417e-06
1.2261e-06
1.81625e-07
1.21165e-06
7.59234e-07
1.23192e-06
3.39472e-07
1.21316e-06
-3.06619e-07
1.2482e-06
-2.19472e-07
1.23477e-06
-7.69065e-07
1.25683e-06
-4.57393e-07
1.25844e-06
-5.48928e-07
1.27924e-06
-2.91914e-07
1.27483e-06
-2.09025e-07
-1.09937e-07
1.27561e-06
1.35749e-06
9.15707e-07
1.31182e-06
-1.90276e-06
1.32734e-06
2.19322e-06
1.31273e-06
-7.67698e-07
1.29501e-06
-6.31506e-07
1.33711e-06
-4.06727e-07
1.36378e-06
6.7141e-07
1.30349e-06
-4.37601e-07
1.3318e-06
2.11339e-06
1.29914e-06
2.14279e-07
1.27588e-06
7.82501e-07
1.30272e-06
3.12631e-07
1.28746e-06
-2.91365e-07
1.3096e-06
-2.41606e-07
1.29985e-06
-7.59314e-07
1.31224e-06
-4.69784e-07
1.31576e-06
-5.52453e-07
1.3338e-06
-3.09946e-07
1.33273e-06
-2.07956e-07
-1.10093e-07
1.33288e-06
1.42046e-06
9.03602e-07
1.37762e-06
-1.85992e-06
1.39009e-06
2.18074e-06
1.37924e-06
-7.56842e-07
1.36082e-06
-6.13092e-07
1.3958e-06
-4.41707e-07
1.42633e-06
6.40878e-07
1.37396e-06
-3.85227e-07
1.3919e-06
2.09545e-06
1.37522e-06
2.30961e-07
1.35502e-06
8.02698e-07
1.3769e-06
2.90753e-07
1.36753e-06
-2.81998e-07
1.37904e-06
-2.53115e-07
1.36891e-06
-7.49186e-07
1.37723e-06
-4.78104e-07
1.37809e-06
-5.53307e-07
1.39649e-06
-3.28353e-07
1.39811e-06
-2.09575e-07
-1.10552e-07
1.39857e-06
1.48567e-06
8.93605e-07
1.44664e-06
-1.82089e-06
1.4591e-06
2.16828e-06
1.44973e-06
-7.47469e-07
1.43172e-06
-5.95079e-07
1.45897e-06
-4.68959e-07
1.49149e-06
6.08358e-07
1.44749e-06
-3.41232e-07
1.46017e-06
2.08277e-06
1.45354e-06
2.37586e-07
1.44183e-06
8.14407e-07
1.4562e-06
2.76391e-07
1.44998e-06
-2.75782e-07
1.45512e-06
-2.58259e-07
1.44137e-06
-7.3543e-07
1.44743e-06
-4.84165e-07
1.4452e-06
-5.51077e-07
1.46197e-06
-3.45119e-07
1.46727e-06
-2.14884e-07
-1.1255e-07
1.46927e-06
1.55339e-06
8.86431e-07
1.51872e-06
-1.78622e-06
1.53438e-06
2.15262e-06
1.52395e-06
-7.3704e-07
1.50732e-06
-5.78445e-07
1.52754e-06
-4.89178e-07
1.5588e-06
5.77098e-07
1.52265e-06
-3.05086e-07
1.53552e-06
2.06991e-06
1.53402e-06
2.39088e-07
1.53091e-06
8.17517e-07
1.53952e-06
2.6778e-07
1.53408e-06
-2.70349e-07
1.53526e-06
-2.5943e-07
1.51771e-06
-7.17883e-07
1.52072e-06
-4.87177e-07
1.51607e-06
-5.46427e-07
1.52964e-06
-3.58688e-07
1.53703e-06
-2.22276e-07
-1.1707e-07
1.54155e-06
1.62416e-06
8.82397e-07
1.59411e-06
-1.75617e-06
1.61534e-06
2.13139e-06
1.60195e-06
-7.23652e-07
1.58711e-06
-5.63608e-07
1.60156e-06
-5.03624e-07
1.6281e-06
5.50558e-07
1.59882e-06
-2.75805e-07
1.61607e-06
2.05265e-06
1.61632e-06
2.38839e-07
1.62054e-06
8.13296e-07
1.62552e-06
2.62797e-07
1.62017e-06
-2.64996e-07
1.61848e-06
-2.57736e-07
1.59822e-06
-6.97625e-07
1.59761e-06
-4.86568e-07
1.59065e-06
-5.39462e-07
1.6005e-06
-3.68538e-07
1.60793e-06
-2.29714e-07
-1.23456e-07
1.61432e-06
1.69874e-06
8.8123e-07
1.67328e-06
-1.7307e-06
1.7011e-06
2.10357e-06
1.68374e-06
-7.06286e-07
1.67067e-06
-5.50542e-07
1.68049e-06
-5.13438e-07
1.69971e-06
5.31331e-07
1.67615e-06
-2.52246e-07
1.70026e-06
2.02855e-06
1.7004e-06
2.38693e-07
1.71121e-06
8.02494e-07
1.71371e-06
2.60292e-07
1.70855e-06
-2.5983e-07
1.70465e-06
-2.53837e-07
1.68277e-06
-6.75751e-07
1.67871e-06
-4.82505e-07
1.66944e-06
-5.30197e-07
1.67535e-06
-3.74439e-07
1.68147e-06
-2.35835e-07
-1.30481e-07
1.68849e-06
1.77784e-06
8.8211e-07
1.75665e-06
-1.70951e-06
1.79074e-06
2.06948e-06
1.76917e-06
-6.84717e-07
1.75764e-06
-5.39017e-07
1.7636e-06
-5.19393e-07
1.77456e-06
5.20365e-07
1.75562e-06
-2.33304e-07
1.78759e-06
1.99657e-06
1.78692e-06
2.39366e-07
1.8039e-06
7.85512e-07
1.80407e-06
2.60123e-07
1.79916e-06
-2.5492e-07
1.79347e-06
-2.48142e-07
1.7709e-06
-6.53182e-07
1.76401e-06
-4.75618e-07
1.75265e-06
-5.18838e-07
1.75464e-06
-3.76431e-07
1.75856e-06
-2.39749e-07
-1.37134e-07
1.76521e-06
1.86196e-06
8.83894e-07
1.84425e-06
-1.6918e-06
1.88335e-06
2.03038e-06
1.85804e-06
-6.59404e-07
1.84768e-06
-5.28654e-07
1.85028e-06
-5.21992e-07
1.85405e-06
5.16592e-07
1.8388e-06
-2.18057e-07
1.87864e-06
1.95674e-06
1.8769e-06
2.41105e-07
1.89926e-06
7.63147e-07
1.89666e-06
2.62725e-07
1.89179e-06
-2.50044e-07
1.8845e-06
-2.40861e-07
1.86199e-06
-6.30663e-07
1.85314e-06
-4.66768e-07
1.84005e-06
-5.05753e-07
1.83855e-06
-3.74933e-07
1.83961e-06
-2.40808e-07
-1.42675e-07
1.84515e-06
1.9513e-06
8.85438e-07
1.93579e-06
-1.67629e-06
1.9783e-06
1.98787e-06
1.95026e-06
-6.31366e-07
1.94049e-06
-5.18887e-07
1.9401e-06
-5.21597e-07
1.93948e-06
5.17209e-07
1.92715e-06
-2.05728e-07
1.9741e-06
1.90979e-06
1.97093e-06
2.4427e-07
1.9972e-06
7.36879e-07
1.99145e-06
2.68473e-07
1.98629e-06
-2.44886e-07
1.97755e-06
-2.32115e-07
1.95558e-06
-6.08695e-07
1.94563e-06
-4.56822e-07
1.93127e-06
-4.9139e-07
1.92708e-06
-3.7074e-07
1.92493e-06
-2.38661e-07
-1.46532e-07
1.92879e-06
2.04577e-06
8.85855e-07
2.03084e-06
-1.66136e-06
2.07532e-06
1.9434e-06
2.04593e-06
-6.01977e-07
2.03608e-06
-5.09035e-07
2.03288e-06
-5.18402e-07
2.03144e-06
5.18646e-07
2.0212e-06
-1.95483e-07
2.0739e-06
1.85709e-06
2.06873e-06
2.49442e-07
2.09714e-06
7.08469e-07
2.08848e-06
2.77128e-07
2.08296e-06
-2.39363e-07
2.07289e-06
-2.22049e-07
2.0517e-06
-5.87502e-07
2.04131e-06
-4.4643e-07
2.02604e-06
-4.76123e-07
2.02023e-06
-3.64927e-07
2.01495e-06
-2.33378e-07
-1.4835e-07
2.01676e-06
2.1452e-06
8.84652e-07
2.12921e-06
-1.64536e-06
2.17468e-06
1.89793e-06
2.14534e-06
-5.72636e-07
2.13484e-06
-4.98544e-07
2.12881e-06
-5.12368e-07
2.12959e-06
5.17862e-07
2.1204e-06
-1.86291e-07
2.17722e-06
1.80027e-06
2.16951e-06
2.57156e-07
2.19873e-06
6.79251e-07
2.18808e-06
2.87776e-07
2.18251e-06
-2.33795e-07
2.17137e-06
-2.10906e-07
2.15091e-06
-5.67043e-07
2.14046e-06
-4.3598e-07
2.12439e-06
-4.6005e-07
2.11806e-06
-3.58598e-07
2.11019e-06
-2.25507e-07
-1.4807e-07
2.10991e-06
2.24945e-06
8.81694e-07
2.23111e-06
-1.62703e-06
2.27713e-06
1.85191e-06
2.2489e-06
-5.44406e-07
2.23761e-06
-4.87257e-07
2.22852e-06
-5.03282e-07
2.23313e-06
5.13255e-07
2.22387e-06
-1.77028e-07
2.28329e-06
1.74084e-06
2.27282e-06
2.67634e-07
2.30236e-06
6.49704e-07
2.29091e-06
2.99232e-07
2.28586e-06
-2.28752e-07
2.27402e-06
-1.99058e-07
2.25402e-06
-5.47051e-07
2.24378e-06
-4.2574e-07
2.22665e-06
-4.42917e-07
2.22063e-06
-3.52579e-07
2.2111e-06
-2.1597e-07
-1.45776e-07
2.2088e-06
2.3585e-06
8.77071e-07
2.33715e-06
-1.60568e-06
2.38367e-06
1.80539e-06
2.35704e-06
-5.1778e-07
2.34525e-06
-4.75467e-07
2.33288e-06
-4.90914e-07
2.34142e-06
5.04719e-07
2.33109e-06
-1.66699e-07
2.3921e-06
1.67984e-06
2.37901e-06
2.80724e-07
2.4091e-06
6.19609e-07
2.39778e-06
3.1055e-07
2.39376e-06
-2.24724e-07
2.38171e-06
-1.87009e-07
2.36174e-06
-5.27087e-07
2.35202e-06
-4.1602e-07
2.33341e-06
-4.24302e-07
2.32799e-06
-3.47157e-07
2.31779e-06
-2.05777e-07
-1.41511e-07
2.31353e-06
2.47252e-06
8.70943e-07
2.44804e-06
-1.58119e-06
2.4952e-06
1.75823e-06
2.47012e-06
-4.92698e-07
2.45836e-06
-4.63706e-07
2.44259e-06
-4.75149e-07
2.45431e-06
4.93004e-07
2.44217e-06
-1.54562e-07
2.50432e-06
1.61769e-06
2.48906e-06
2.95979e-07
2.52012e-06
5.88551e-07
2.50944e-06
3.21228e-07
2.50658e-06
-2.2186e-07
2.49492e-06
-1.75358e-07
2.47444e-06
-5.06606e-07
2.46567e-06
-4.07244e-07
2.44526e-06
-4.03898e-07
2.44015e-06
-3.42045e-07
2.43021e-06
-1.95835e-07
-1.35175e-07
2.42387e-06
2.59178e-06
8.63457e-07
2.56432e-06
-1.55373e-06
2.61232e-06
1.71023e-06
2.58838e-06
-4.68757e-07
2.57714e-06
-4.52466e-07
2.55802e-06
-4.56027e-07
2.57207e-06
4.78946e-07
2.55764e-06
-1.40129e-07
2.62085e-06
1.55448e-06
2.60406e-06
3.12762e-07
2.63629e-06
5.56322e-07
2.62643e-06
3.31088e-07
2.6245e-06
-2.19927e-07
2.61386e-06
-1.64717e-07
2.5923e-06
-4.8505e-07
2.58485e-06
-3.99795e-07
2.56275e-06
-3.81795e-07
2.55723e-06
-3.36524e-07
2.5483e-06
-1.86905e-07
-1.26691e-07
2.53982e-06
2.71655e-06
8.54736e-07
2.68636e-06
-1.52354e-06
2.73537e-06
1.66123e-06
2.71203e-06
-4.45422e-07
2.70162e-06
-4.42058e-07
2.67932e-06
-4.33722e-07
2.6952e-06
4.63061e-07
2.67824e-06
-1.23163e-07
2.74251e-06
1.49021e-06
2.7249e-06
3.30377e-07
2.7582e-06
5.2302e-07
2.74923e-06
3.40057e-07
2.74772e-06
-2.18414e-07
2.73862e-06
-1.55623e-07
2.71552e-06
-4.61946e-07
2.70956e-06
-3.9384e-07
2.68629e-06
-3.58521e-07
2.67942e-06
-3.29652e-07
2.6722e-06
-1.79689e-07
-1.16226e-07
2.66174e-06
2.84711e-06
8.44891e-07
2.81443e-06
-1.49086e-06
2.86458e-06
1.61108e-06
2.84132e-06
-4.22158e-07
2.83189e-06
-4.32632e-07
2.80668e-06
-4.08508e-07
2.82419e-06
4.45551e-07
2.80471e-06
-1.03687e-07
2.87002e-06
1.4249e-06
2.85218e-06
3.48213e-07
2.88625e-06
4.88956e-07
2.87828e-06
3.48027e-07
2.87653e-06
-2.16669e-07
2.86939e-06
-1.48478e-07
2.84442e-06
-4.36981e-07
2.83978e-06
-3.89204e-07
2.81619e-06
-3.3493e-07
2.80703e-06
-3.20488e-07
2.80204e-06
-1.74699e-07
-1.04341e-07
2.79016e-06
2.98376e-06
8.34026e-07
2.94882e-06
-1.45592e-06
3.00023e-06
1.55967e-06
2.97654e-06
-3.98471e-07
2.96818e-06
-4.24269e-07
2.9404e-06
-3.80736e-07
2.95948e-06
4.26475e-07
2.93777e-06
-8.19753e-08
3.00397e-06
1.3587e-06
2.98637e-06
3.6581e-07
3.02077e-06
4.54558e-07
3.014e-06
3.54803e-07
3.01132e-06
-2.13989e-07
3.00639e-06
-1.43553e-07
2.97945e-06
-4.10038e-07
2.97564e-06
-3.85392e-07
2.9527e-06
-3.11999e-07
2.94057e-06
-3.08356e-07
2.93789e-06
-1.72017e-07
-9.20072e-08
2.92556e-06
3.12681e-06
8.22226e-07
3.08981e-06
-1.41892e-06
3.14257e-06
1.5069e-06
3.11803e-06
-3.7393e-07
3.11079e-06
-4.17032e-07
3.08084e-06
-3.50787e-07
3.10143e-06
4.05889e-07
3.07794e-06
-5.84844e-08
3.14481e-06
1.29183e-06
3.12779e-06
3.82827e-07
3.16203e-06
4.20323e-07
3.15674e-06
3.60085e-07
3.15245e-06
-2.09691e-07
3.14988e-06
-1.40985e-07
3.12109e-06
-3.81248e-07
3.11735e-06
-3.81657e-07
3.09607e-06
-2.90712e-07
3.08063e-06
-2.92919e-07
3.07982e-06
-1.71204e-07
-8.03891e-08
3.0682e-06
3.27659e-06
8.09546e-07
3.23772e-06
-1.38005e-06
3.2919e-06
1.45272e-06
3.26616e-06
-3.48184e-07
3.2601e-06
-4.10979e-07
3.22834e-06
-3.19028e-07
3.25033e-06
3.83905e-07
3.22561e-06
-3.37631e-08
3.29279e-06
1.22465e-06
3.2767e-06
3.98914e-07
3.3102e-06
3.86824e-07
3.3068e-06
3.63481e-07
3.30031e-06
-2.03197e-07
3.30007e-06
-1.40749e-07
3.26982e-06
-3.50993e-07
3.26528e-06
-3.77118e-07
3.2465e-06
-2.7193e-07
3.2279e-06
-2.74326e-07
3.22796e-06
-1.71255e-07
-7.06902e-08
3.21826e-06
3.43346e-06
7.96012e-07
3.39286e-06
-1.33944e-06
3.4485e-06
1.39708e-06
3.42129e-06
-3.20974e-07
3.41647e-06
-4.06154e-07
3.38322e-06
-2.85787e-07
3.40641e-06
3.60715e-07
3.38106e-06
-8.40393e-09
3.44806e-06
1.15765e-06
3.43333e-06
4.13642e-07
3.46548e-06
3.54675e-07
3.46438e-06
3.6458e-07
3.45532e-06
-1.94133e-07
3.45718e-06
-1.42613e-07
3.42608e-06
-3.1989e-07
3.41986e-06
-3.709e-07
3.40413e-06
-2.56201e-07
3.38303e-06
-2.53224e-07
3.38257e-06
-1.70795e-07
-6.38577e-08
3.37574e-06
3.59779e-06
7.8163e-07
3.55554e-06
-1.29719e-06
3.61266e-06
1.33996e-06
3.58382e-06
-2.92134e-07
3.58025e-06
-4.02577e-07
3.54581e-06
-2.51355e-07
3.56992e-06
3.36605e-07
3.54455e-06
1.69759e-08
3.61074e-06
1.09145e-06
3.59792e-06
4.26462e-07
3.62811e-06
3.24482e-07
3.62965e-06
3.63047e-07
3.6179e-06
-1.82391e-07
3.62144e-06
-1.46148e-07
3.59025e-06
-2.88706e-07
3.58157e-06
-3.62219e-07
3.56914e-06
-2.43768e-07
3.54644e-06
-2.3053e-07
3.54418e-06
-1.68528e-07
-6.03238e-08
3.54064e-06
3.76994e-06
7.66392e-07
3.72611e-06
-1.25336e-06
3.78471e-06
1.28136e-06
3.75416e-06
-2.61582e-07
3.75182e-06
-4.0024e-07
3.71647e-06
-2.16006e-07
3.74111e-06
3.11969e-07
3.71637e-06
4.1712e-08
3.78099e-06
1.02683e-06
3.77068e-06
4.36771e-07
3.79842e-06
2.96749e-07
3.80274e-06
3.58725e-07
3.78848e-06
-1.68133e-07
3.79312e-06
-1.50783e-07
3.76267e-06
-2.58259e-07
3.75096e-06
-3.50506e-07
3.74165e-06
-2.3446e-07
3.71851e-06
-2.07393e-07
3.71341e-06
-1.63429e-07
-5.99105e-08
3.713e-06
3.95029e-06
7.5029e-07
3.9049e-06
-1.20797e-06
3.96499e-06
1.22127e-06
3.93272e-06
-2.29304e-07
3.93157e-06
-3.9909e-07
3.89558e-06
-1.80024e-07
3.92024e-06
2.87315e-07
3.89688e-06
6.50739e-08
3.95909e-06
9.64624e-07
3.95185e-06
4.44009e-07
3.97679e-06
2.71806e-07
3.98384e-06
3.51678e-07
3.96743e-06
-1.51721e-07
3.97256e-06
-1.55915e-07
3.9436e-06
-2.29297e-07
3.92856e-06
-3.35463e-07
3.92189e-06
-2.27792e-07
3.89947e-06
-1.84972e-07
3.89103e-06
-1.54989e-07
-6.17538e-08
3.89287e-06
4.13922e-06
7.33318e-07
4.09232e-06
-1.16107e-06
4.15388e-06
1.15971e-06
4.11993e-06
-1.95357e-07
4.11985e-06
-3.99014e-07
4.08357e-06
-1.43742e-07
4.10764e-06
2.63251e-07
4.08643e-06
8.62841e-08
4.14544e-06
9.05607e-07
4.14164e-06
4.47809e-07
4.16372e-06
2.49727e-07
4.17318e-06
3.42217e-07
4.15511e-06
-1.33654e-07
4.16014e-06
-1.60936e-07
4.1333e-06
-2.02458e-07
4.11488e-06
-3.17043e-07
4.11015e-06
-2.23068e-07
4.08949e-06
-1.64305e-07
4.07775e-06
-1.43257e-07
-6.45025e-08
4.0805e-06
4.33715e-06
7.15468e-07
4.28875e-06
-1.11266e-06
4.35175e-06
1.0967e-06
4.31625e-06
-1.5985e-07
4.31706e-06
-3.99826e-07
4.28088e-06
-1.07561e-07
4.30366e-06
2.40472e-07
4.28537e-06
1.04574e-07
4.34057e-06
8.50406e-07
4.3403e-06
4.48073e-07
4.35972e-06
2.3031e-07
4.37108e-06
3.30857e-07
4.35189e-06
-1.14465e-07
4.35628e-06
-1.65325e-07
4.33197e-06
-1.78149e-07
4.3104e-06
-2.95472e-07
4.30675e-06
-2.19419e-07
4.28874e-06
-1.46291e-07
4.27423e-06
-1.28749e-07
-6.66254e-08
4.27635e-06
4.54451e-06
6.96731e-07
4.49462e-06
-1.06278e-06
4.55903e-06
1.0323e-06
4.52212e-06
-1.22946e-07
4.52357e-06
-4.01272e-07
4.48796e-06
-7.19577e-08
4.50872e-06
2.19718e-07
4.49402e-06
1.1927e-07
4.54506e-06
7.9937e-07
4.54812e-06
4.45009e-07
4.56533e-06
2.13099e-07
4.57798e-06
3.18214e-07
4.55812e-06
-9.46085e-08
4.56146e-06
-1.68661e-07
4.53987e-06
-1.56568e-07
4.51564e-06
-2.71235e-07
4.51202e-06
-2.15805e-07
4.49735e-06
-1.31616e-07
4.48101e-06
-1.12412e-07
-6.66591e-08
4.48105e-06
4.76175e-06
6.77091e-07
4.7104e-06
-1.01142e-06
4.77611e-06
9.66588e-07
4.73802e-06
-8.48562e-08
4.73976e-06
-4.03016e-07
4.70533e-06
-3.75185e-08
4.72326e-06
2.01779e-07
4.71271e-06
1.29823e-07
4.75957e-06
7.52516e-07
4.76543e-06
4.39146e-07
4.78103e-06
1.97498e-07
4.79441e-06
3.04833e-07
4.77423e-06
-7.44327e-08
4.77612e-06
-1.70548e-07
4.75745e-06
-1.37896e-07
4.73101e-06
-2.44797e-07
4.72644e-06
-2.11234e-07
4.71543e-06
-1.20602e-07
4.69854e-06
-9.55267e-08
-6.3601e-08
4.69548e-06
4.98936e-06
6.56525e-07
4.93655e-06
-9.58602e-07
5.00344e-06
8.99691e-07
4.96444e-06
-4.58478e-08
4.96607e-06
-4.04653e-07
4.93347e-06
-4.91768e-09
4.94791e-06
1.87345e-07
4.94176e-06
1.35971e-07
4.98476e-06
7.09509e-07
4.99265e-06
4.31261e-07
5.00724e-06
1.82908e-07
5.02103e-06
2.91045e-07
5.00061e-06
-5.40151e-08
5.00086e-06
-1.708e-07
4.9851e-06
-1.22139e-07
4.9572e-06
-2.16891e-07
4.95071e-06
-2.04749e-07
4.94321e-06
-1.13103e-07
4.92717e-06
-7.94857e-08
-5.71204e-08
4.92069e-06
5.22784e-06
6.35003e-07
5.17358e-06
-9.04347e-07
5.24148e-06
8.31792e-07
5.20188e-06
-6.24264e-09
5.20294e-06
-4.05717e-07
5.17292e-06
2.51e-08
5.18332e-06
1.76947e-07
5.1815e-06
1.3779e-07
5.2213e-06
6.69714e-07
5.23033e-06
4.22233e-07
5.24436e-06
1.68876e-07
5.25844e-06
2.76963e-07
5.23777e-06
-3.33425e-08
5.23628e-06
-1.69316e-07
5.22348e-06
-1.0934e-07
5.19474e-06
-1.88146e-07
5.18565e-06
-1.95662e-07
5.18105e-06
-1.08507e-07
5.16708e-06
-6.55071e-08
-4.77105e-08
5.15767e-06
5.47769e-06
6.12499e-07
5.42204e-06
-8.48696e-07
5.4907e-06
7.63137e-07
5.4509e-06
3.3558e-08
5.45085e-06
-4.05667e-07
5.42422e-06
5.17309e-08
5.43019e-06
1.7097e-07
5.43236e-06
1.35628e-07
5.46975e-06
6.32317e-07
5.47905e-06
4.12939e-07
5.49276e-06
1.55163e-07
5.50725e-06
2.62476e-07
5.48635e-06
-1.24412e-08
5.48283e-06
-1.658e-07
5.47316e-06
-9.9667e-08
5.44429e-06
-1.59281e-07
5.4322e-06
-1.8357e-07
5.42941e-06
-1.05716e-07
5.41824e-06
-5.43346e-08
-3.68033e-08
5.40733e-06
5.73946e-06
5.88994e-07
5.68249e-06
-7.91721e-07
5.75158e-06
6.94041e-07
5.71208e-06
7.30629e-08
5.71031e-06
-4.03896e-07
5.68789e-06
7.41489e-08
5.68926e-06
1.69597e-07
5.69474e-06
1.30154e-07
5.73068e-06
5.96376e-07
5.73952e-06
4.041e-07
5.75279e-06
1.41892e-07
5.76807e-06
2.47193e-07
5.747e-06
8.62644e-09
5.741e-06
-1.59795e-07
5.73452e-06
-9.31871e-08
5.70644e-06
-1.31202e-07
5.69122e-06
-1.6835e-07
5.68898e-06
-1.03476e-07
5.6809e-06
-4.62521e-08
-2.58947e-08
5.66999e-06
6.0137e-06
5.64483e-07
5.95552e-06
-7.33536e-07
6.02466e-06
6.24898e-07
5.98605e-06
1.11677e-07
5.98189e-06
-3.99741e-07
5.96445e-06
9.15925e-08
5.96127e-06
1.72772e-07
5.96915e-06
1.22276e-07
6.00456e-06
5.60964e-07
6.01245e-06
3.96211e-07
6.02494e-06
1.29409e-07
6.0414e-06
2.30726e-07
6.02046e-06
2.95713e-08
6.01143e-06
-1.50763e-07
6.00795e-06
-8.97105e-08
5.98166e-06
-1.04912e-07
5.96345e-06
-1.50138e-07
5.9607e-06
-1.00724e-07
5.95529e-06
-4.08488e-08
-1.63078e-08
5.94571e-06
6.301e-06
5.38971e-07
6.24176e-06
-6.74295e-07
6.31048e-06
5.56182e-07
6.27346e-06
1.48689e-07
6.2662e-06
-3.92474e-07
6.25428e-06
1.03511e-07
6.24698e-06
1.80074e-07
6.25613e-06
1.13122e-07
6.29187e-06
5.25222e-07
6.29863e-06
3.8945e-07
6.30971e-06
1.1833e-07
6.3277e-06
2.1274e-07
6.30737e-06
4.9894e-08
6.29495e-06
-1.38343e-07
6.29383e-06
-8.85863e-08
6.27038e-06
-8.14637e-08
6.24964e-06
-1.29398e-07
6.24551e-06
-9.65922e-08
6.24205e-06
-3.73862e-08
-8.69842e-09
6.23444e-06
6.60196e-06
5.12485e-07
6.54187e-06
-6.14213e-07
6.60963e-06
4.88422e-07
6.57502e-06
1.83297e-07
6.56389e-06
-3.81342e-07
6.55778e-06
1.09618e-07
6.5471e-06
1.90756e-07
6.55628e-06
1.03944e-07
6.59302e-06
4.88478e-07
6.59885e-06
3.83628e-07
6.60777e-06
1.09405e-07
6.62735e-06
1.93164e-07
6.60848e-06
6.87631e-08
6.59242e-06
-1.22284e-07
6.59268e-06
-8.8843e-08
6.57296e-06
-6.1752e-08
6.55048e-06
-1.06912e-07
6.5443e-06
-9.04193e-08
6.54207e-06
-3.51529e-08
-3.05098e-09
6.53642e-06
6.9172e-06
4.85073e-07
6.85655e-06
-5.53558e-07
6.92279e-06
4.22181e-07
6.89141e-06
2.14675e-07
6.87572e-06
-3.65646e-07
6.87541e-06
1.09925e-07
6.86236e-06
2.03799e-07
6.87031e-06
9.6001e-08
6.90846e-06
4.50329e-07
6.91383e-06
3.78254e-07
6.91988e-06
1.03352e-07
6.94083e-06
1.72219e-07
6.92438e-06
8.52118e-08
6.90472e-06
-1.02627e-07
6.90498e-06
-8.90988e-08
6.88977e-06
-4.65423e-08
6.86658e-06
-8.37234e-08
6.85795e-06
-8.17939e-08
6.85634e-06
-3.35351e-08
1.0314e-09
6.85225e-06
7.2474e-06
4.56808e-07
7.18649e-06
-4.92651e-07
7.25061e-06
3.58063e-07
7.2233e-06
2.41989e-07
7.20246e-06
-3.4481e-07
7.20765e-06
1.04741e-07
7.19351e-06
2.17938e-07
7.19904e-06
9.04654e-08
7.23858e-06
4.10797e-07
7.24431e-06
3.72516e-07
7.24695e-06
1.00717e-07
7.26862e-06
1.50552e-07
7.25561e-06
9.82174e-08
7.23279e-06
-7.98032e-08
7.23152e-06
-8.78307e-08
7.2211e-06
-3.6126e-08
7.19858e-06
-6.12024e-08
7.18726e-06
-7.04697e-08
7.18562e-06
-3.18993e-08
3.82897e-09
7.18282e-06
7.59324e-06
4.27793e-07
7.53245e-06
-4.31859e-07
7.59381e-06
2.96703e-07
7.57136e-06
2.64439e-07
7.54505e-06
-3.18498e-07
7.55505e-06
9.47355e-08
7.54133e-06
2.31663e-07
7.54337e-06
8.84264e-08
7.58388e-06
3.70284e-07
7.59094e-06
3.65459e-07
7.58997e-06
1.01687e-07
7.6114e-06
1.29113e-07
7.60253e-06
1.07091e-07
7.57741e-06
-5.46849e-08
7.57343e-06
-8.3843e-08
7.56733e-06
-3.00314e-08
7.54687e-06
-4.07425e-08
7.53316e-06
-5.67587e-08
7.53077e-06
-2.95076e-08
5.58729e-09
7.52901e-06
7.95544e-06
3.98165e-07
7.89519e-06
-3.71611e-07
7.95312e-06
2.38771e-07
7.93627e-06
2.81294e-07
7.90449e-06
-2.86715e-07
7.91829e-06
8.09268e-08
7.90648e-06
2.43477e-07
7.90434e-06
9.05618e-08
7.94494e-06
3.29685e-07
7.95426e-06
3.56145e-07
7.94988e-06
1.06061e-07
7.96994e-06
1.09053e-07
7.96542e-06
1.11613e-07
7.93934e-06
-2.86009e-08
7.93187e-06
-7.63768e-08
7.92892e-06
-2.7082e-08
7.91176e-06
-2.35813e-08
7.8965e-06
-4.14962e-08
7.89264e-06
-2.56523e-08
6.67084e-09
7.89156e-06
8.33474e-06
3.68107e-07
8.27553e-06
-3.12402e-07
8.32934e-06
1.84962e-07
8.31871e-06
2.91925e-07
8.28182e-06
-2.49831e-07
8.29808e-06
6.4671e-08
8.28956e-06
2.51996e-07
8.28301e-06
9.71167e-08
8.32246e-06
2.9023e-07
8.33472e-06
3.43889e-07
8.32756e-06
1.13221e-07
8.34501e-06
9.15963e-08
8.34448e-06
1.12151e-07
8.31909e-06
-3.218e-09
8.30802e-06
-6.53068e-08
8.30663e-06
-2.56843e-08
8.29358e-06
-1.05308e-08
8.27797e-06
-2.58914e-08
8.27217e-06
-1.985e-08
7.57178e-09
8.27127e-06
8.73191e-06
3.37862e-07
8.67429e-06
-2.54789e-07
8.72324e-06
1.36018e-07
8.71928e-06
2.9588e-07
8.67806e-06
-2.0861e-07
8.69498e-06
4.77564e-08
8.69104e-06
2.55933e-07
8.68046e-06
1.07693e-07
8.71714e-06
2.53551e-07
8.73262e-06
3.28408e-07
8.72357e-06
1.2227e-07
8.7371e-06
7.80662e-08
8.74023e-06
1.09026e-07
8.71718e-06
1.98283e-08
8.70297e-06
-5.10913e-08
8.70158e-06
-2.42968e-08
8.69267e-06
-1.61809e-09
8.67797e-06
-1.11951e-08
8.67043e-06
-1.23089e-08
8.93895e-09
8.66906e-06
9.14775e-06
3.07732e-07
9.09246e-06
-1.99503e-07
9.13566e-06
9.28247e-08
9.13863e-06
2.92906e-07
9.09416e-06
-1.64138e-07
9.10978e-06
3.21357e-08
9.11129e-06
2.5442e-07
9.09767e-06
1.21315e-07
9.12965e-06
2.2157e-07
9.14813e-06
3.09928e-07
9.13826e-06
1.32135e-07
9.14691e-06
6.94225e-08
9.15337e-06
1.02564e-07
9.1342e-06
3.89943e-08
9.11779e-06
-3.46789e-08
9.11518e-06
-2.16834e-08
9.10963e-06
3.92777e-09
9.09693e-06
1.50519e-09
9.08833e-06
-3.70671e-09
1.12904e-08
9.08598e-06
9.58312e-06
2.78072e-07
9.53107e-06
-1.47455e-07
9.56753e-06
5.63687e-08
9.5775e-06
2.82932e-07
9.53128e-06
-1.17912e-07
9.54351e-06
1.99042e-08
9.55054e-06
2.47389e-07
9.5353e-06
1.36556e-07
9.56104e-06
1.95823e-07
9.58191e-06
2.89063e-07
9.57268e-06
1.41362e-07
9.57637e-06
6.57301e-08
9.58522e-06
9.37178e-08
9.57078e-06
5.34322e-08
9.55344e-06
-1.73404e-08
9.54885e-06
-1.70903e-08
9.54544e-06
7.3341e-09
9.53539e-06
1.15576e-08
9.52658e-06
5.10371e-09
1.47098e-08
9.52316e-06
1.00389e-05
2.49275e-07
9.99111e-06
-9.96316e-08
1.00199e-05
2.75589e-08
1.00363e-05
2.66507e-07
9.99056e-06
-7.21281e-08
9.99722e-06
1.32468e-08
1.00089e-05
2.35724e-07
9.99416e-06
1.51282e-07
1.00133e-05
1.76721e-07
1.00356e-05
2.66752e-07
1.00285e-05
1.48454e-07
1.00281e-05
6.61206e-08
1.00374e-05
8.44156e-08
1.00277e-05
6.31346e-08
1.00106e-05
-2.98265e-10
1.0004e-05
-1.04116e-08
1.00017e-05
9.64306e-09
9.99413e-06
1.90901e-08
9.98575e-06
1.34807e-08
1.88609e-08
9.9816e-06
1.05162e-05
2.2173e-07
1.04735e-05
-5.69147e-08
1.0494e-05
6.99542e-09
1.05157e-05
2.44809e-07
1.04727e-05
-2.91173e-08
1.04725e-05
1.34279e-08
1.04876e-05
2.2062e-07
1.04752e-05
1.63733e-07
1.04885e-05
1.63405e-07
1.05108e-05
2.44496e-07
1.05066e-05
1.52586e-07
1.05032e-05
6.95959e-08
1.05114e-05
7.62145e-08
1.05058e-05
6.86975e-08
1.04902e-05
1.53056e-08
1.04818e-05
-1.97351e-09
1.04795e-05
1.19168e-08
1.04742e-05
2.43882e-08
1.04667e-05
2.09361e-08
2.34321e-08
1.04622e-05
1.1016e-05
1.95788e-07
1.0979e-05
-1.99449e-08
1.09913e-05
-5.35639e-09
1.10165e-05
2.19639e-07
1.09785e-05
8.90697e-09
1.09719e-05
1.99972e-08
1.09887e-05
2.03829e-07
1.09795e-05
1.72983e-07
1.0988e-05
1.54862e-07
1.1009e-05
2.23466e-07
1.10077e-05
1.5387e-07
1.10025e-05
7.4889e-08
1.10086e-05
7.00829e-08
1.10061e-05
7.12025e-08
1.09928e-05
2.85564e-08
1.09832e-05
7.6604e-09
1.09803e-05
1.47658e-08
1.09766e-05
2.81255e-08
1.09705e-05
2.70285e-08
2.81267e-08
1.09658e-05
1.15394e-05
1.71726e-07
1.15085e-05
1.0996e-08
1.15135e-05
-1.04047e-08
1.154e-05
1.93125e-07
1.15087e-05
4.02505e-08
1.14972e-05
3.15416e-08
1.15135e-05
1.87483e-07
1.15078e-05
1.78709e-07
1.15127e-05
1.49933e-07
1.15315e-05
2.04661e-07
1.15328e-05
1.52633e-07
1.15267e-05
8.08971e-08
1.15305e-05
6.63682e-08
1.15298e-05
7.18206e-08
1.15192e-05
3.91651e-08
1.15093e-05
1.75563e-08
1.15056e-05
1.85251e-08
1.15027e-05
3.09517e-08
1.14981e-05
3.16437e-08
3.25808e-08
1.14937e-05
1.20878e-05
1.49746e-07
1.20628e-05
3.59688e-08
1.2062e-05
-9.59106e-09
1.20879e-05
1.67282e-07
1.20637e-05
6.43964e-08
1.20491e-05
4.61226e-08
1.20635e-05
1.73065e-07
1.20611e-05
1.81177e-07
1.20635e-05
1.47555e-07
1.20795e-05
1.88665e-07
1.20827e-05
1.49359e-07
1.20768e-05
8.68667e-08
1.20782e-05
6.49343e-08
1.20786e-05
7.14161e-08
1.20705e-05
4.72918e-08
1.20609e-05
2.7101e-08
1.20564e-05
2.30058e-08
1.2054e-05
3.34307e-08
1.20505e-05
3.50732e-08
3.63239e-08
1.20468e-05
1.26624e-05
1.29952e-07
1.2643e-05
5.53218e-08
1.2638e-05
-4.5737e-09
1.26615e-05
1.43841e-07
1.26442e-05
8.16163e-08
1.26286e-05
6.17131e-08
1.26404e-05
1.61352e-07
1.26403e-05
1.81209e-07
1.26411e-05
1.4681e-07
1.26542e-05
1.75573e-07
1.26588e-05
1.44677e-07
1.26535e-05
9.22171e-08
1.26531e-05
6.53595e-08
1.26537e-05
7.0803e-08
1.26477e-05
5.32479e-08
1.26391e-05
3.57732e-08
1.26341e-05
2.79537e-08
1.26317e-05
3.58114e-08
1.26291e-05
3.77455e-08
3.91349e-08
1.26262e-05
1.32645e-05
1.12375e-07
1.32504e-05
6.93987e-08
1.32425e-05
3.32582e-09
1.32626e-05
1.23792e-07
1.32513e-05
9.28771e-08
1.32363e-05
7.67006e-08
1.32451e-05
1.52547e-07
1.32465e-05
1.79806e-07
1.32465e-05
1.46877e-07
1.32569e-05
1.65162e-07
1.32623e-05
1.39244e-07
1.32581e-05
9.647e-08
1.32562e-05
6.72015e-08
1.32566e-05
7.04702e-08
1.32523e-05
5.75084e-08
1.32449e-05
4.32186e-08
1.32397e-05
3.31056e-08
1.32373e-05
3.8173e-08
1.32351e-05
3.99429e-08
4.1228e-08
1.3233e-05
1.38956e-05
9.69744e-08
1.38863e-05
7.86983e-08
1.38767e-05
1.28884e-08
1.38929e-05
1.07604e-07
1.38863e-05
9.94657e-08
1.38727e-05
9.02903e-08
1.38789e-05
1.46368e-07
1.38811e-05
1.77595e-07
1.38807e-05
1.47242e-07
1.38889e-05
1.56985e-07
1.38946e-05
1.33585e-07
1.38916e-05
9.943e-08
1.3889e-05
6.98287e-08
1.38887e-05
7.07753e-08
1.38857e-05
6.05078e-08
1.38795e-05
4.94142e-08
1.38744e-05
3.81586e-08
1.38721e-05
4.0506e-08
1.38703e-05
4.17248e-08
4.28889e-08
1.38687e-05
1.45571e-05
8.35624e-08
1.45515e-05
8.42498e-08
1.4541e-05
2.3449e-08
1.45541e-05
9.45126e-08
1.45508e-05
1.0275e-07
1.45386e-05
1.02504e-07
1.45427e-05
1.42244e-07
1.45455e-05
1.74738e-07
1.45452e-05
1.47603e-07
1.45514e-05
1.50726e-07
1.4557e-05
1.2799e-07
1.45553e-05
1.01152e-07
1.45525e-05
7.25931e-08
1.45516e-05
7.17039e-08
1.45493e-05
6.28005e-08
1.45444e-05
5.43327e-08
1.45397e-05
4.2869e-08
1.45373e-05
4.28714e-08
1.4536e-05
4.30207e-08
4.43661e-08
1.45346e-05
1.52502e-05
7.22539e-08
1.52457e-05
8.87608e-08
1.52372e-05
3.19426e-08
1.52481e-05
8.36059e-08
1.5246e-05
1.04876e-07
1.52346e-05
1.13866e-07
1.52377e-05
1.39169e-07
1.52416e-05
1.70825e-07
1.52416e-05
1.47608e-07
1.5246e-05
1.46301e-07
1.52511e-05
1.22869e-07
1.52505e-05
1.01743e-07
1.52481e-05
7.50731e-08
1.52468e-05
7.2973e-08
1.52448e-05
6.48071e-08
1.5241e-05
5.80798e-08
1.52369e-05
4.70428e-08
1.52344e-05
4.53431e-08
1.52335e-05
4.38938e-08
4.5516e-08
1.52324e-05
1.59777e-05
6.19067e-08
1.59865e-05
7.99062e-08
1.59793e-05
3.92018e-08
1.5978e-05
8.4841e-08
1.59719e-05
1.11059e-07
1.59622e-05
1.23523e-07
1.59654e-05
1.36007e-07
1.59706e-05
1.65623e-07
1.59713e-05
1.46834e-07
1.59743e-05
1.43384e-07
1.59785e-05
1.18664e-07
1.59789e-05
1.01333e-07
1.59769e-05
7.70038e-08
1.59757e-05
7.42395e-08
1.5974e-05
6.65176e-08
1.59709e-05
6.1157e-08
1.59675e-05
5.03892e-08
1.59651e-05
4.78257e-08
1.59643e-05
4.46232e-08
4.61533e-08
1.59637e-05
1.67384e-05
5.41469e-08
1.6733e-05
8.52901e-08
1.67249e-05
4.7311e-08
1.67296e-05
8.0155e-08
1.67314e-05
1.09229e-07
1.67254e-05
1.29536e-07
1.67284e-05
1.32962e-07
1.67345e-05
1.5956e-07
1.67363e-05
1.45034e-07
1.6738e-05
1.41682e-07
1.67409e-05
1.15709e-07
1.67418e-05
1.00515e-07
1.67407e-05
7.80892e-08
1.67395e-05
7.53622e-08
1.67383e-05
6.77575e-08
1.67357e-05
6.37966e-08
1.67331e-05
5.29427e-08
1.67308e-05
5.01008e-08
1.67301e-05
4.54098e-08
4.62764e-08
1.67299e-05
1.75374e-05
4.71407e-08
1.75405e-05
8.21727e-08
1.75301e-05
5.77409e-08
1.75276e-05
8.25675e-08
1.75285e-05
1.08375e-07
1.75245e-05
1.33501e-07
1.75274e-05
1.30079e-07
1.75342e-05
1.5276e-07
1.75374e-05
1.4188e-07
1.75386e-05
1.40488e-07
1.75404e-05
1.13913e-07
1.75411e-05
9.97611e-08
1.75407e-05
7.84568e-08
1.75401e-05
7.60558e-08
1.75394e-05
6.8422e-08
1.75373e-05
6.58415e-08
1.75352e-05
5.51336e-08
1.75335e-05
5.17203e-08
1.75325e-05
4.64127e-08
4.60081e-08
1.75328e-05
1.83736e-05
4.18455e-08
1.8373e-05
8.27998e-08
1.83659e-05
6.48481e-08
1.83646e-05
8.39134e-08
1.8366e-05
1.06985e-07
1.8363e-05
1.36402e-07
1.83649e-05
1.28212e-07
1.83719e-05
1.45741e-07
1.83765e-05
1.37332e-07
1.83779e-05
1.39105e-07
1.83786e-05
1.13203e-07
1.83789e-05
9.94465e-08
1.83789e-05
7.8453e-08
1.83788e-05
7.61408e-08
1.83786e-05
6.86116e-08
1.83774e-05
6.70622e-08
1.83756e-05
5.69667e-08
1.83744e-05
5.28883e-08
1.83736e-05
4.72333e-08
4.57869e-08
1.83738e-05
1.92508e-05
3.7477e-08
1.92524e-05