/*--------------------------------*- C++ -*----------------------------------*\
| =========                 |                                                 |
| \\      /  F ield         | OpenFOAM: The Open Source CFD Toolbox           |
|  \\    /   O peration     | Version:  v1812                                 |
|   \\  /    A nd           | Web:      www.OpenFOAM.com                      |
|    \\/     M anipulation  |                                                 |
\*---------------------------------------------------------------------------*/
FoamFile
{
    version     2.0;
    format      ascii;
    class       volScalarField;
    location    "10.5";
    object      p;
}
// * * * * * * * * * * * * * * * * * * * * * * * * * * * * * * * * * * * * * //

dimensions      [0 2 -2 0 0 0 0];


internalField   nonuniform List<scalar> 
9600
(
1.34285e-10
-0.000354874
-0.000190545
-0.00148987
-0.000264376
-0.000761428
0.000210852
-0.00217068
-0.00136719
0.000262536
0.00375448
0.000438128
0.000568921
-0.00212646
-0.00615283
-0.00463548
-0.00881288
-0.00915262
-0.0108997
-0.0114922
-7.43308e-06
-0.000355362
-0.000188746
-0.00148949
-0.000258347
-0.00077014
0.000204824
-0.00217192
-0.0013699
0.000244392
0.00377154
0.000412728
0.000637477
-0.00214417
-0.00610255
-0.00475132
-0.0087536
-0.00915003
-0.0108798
-0.0114749
-1.46526e-05
-0.000355112
-0.000186538
-0.00148885
-0.0002516
-0.000781037
0.000192698
-0.00217226
-0.00137291
0.000224436
0.00376232
0.000372703
0.000695879
-0.00218055
-0.00604393
-0.0048528
-0.00864552
-0.00915772
-0.0108562
-0.011423
-2.19435e-05
-0.000354646
-0.000184588
-0.00148871
-0.000246911
-0.00079309
0.000180614
-0.00216862
-0.00137168
0.000196791
0.00373122
0.000307544
0.000728631
-0.00223789
-0.00598148
-0.00495531
-0.00853257
-0.00917455
-0.0108345
-0.0113878
-2.96774e-05
-0.000353902
-0.000182811
-0.00148915
-0.000242011
-0.00080622
0.000170938
-0.00216015
-0.00136683
0.000164475
0.00368464
0.000223812
0.000752353
-0.00230986
-0.0059114
-0.00506194
-0.0084304
-0.00918455
-0.0108265
-0.0113715
-3.7878e-05
-0.00035272
-0.000181061
-0.00148917
-0.000235927
-0.000820686
0.000164448
-0.00214698
-0.00135792
0.000127915
0.00362703
0.000130454
0.000767363
-0.00238901
-0.00583496
-0.00517112
-0.008334
-0.00918325
-0.0108398
-0.0113445
-4.65243e-05
-0.000350993
-0.000179234
-0.00148768
-0.000229093
-0.000836452
0.000161842
-0.00212917
-0.00134489
8.80624e-05
0.00355746
3.53958e-05
0.000774261
-0.0024681
-0.0057566
-0.00527043
-0.00824027
-0.00917629
-0.0108638
-0.0113007
-5.56122e-05
-0.000348691
-0.000177325
-0.00148406
-0.000221662
-0.000853376
0.000163623
-0.00210664
-0.00132784
4.5584e-05
0.00348901
-5.68449e-05
0.000773954
-0.00254307
-0.00568
-0.00535407
-0.00815681
-0.00916236
-0.0108896
-0.011258
-6.51479e-05
-0.000345856
-0.000175421
-0.00147825
-0.000213309
-0.000871551
0.000169698
-0.002079
-0.00130697
8.9178e-07
0.00341632
-0.000143511
0.000766971
-0.00261165
-0.00560658
-0.00542203
-0.00808827
-0.00913516
-0.01092
-0.0112294
-7.51396e-05
-0.000342571
-0.000173618
-0.0014708
-0.000203684
-0.000891195
0.000179195
-0.00204573
-0.00128288
-4.57374e-05
0.00333937
-0.00022345
0.000753194
-0.0026717
-0.00553624
-0.00547437
-0.00803458
-0.00909432
-0.0109569
-0.0112167
-8.5597e-05
-0.000338921
-0.000171955
-0.00146264
-0.00019264
-0.000912327
0.000190545
-0.00200674
-0.00125664
-9.39441e-05
0.00325806
-0.000296752
0.000732042
-0.00272138
-0.00548216
-0.0055045
-0.0079967
-0.00904469
-0.0109955
-0.0112205
-9.65325e-05
-0.000334965
-0.000170401
-0.00145456
-0.000180289
-0.000934599
0.000201841
-0.00196265
-0.00122979
-0.000143148
0.0031723
-0.000364374
0.000702187
-0.00275905
-0.00544119
-0.00549172
-0.00797672
-0.00899104
-0.0110279
-0.0112448
-0.00010796
-0.000330735
-0.000168873
-0.0014469
-0.000167011
-0.000957353
0.00021132
-0.00191475
-0.001204
-0.000192454
0.00308204
-0.000427755
0.0006619
-0.00278378
-0.00541521
-0.00546381
-0.00797324
-0.00893775
-0.0110463
-0.0112915
-0.000119896
-0.000326251
-0.00016727
-0.00143955
-0.000153354
-0.000979857
0.000217715
-0.00186449
-0.00118067
-0.000240724
0.00298702
-0.000488168
0.000609546
-0.00279551
-0.00540578
-0.00542967
-0.00798062
-0.00889003
-0.011043
-0.0113583
-0.000132355
-0.000321521
-0.000165472
-0.00143224
-0.000139866
-0.00100147
0.000220356
-0.00181294
-0.00116077
-0.000286832
0.00288661
-0.000546243
0.000543777
-0.00279439
-0.00541255
-0.00537657
-0.00799137
-0.00885386
-0.0110117
-0.0114384
-0.000145346
-0.000316545
-0.00016336
-0.00142478
-0.000126972
-0.00102171
0.000219026
-0.00176059
-0.00114497
-0.000329931
0.00278003
-0.000601868
0.00046392
-0.00278156
-0.00543461
-0.005281
-0.00799658
-0.00883468
-0.0109493
-0.0115221
-0.000158869
-0.000311335
-0.000160852
-0.00141715
-0.000114929
-0.00104023
0.000213684
-0.00170748
-0.00113377
-0.000369496
0.00266633
-0.00065449
0.000369625
-0.00275838
-0.0054712
-0.00520804
-0.00798706
-0.00883659
-0.0108567
-0.0115984
-0.000172918
-0.000305916
-0.000157888
-0.00140948
-0.000103848
-0.00105673
0.000204291
-0.00165333
-0.00112767
-0.000405301
0.00254461
-0.000703654
0.000260836
-0.00272576
-0.00551987
-0.0051456
-0.00795625
-0.00886217
-0.0107384
-0.0116563
-0.000187481
-0.000300337
-0.000154417
-0.00140195
-9.37777e-05
-0.00107098
0.000190787
-0.00159771
-0.00112714
-0.00043741
0.00241419
-0.00074927
0.000138332
-0.00268549
-0.00557679
-0.00509192
-0.00790118
-0.0089112
-0.0106017
-0.0116854
-0.000202526
-0.000294685
-0.0001504
-0.0013947
-8.4768e-05
-0.00108271
0.000172925
-0.00154024
-0.00113256
-0.000466059
0.00227477
-0.000791591
3.34845e-06
-0.00263964
-0.00563716
-0.00505227
-0.00782135
-0.00898002
-0.0104567
-0.0116771
-0.000218008
-0.000289066
-0.000145785
-0.00138787
-7.68717e-05
-0.00109154
0.000150348
-0.00148067
-0.00114425
-0.000491529
0.00212651
-0.00083134
-0.000142416
-0.00259061
-0.00569619
-0.00503043
-0.00771619
-0.00906225
-0.0103153
-0.0116254
-0.000233879
-0.000283612
-0.000140489
-0.00138155
-7.024e-05
-0.00109717
0.000122797
-0.00141882
-0.00116259
-0.000514325
0.00197022
-0.000869831
-0.000296601
-0.00254144
-0.00575013
-0.00503028
-0.00758657
-0.00915041
-0.0101888
-0.0115265
-0.000250057
-0.000278494
-0.000134438
-0.00137567
-6.51634e-05
-0.00109923
8.99695e-05
-0.00135465
-0.00118759
-0.000535361
0.00180745
-0.00090883
-0.000456515
-0.00249489
-0.00579583
-0.00505369
-0.00743695
-0.00923665
-0.0100848
-0.0113798
-0.000266437
-0.000273899
-0.000127604
-0.00137011
-6.19782e-05
-0.00109732
5.15311e-05
-0.00128836
-0.00121889
-0.000555903
0.00164035
-0.000950099
-0.00061972
-0.00245321
-0.00583073
-0.00510099
-0.00727312
-0.00931276
-0.0100088
-0.0111889
-0.000282899
-0.00027002
-0.000119979
-0.00136478
-6.10631e-05
-0.00109094
7.24465e-06
-0.00122034
-0.00125591
-0.000577451
0.00147136
-0.000995233
-0.000784708
-0.00241792
-0.00585239
-0.00517193
-0.00710083
-0.00936984
-0.00996449
-0.0109623
-0.000299304
-0.000267076
-0.000111547
-0.00135951
-6.29251e-05
-0.00107966
-4.29387e-05
-0.00115118
-0.00129781
-0.000601739
0.00130338
-0.00104568
-0.000950233
-0.00239008
-0.00585965
-0.00526506
-0.00692623
-0.009399
-0.00995347
-0.0107128
-0.000315502
-0.000265316
-0.000102327
-0.00135394
-6.81746e-05
-0.00106313
-9.87581e-05
-0.00108174
-0.00134351
-0.000630946
0.00113954
-0.00110201
-0.00111534
-0.00237054
-0.00585265
-0.0053778
-0.00675586
-0.00939184
-0.00997428
-0.0104571
-0.000331334
-0.000264954
-9.2468e-05
-0.00134761
-7.73499e-05
-0.00104115
-0.000159846
-0.00101328
-0.00139135
-0.00066729
0.000982343
-0.00116357
-0.00128053
-0.00235967
-0.00583099
-0.00550791
-0.00659671
-0.00934081
-0.0100219
-0.0102161
-0.000346631
-0.000266178
-8.21943e-05
-0.0013401
-9.10009e-05
-0.00101362
-0.000225628
-0.000947328
-0.00143932
-0.000712715
0.000832899
-0.00122868
-0.00144669
-0.00235792
-0.00579351
-0.00568222
-0.00645704
-0.00924035
-0.0100856
-0.0100111
-0.000361195
-0.00026939
-7.17559e-05
-0.001331
-0.000109756
-0.000980507
-0.00029507
-0.000885576
-0.00148547
-0.000768973
0.000691598
-0.00129508
-0.00161444
-0.0023659
-0.00573854
-0.00583653
-0.00634514
-0.00908846
-0.0101484
-0.00986011
-0.000374861
-0.000274254
-6.14897e-05
-0.00131987
-0.000133943
-0.000942084
-0.000367094
-0.000829852
-0.00152772
-0.000836988
0.000557833
-0.00135999
-0.00178445
-0.00238522
-0.00566572
-0.00599429
-0.0062681
-0.00888989
-0.0101903
-0.00977263
-0.000387487
-0.000280871
-5.18701e-05
-0.00130633
-0.000163691
-0.000898978
-0.000440369
-0.000782039
-0.0015642
-0.0009169
0.000429895
-0.00142028
-0.00195743
-0.00241836
-0.0055745
-0.00614824
-0.00623118
-0.00865654
-0.0101916
-0.00974596
-0.000398926
-0.000289183
-4.34155e-05
-0.00129013
-0.00019914
-0.000851832
-0.00051306
-0.00074409
-0.00159379
-0.00100805
0.000305347
-0.00147355
-0.00213285
-0.00246741
-0.00546524
-0.00629063
-0.00623693
-0.00840385
-0.0101349
-0.0097652
-0.000409095
-0.000299047
-3.65175e-05
-0.00127111
-0.000240194
-0.000801577
-0.000583382
-0.000717831
-0.00161571
-0.00110875
0.00018099
-0.00151781
-0.00230842
-0.00253537
-0.00534033
-0.0064128
-0.00628317
-0.00814958
-0.0100111
-0.00980527
-0.000417932
-0.000310317
-3.15421e-05
-0.00124915
-0.000286596
-0.000749518
-0.000649538
-0.000704613
-0.00162986
-0.00121687
5.35199e-05
-0.00155175
-0.00248064
-0.00262545
-0.0052044
-0.00650539
-0.00636252
-0.00791289
-0.00982211
-0.00983607
-0.000425393
-0.000322826
-2.88479e-05
-0.00122404
-0.000338006
-0.000697172
-0.000709546
-0.00070523
-0.00163693
-0.00132993
-8.05099e-05
-0.00157549
-0.00264501
-0.00273904
-0.00506456
-0.00656073
-0.0064635
-0.00771036
-0.00958165
-0.00982676
-0.000431465
-0.000336437
-2.8761e-05
-0.0011957
-0.000393874
-0.000646148
-0.000761576
-0.000720008
-0.00163826
-0.00144492
-0.000223923
-0.00159083
-0.00279707
-0.00287509
-0.00492816
-0.00657492
-0.00657455
-0.00755138
-0.00930949
-0.00975534
-0.000436151
-0.000351039
-3.14385e-05
-0.00116417
-0.000453661
-0.000598061
-0.000804165
-0.000748685
-0.00163591
-0.00155819
-0.000378233
-0.0016015
-0.0029323
-0.00303032
-0.00480275
-0.00654755
-0.0066839
-0.0074359
-0.0090276
-0.00961765
-0.000439365
-0.000366532
-3.70996e-05
-0.00112933
-0.000516714
-0.000554915
-0.000836012
-0.000790074
-0.00163258
-0.00166658
-0.000543826
-0.00161206
-0.00304629
-0.00319987
-0.00469693
-0.0064817
-0.0067795
-0.00735746
-0.00875443
-0.009427
-0.000440982
-0.000382879
-4.61134e-05
-0.00109087
-0.000581985
-0.000519109
-0.000856537
-0.000841637
-0.00163136
-0.00176819
-0.000719577
-0.00162722
-0.00313631
-0.00337729
-0.00461824
-0.00638393
-0.00685045
-0.00730825
-0.00850002
-0.00920119
-0.000441047
-0.000399948
-5.85827e-05
-0.00104885
-0.000648106
-0.000492849
-0.000866144
-0.000899918
-0.00163538
-0.00186255
-0.000903485
-0.00165086
-0.0032014
-0.00355533
-0.0045702
-0.00626358
-0.00688715
-0.00727993
-0.00826989
-0.00895521
-0.000439617
-0.000417403
-7.48472e-05
-0.00100351
-0.000713326
-0.000478169
-0.000865705
-0.000961423
-0.00164671
-0.00195013
-0.00109343
-0.00168634
-0.00324216
-0.00372619
-0.00455364
-0.00607638
-0.00688089
-0.00726198
-0.00806878
-0.00870064
-0.000436848
-0.000434754
-9.54525e-05
-0.000955465
-0.0007753
-0.000476545
-0.000857423
-0.00102286
-0.00166611
-0.00203099
-0.001287
-0.0017379
-0.00326112
-0.00388056
-0.00456955
-0.00593206
-0.00683373
-0.00724201
-0.0078977
-0.00844952
-0.000433159
-0.000451198
-0.000120563
-0.00090609
-0.00083113
-0.000488276
-0.000845044
-0.00108158
-0.00169334
-0.00210495
-0.00148131
-0.00180887
-0.00326257
-0.00401021
-0.00461148
-0.00580334
-0.0067517
-0.0072092
-0.00775142
-0.00821255
-0.000429031
-0.000465775
-0.000150137
-0.000857428
-0.000878307
-0.000512868
-0.00083289
-0.00113611
-0.00172724
-0.00217265
-0.0016726
-0.00189983
-0.00325296
-0.00410947
-0.00466836
-0.00569424
-0.00664512
-0.00715782
-0.00762167
-0.00799434
-0.000424953
-0.000477777
-0.000183685
-0.000811972
-0.000915581
-0.000548363
-0.00082462
-0.00118609
-0.00176653
-0.00223519
-0.00185653
-0.00200807
-0.00323945
-0.00417609
-0.00472745
-0.00560508
-0.00652496
-0.0070877
-0.00750268
-0.0077935
-0.000421356
-0.000486939
-0.000219761
-0.000772343
-0.000942857
-0.000590873
-0.000822054
-0.00123273
-0.00181062
-0.0022931
-0.00202916
-0.00212909
-0.0032284
-0.00421179
-0.00477909
-0.00553437
-0.00639922
-0.00700007
-0.00739045
-0.00760756
-0.00041841
-0.000493239
-0.000257112
-0.000740672
-0.000961415
-0.0006368
-0.000826022
-0.00127721
-0.00185929
-0.00234665
-0.00218644
-0.00225788
-0.00322467
-0.00422077
-0.00481984
-0.00548053
-0.00627319
-0.006893
-0.00727991
-0.00743949
-0.000416055
-0.000497267
-0.000293921
-0.000717819
-0.000975046
-0.000684185
-0.000835948
-0.00131934
-0.00191167
-0.00239702
-0.00232577
-0.00238882
-0.00323089
-0.00421021
-0.00484161
-0.00543684
-0.00615261
-0.00676798
-0.00716278
-0.00728915
-0.000414091
-0.000499904
-0.000328757
-0.000703338
-0.000988419
-0.00073258
-0.000850258
-0.00135821
-0.00196689
-0.00244642
-0.00244607
-0.0025154
-0.00324778
-0.00418877
-0.00484172
-0.00539525
-0.00604132
-0.0066344
-0.00703245
-0.00714732
-0.000412242
-0.000502012
-0.000360877
-0.000695697
-0.00100468
-0.000782146
-0.000868322
-0.00139352
-0.00202383
-0.00249631
-0.00254819
-0.00263092
-0.00327222
-0.00416208
-0.00482686
-0.00535168
-0.00593704
-0.00650061
-0.0068902
-0.00700323
-0.000410026
-0.00050424
-0.000390496
-0.000692871
-0.00102528
-0.000835017
-0.000889876
-0.00142353
-0.00207846
-0.00254796
-0.00263639
-0.0027322
-0.00329915
-0.00413155
-0.00480173
-0.0053066
-0.00583689
-0.00636805
-0.00674226
-0.00685015
-0.000407395
-0.000506419
-0.000417668
-0.000694654
-0.00105075
-0.000895869
-0.000917313
-0.00144715
-0.0021325
-0.00260066
-0.00271454
-0.00281879
-0.00332428
-0.00409811
-0.00476635
-0.00526192
-0.0057425
-0.00623606
-0.00659411
-0.00668955
-0.000403263
-0.000510238
-0.000444008
-0.000688851
-0.00107664
-0.000964671
-0.000952913
-0.00146425
-0.00217002
-0.00265062
-0.00278583
-0.00289137
-0.00334317
-0.00406155
-0.00471991
-0.00521391
-0.00565626
-0.00610641
-0.00644674
-0.00652771
-0.000396091
-0.000515237
-0.000474513
-0.000694828
-0.00110418
-0.00104385
-0.00100094
-0.00147467
-0.00219093
-0.0026944
-0.00285379
-0.00295448
-0.00335442
-0.00401821
-0.00466213
-0.00515754
-0.00557695
-0.00598293
-0.00629952
-0.00636908
-0.000391218
-0.000507679
-0.000499826
-0.000702107
-0.00112979
-0.00113467
-0.00107011
-0.00148368
-0.00219361
-0.00272851
-0.00291775
-0.00301465
-0.00335928
-0.00396686
-0.00459171
-0.00508985
-0.00549879
-0.00586979
-0.00615478
-0.00621381
-0.000386236
-0.000538224
-0.000531095
-0.000681994
-0.00113583
-0.00122989
-0.00115777
-0.00149249
-0.00217695
-0.00274691
-0.00297493
-0.0030734
-0.00336309
-0.00390788
-0.00450814
-0.00500793
-0.00541494
-0.00576435
-0.00601583
-0.00606041
-0.00037123
-0.000501079
-0.000572114
-0.000727927
-0.00116821
-0.0013267
-0.00125341
-0.00150019
-0.002141
-0.00274044
-0.00302318
-0.00313088
-0.00337137
-0.00384766
-0.00441333
-0.00491116
-0.00531966
-0.00565998
-0.00588586
-0.00591009
-0.000365583
-0.000527357
-0.000608121
-0.000745044
-0.00117448
-0.00140419
-0.00135929
-0.0015273
-0.00209751
-0.00271121
-0.00305069
-0.00318502
-0.00338672
-0.00379191
-0.00431156
-0.00480094
-0.00520919
-0.00554819
-0.00576281
-0.00576615
-0.000355595
-0.000501515
-0.000654768
-0.000786316
-0.00117675
-0.00146256
-0.00147362
-0.00157919
-0.0020568
-0.00265822
-0.00305306
-0.00322899
-0.00340789
-0.00374717
-0.00420984
-0.0046806
-0.00508604
-0.00542278
-0.00563871
-0.00563072
-0.000352112
-0.000521584
-0.000696453
-0.000831841
-0.00118121
-0.00150104
-0.00157922
-0.00165109
-0.00202805
-0.00258824
-0.00302702
-0.00325229
-0.00342848
-0.00371392
-0.00411461
-0.00455403
-0.00495244
-0.00528255
-0.00550343
-0.00549901
-0.000356476
-0.000504036
-0.000726763
-0.000879071
-0.00119354
-0.00152642
-0.00167053
-0.00173769
-0.00202001
-0.00251222
-0.00297191
-0.00324938
-0.00343967
-0.00368897
-0.00403283
-0.00442832
-0.00481242
-0.00513323
-0.00535256
-0.00536206
-0.00037313
-0.000536874
-0.000745622
-0.000913924
-0.00121198
-0.00153974
-0.00173922
-0.00182758
-0.00203507
-0.00244353
-0.00289436
-0.00321751
-0.00343452
-0.0036648
-0.00396304
-0.00430841
-0.0046679
-0.00497946
-0.0051892
-0.00521071
-0.00037622
-0.000517068
-0.000789093
-0.00098751
-0.00124267
-0.00154256
-0.00177888
-0.00190198
-0.00206643
-0.00239005
-0.00280216
-0.00315395
-0.00340748
-0.00363279
-0.00389832
-0.00419929
-0.00452366
-0.00482544
-0.00502237
-0.00504498
-0.000392751
-0.000549499
-0.000822428
-0.00103897
-0.00127729
-0.00154596
-0.00179917
-0.00195834
-0.00210567
-0.00235539
-0.00271003
-0.00306388
-0.00335327
-0.00358833
-0.00383164
-0.00409881
-0.00438272
-0.00466657
-0.00485508
-0.00487063
-0.000417173
-0.000560496
-0.000844895
-0.00108482
-0.00132096
-0.00155893
-0.00180977
-0.00199484
-0.00214019
-0.00233526
-0.00262628
-0.00295761
-0.00326908
-0.00352519
-0.00375829
-0.00400146
-0.00424981
-0.00450465
-0.00468602
-0.00469262
-0.000446548
-0.00059435
-0.000871908
-0.00112521
-0.00136543
-0.00157804
-0.00181338
-0.0020109
-0.00216292
-0.00232317
-0.00255206
-0.00284474
-0.00315783
-0.00343365
-0.00367069
-0.0038992
-0.00412201
-0.00434418
-0.0045137
-0.00451612
-0.00047856
-0.000620883
-0.000907
-0.00116954
-0.00141025
-0.00160157
-0.00181418
-0.00200983
-0.00216759
-0.00231045
-0.00248707
-0.00273112
-0.00302885
-0.00331424
-0.00355965
-0.00378205
-0.00398994
-0.00418594
-0.00433775
-0.00433822
-0.000517013
-0.000657403
-0.000944389
-0.00120912
-0.00145122
-0.00162917
-0.00181841
-0.00200027
-0.0021558
-0.00228868
-0.00242738
-0.00262037
-0.0028883
-0.00317017
-0.00341983
-0.00364095
-0.00384052
-0.00401957
-0.0041532
-0.00415175
-0.000567661
-0.000712659
-0.000984631
-0.0012387
-0.00148469
-0.00165763
-0.00182648
-0.00198823
-0.00213072
-0.00225048
-0.0023621
-0.00251093
-0.00273969
-0.00300625
-0.00325304
-0.0034745
-0.00366994
-0.00383661
-0.00395167
-0.00394363
-0.000619079
-0.000754331
-0.00103363
-0.00128789
-0.00152465
-0.00168624
-0.00183319
-0.00197416
-0.00210145
-0.00220121
-0.00228424
-0.00239131
-0.00257269
-0.00281374
-0.00305497
-0.00328034
-0.00348311
-0.00365123
-0.003762
-0.00375158
-0.000680609
-0.000814773
-0.00109073
-0.00133686
-0.00156298
-0.00171463
-0.00183733
-0.00195172
-0.00206739
-0.00215673
-0.00221177
-0.00227049
-0.00238638
-0.00256995
-0.0027723
-0.0029747
-0.00316836
-0.00334361
-0.00346561
-0.00347461
-0.000755396
-0.000887631
-0.00115184
-0.00137974
-0.00159397
-0.00174647
-0.00185786
-0.00193791
-0.00201887
-0.00209407
-0.00214601
-0.00218159
-0.00225186
-0.00238435
-0.00254653
-0.00271641
-0.00288133
-0.00301464
-0.00311092
-0.00311117
-0.000837858
-0.000966949
-0.0012253
-0.00143955
-0.00162883
-0.00176509
-0.00187805
-0.00195484
-0.00198966
-0.00198181
-0.0019564
-0.00192088
-0.00191818
-0.00199083
-0.00211166
-0.00226549
-0.00243656
-0.00260791
-0.00275576
-0.00283178
-0.000930765
-0.00106019
-0.00131487
-0.00151441
-0.0016768
-0.00177063
-0.00186396
-0.001997
-0.00215666
-0.00222227
-0.00213058
-0.0019385
-0.0017698
-0.00171946
-0.00170544
-0.00164185
-0.00152023
-0.00133343
-0.00110718
-0.000918337
-0.00103731
-0.00115787
-0.00139536
-0.00158049
-0.00173377
-0.00179568
-0.00180204
-0.00179074
-0.00177198
-0.00174775
-0.0017257
-0.00169257
-0.00162551
-0.00156258
-0.00151328
-0.00145056
-0.00135737
-0.00124094
-0.0011197
-0.00104847
-0.00122295
-0.00136062
-0.00150262
-0.00155452
-0.00159683
-0.00162299
-0.00167471
-0.00175914
-0.00186025
-0.00192199
-0.00191438
-0.00183012
-0.00169974
-0.00154279
-0.00135279
-0.00109797
-0.000810747
-0.000530992
-0.000293794
-0.000174416
-0.00123766
-0.00129945
-0.00146055
-0.00154727
-0.00160265
-0.00163627
-0.0016758
-0.00169924
-0.00167419
-0.0015775
-0.00148565
-0.00140531
-0.00133792
-0.00130081
-0.00132998
-0.00144812
-0.00162094
-0.00185349
-0.00211798
-0.0023414
-0.00141458
-0.00151925
-0.00159818
-0.00157225
-0.00154183
-0.00152091
-0.00155821
-0.00164115
-0.00171643
-0.00172016
-0.0016675
-0.00158828
-0.00146166
-0.00129767
-0.00111315
-0.000892392
-0.000635676
-0.000375883
-0.000167518
-8.48564e-05
-0.00149137
-0.00157391
-0.00161632
-0.0015367
-0.00147402
-0.00146164
-0.0015433
-0.00163197
-0.00165944
-0.00157669
-0.00143676
-0.00131121
-0.0011832
-0.00103296
-0.000890479
-0.000764769
-0.00064992
-0.000550823
-0.000510545
-0.000594972
-0.013087
-0.012968
-0.0159928
-0.0191159
-0.0189804
-0.0168945
-0.0145737
-0.012522
-0.0107795
-0.00940578
-0.00851995
-0.00798181
-0.00739396
-0.00654706
-0.00562201
-0.00487995
-0.00436364
-0.00394471
-0.00350502
-0.00300807
-0.00253666
-0.00220909
-0.00202024
-0.00181921
-0.00144652
-0.000893239
-0.000316106
0.000188439
0.000646015
0.00107216
0.00148881
0.0019389
0.00241014
0.00284068
0.00322387
0.00362596
0.00407523
0.00450275
0.00493818
0.00547729
0.00606373
0.00659856
0.00712139
0.00766679
0.0082044
0.00871957
0.00924728
0.00978518
0.0103335
0.010902
0.0114912
0.0120833
0.0126772
0.0132782
0.0138868
0.0144746
0.0150912
0.0157817
0.0164861
0.0171945
0.0179272
0.0186734
0.0193811
0.0200895
0.0208326
0.0216004
0.022361
0.0231504
0.0239384
0.0247484
0.0255959
0.0264757
0.0273843
0.0282635
0.0291211
0.0299899
0.0309112
0.0318859
0.0328543
0.0338469
0.034841
0.0358619
0.036882
0.0379274
0.0389881
0.0400711
0.0411848
0.0422889
0.0434508
0.0446266
0.0458481
0.0470695
0.0483433
0.0495853
0.0509451
0.0522855
0.0536895
0.055178
0.0564682
0.0580379
-0.0129756
-0.0129931
-0.0158777
-0.0189731
-0.0189059
-0.0168591
-0.0145521
-0.0125075
-0.0107689
-0.0093966
-0.00851137
-0.00797447
-0.00738811
-0.00654204
-0.00561713
-0.00487505
-0.00435892
-0.00394037
-0.00350111
-0.00300445
-0.00253315
-0.00220575
-0.00201728
-0.00181677
-0.00144446
-0.000891269
-0.000314133
0.000190286
0.00064771
0.0010737
0.00149017
0.00194012
0.00241131
0.00284182
0.0032249
0.00362685
0.00407607
0.00450356
0.00493885
0.00547789
0.00606436
0.00659918
0.00712193
0.00766732
0.00820493
0.00872007
0.00924774
0.00978564
0.010334
0.0109024
0.0114916
0.0120837
0.0126776
0.0132786
0.0138871
0.014475
0.0150915
0.015782
0.0164864
0.0171947
0.0179274
0.0186736
0.0193814
0.0200898
0.0208328
0.0216007
0.0223612
0.0231506
0.0239386
0.0247486
0.0255961
0.0264759
0.0273844
0.0282637
0.0291213
0.0299901
0.0309113
0.031886
0.0328544
0.033847
0.0348412
0.0358621
0.0368822
0.0379276
0.0389882
0.0400712
0.041185
0.042289
0.0434509
0.0446267
0.0458482
0.0470696
0.0483434
0.0495854
0.0509451
0.0522856
0.0536896
0.0551781
0.0564684
0.0580381
-0.0130198
-0.0131205
-0.0156798
-0.018689
-0.0187655
-0.0168066
-0.0145227
-0.0124854
-0.010753
-0.00938613
-0.00850387
-0.00796759
-0.00738123
-0.00653581
-0.00561212
-0.0048711
-0.00435537
-0.00393676
-0.00349748
-0.00300092
-0.00252979
-0.0022027
-0.00201471
-0.00181467
-0.00144263
-0.000889413
-0.000312255
0.000192025
0.00064931
0.00107516
0.00149143
0.00194125
0.00241242
0.00284288
0.00322584
0.00362765
0.00407685
0.00450426
0.00493939
0.00547841
0.00606497
0.00659974
0.00712242
0.0076678
0.0082054
0.0087205
0.00924815
0.00978603
0.0103343
0.0109027
0.011492
0.0120841
0.0126779
0.0132789
0.0138875
0.0144753
0.0150917
0.0157822
0.0164867
0.017195
0.0179277
0.0186739
0.0193817
0.02009
0.020833
0.0216009
0.0223614
0.0231508
0.0239388
0.0247488
0.0255963
0.0264761
0.0273846
0.0282639
0.0291214
0.0299902
0.0309114
0.0318861
0.0328545
0.0338471
0.0348413
0.0358622
0.0368823
0.0379277
0.0389883
0.0400713
0.0411851
0.0422891
0.043451
0.0446268
0.0458483
0.0470696
0.0483435
0.0495855
0.0509452
0.0522856
0.0536897
0.0551782
0.0564685
0.0580383
-0.0131172
-0.0132404
-0.0153987
-0.0182948
-0.0185557
-0.0167274
-0.0144785
-0.0124504
-0.0107269
-0.00937054
-0.00849514
-0.00795963
-0.00737164
-0.00652669
-0.0056059
-0.00486767
-0.00435279
-0.00393348
-0.00349342
-0.00299683
-0.00252623
-0.0021997
-0.00201203
-0.00181214
-0.00144022
-0.000887078
-0.000310067
0.000194015
0.000651206
0.00107694
0.00149298
0.00194261
0.0024137
0.00284412
0.00322696
0.00362861
0.00407774
0.00450504
0.00493999
0.00547901
0.00606566
0.00660037
0.00712296
0.00766833
0.00820591
0.00872095
0.00924857
0.00978644
0.0103347
0.0109031
0.0114923
0.0120845
0.0126783
0.0132793
0.0138878
0.0144756
0.015092
0.0157825
0.0164869
0.0171952
0.0179279
0.0186742
0.0193819
0.0200902
0.0208332
0.0216011
0.0223616
0.023151
0.023939
0.0247489
0.0255964
0.0264762
0.0273848
0.0282641
0.0291216
0.0299904
0.0309115
0.0318863
0.0328547
0.0338473
0.0348414
0.0358623
0.0368824
0.0379278
0.0389884
0.0400714
0.0411852
0.0422892
0.0434511
0.0446268
0.0458484
0.0470697
0.0483436
0.0495856
0.0509453
0.0522857
0.0536897
0.0551784
0.0564687
0.0580388
-0.0131887
-0.0133158
-0.0150849
-0.0178589
-0.018314
-0.0166367
-0.0144277
-0.0124064
-0.0106913
-0.00934865
-0.00848353
-0.00794917
-0.00735816
-0.00651377
-0.00559795
-0.00486459
-0.00435112
-0.00393029
-0.0034885
-0.00299187
-0.00252255
-0.00219708
-0.00200937
-0.00180884
-0.00143666
-0.000883793
-0.000307265
0.000196508
0.000653687
0.0010794
0.00149519
0.00194446
0.00241534
0.00284574
0.00322852
0.00362996
0.00407889
0.00450602
0.00494081
0.00547983
0.00606651
0.00660114
0.00712365
0.00766897
0.00820649
0.00872147
0.00924907
0.00978692
0.0103351
0.0109034
0.0114927
0.0120849
0.0126787
0.0132796
0.0138881
0.0144759
0.0150922
0.0157828
0.0164872
0.0171955
0.0179282
0.0186745
0.0193822
0.0200904
0.0208335
0.0216014
0.0223619
0.0231513
0.0239392
0.0247491
0.0255966
0.0264764
0.027385
0.0282643
0.0291218
0.0299905
0.0309117
0.0318864
0.0328548
0.0338474
0.0348415
0.0358624
0.0368825
0.0379279
0.0389885
0.0400715
0.0411853
0.0422893
0.0434512
0.0446269
0.0458485
0.0470698
0.0483437
0.0495856
0.0509454
0.0522858
0.0536897
0.0551785
0.0564688
0.0580394
-0.0132157
-0.0133839
-0.0147823
-0.0174055
-0.0180501
-0.0165394
-0.0143752
-0.0123579
-0.0106497
-0.00932183
-0.00846862
-0.00793552
-0.00734098
-0.00649784
-0.00558889
-0.00486199
-0.0043501
-0.00392676
-0.00348231
-0.00298584
-0.00251893
-0.00219531
-0.00200717
-0.00180492
-0.00143188
-0.00087943
-0.000303714
0.000199665
0.000656961
0.00108286
0.00149839
0.00194698
0.00241742
0.0028479
0.00323081
0.00363195
0.00408046
0.00450738
0.00494205
0.00548097
0.00606758
0.00660213
0.00712457
0.00766979
0.00820718
0.00872208
0.00924967
0.00978749
0.0103356
0.0109039
0.0114932
0.0120854
0.0126791
0.01328
0.0138885
0.0144763
0.0150925
0.0157831
0.0164875
0.0171958
0.0179285
0.0186748
0.0193825
0.0200907
0.0208337
0.0216016
0.0223621
0.0231515
0.0239395
0.0247493
0.0255968
0.0264766
0.0273853
0.0282646
0.029122
0.0299907
0.0309118
0.0318866
0.032855
0.0338476
0.0348417
0.0358626
0.0368827
0.037928
0.0389886
0.0400716
0.0411854
0.0422894
0.0434512
0.044627
0.0458486
0.0470699
0.0483438
0.0495857
0.0509454
0.0522859
0.0536897
0.0551786
0.0564691
0.0580403
-0.0132188
-0.0134703
-0.0144996
-0.0169324
-0.017759
-0.0164328
-0.0143215
-0.0123072
-0.0106043
-0.00929158
-0.008451
-0.00791928
-0.00732112
-0.00648001
-0.00557939
-0.00485998
-0.00434952
-0.00392264
-0.00347466
-0.0029786
-0.00251535
-0.00219458
-0.00200585
-0.00180087
-0.00142624
-0.000874212
-0.000299496
0.000203523
0.000661153
0.00108754
0.00150285
0.00195034
0.00241994
0.00285064
0.00323397
0.00363475
0.0040826
0.00450929
0.00494393
0.00548259
0.00606893
0.00660342
0.00712582
0.00767085
0.00820804
0.00872286
0.00925044
0.0097882
0.0103362
0.0109044
0.0114937
0.012086
0.0126797
0.0132805
0.0138889
0.0144767
0.0150929
0.0157834
0.0164879
0.0171962
0.0179289
0.0186752
0.0193828
0.020091
0.020834
0.0216019
0.0223624
0.0231518
0.0239397
0.0247495
0.025597
0.0264768
0.0273856
0.0282648
0.0291222
0.0299908
0.030912
0.0318868
0.0328552
0.0338478
0.0348419
0.0358627
0.0368828
0.0379281
0.0389888
0.0400717
0.0411855
0.0422895
0.0434514
0.0446271
0.0458487
0.04707
0.0483439
0.0495858
0.0509455
0.052286
0.0536897
0.0551787
0.0564693
0.0580414
-0.0132085
-0.0135646
-0.0142287
-0.0164365
-0.0174385
-0.0163167
-0.0142683
-0.0122564
-0.0105566
-0.00925846
-0.00843114
-0.00790124
-0.00729955
-0.00646088
-0.00556947
-0.00485825
-0.00434914
-0.00391799
-0.0034658
-0.00297033
-0.00251175
-0.00219486
-0.00200566
-0.00179721
-0.00142032
-0.00086858
-0.000294872
0.000207954
0.000666232
0.00109351
0.00150874
0.00195468
0.00242293
0.0028539
0.00323798
0.00363836
0.0040853
0.00451188
0.00494665
0.00548483
0.00607063
0.00660504
0.00712746
0.00767222
0.00820912
0.00872388
0.00925145
0.00978912
0.0103369
0.010905
0.0114944
0.0120868
0.0126805
0.013281
0.0138894
0.0144772
0.0150934
0.0157838
0.0164882
0.0171966
0.0179294
0.0186756
0.0193832
0.0200913
0.0208343
0.0216021
0.0223626
0.023152
0.02394
0.0247498
0.0255973
0.026477
0.0273859
0.0282652
0.0291224
0.029991
0.0309122
0.031887
0.0328554
0.033848
0.0348421
0.0358629
0.036883
0.0379283
0.0389889
0.0400718
0.0411857
0.0422896
0.0434515
0.0446272
0.0458488
0.0470701
0.048344
0.0495859
0.0509456
0.0522861
0.0536897
0.0551788
0.0564696
0.0580428
-0.0131746
-0.0136493
-0.0139713
-0.0159266
-0.0170914
-0.0161918
-0.0142169
-0.0122062
-0.0105065
-0.00922214
-0.00840903
-0.00788182
-0.00727671
-0.00644058
-0.00555887
-0.00485635
-0.00434876
-0.00391307
-0.00345628
-0.00296146
-0.00250826
-0.0021961
-0.00200672
-0.00179437
-0.00141464
-0.000862905
-0.000290082
0.000212763
0.000672012
0.00110061
0.00151597
0.00196007
0.00242647
0.00285761
0.00324265
0.00364255
0.0040884
0.00451506
0.00495027
0.00548783
0.00607275
0.00660704
0.00712947
0.00767385
0.00821042
0.00872518
0.0092528
0.00979031
0.0103378
0.0109057
0.0114952
0.0120878
0.0126815
0.0132818
0.01389
0.0144779
0.015094
0.0157842
0.0164886
0.017197
0.0179299
0.018676
0.0193836
0.0200917
0.0208346
0.0216025
0.0223629
0.0231523
0.0239402
0.02475
0.0255975
0.0264773
0.0273863
0.0282655
0.0291227
0.0299913
0.0309124
0.0318873
0.0328557
0.0338482
0.0348423
0.0358631
0.0368832
0.0379285
0.0389891
0.040072
0.0411858
0.0422897
0.0434516
0.0446274
0.0458489
0.0470702
0.0483441
0.049586
0.0509456
0.0522862
0.0536896
0.0551788
0.05647
0.0580446
-0.0131063
-0.0137162
-0.0137384
-0.0154145
-0.0167189
-0.0160549
-0.0141654
-0.012156
-0.0104537
-0.00918246
-0.00838467
-0.00786114
-0.0072527
-0.00641902
-0.00554732
-0.00485407
-0.00434838
-0.00390818
-0.00344658
-0.00295245