/*--------------------------------*- C++ -*----------------------------------*\
| =========                 |                                                 |
| \\      /  F ield         | OpenFOAM: The Open Source CFD Toolbox           |
|  \\    /   O peration     | Version:  v1906                                 |
|   \\  /    A nd           | Web:      www.OpenFOAM.com                      |
|    \\/     M anipulation  |                                                 |
\*---------------------------------------------------------------------------*/
FoamFile
{
    version     2.0;
    format      ascii;
    class       surfaceScalarField;
    location    "10.5";
    object      phi;
}
// * * * * * * * * * * * * * * * * * * * * * * * * * * * * * * * * * * * * * //

dimensions      [0 3 -1 0 0 0 0];
oriented        oriented;


internalField   nonuniform List<scalar> 
19000
(
1.14251e-06
-3.83836e-08
1.14787e-06
1.2406e-07
1.1648e-06
-3.54297e-07
1.17433e-06
-9.54716e-07
1.19531e-06
1.0969e-06
1.16491e-06
1.22607e-07
1.13922e-06
1.20575e-06
1.13609e-06
2.50413e-07
1.11618e-06
-4.13511e-07
1.0834e-06
-1.52179e-06
1.14649e-06
1.82858e-07
1.09443e-06
-1.97552e-06
1.17118e-06
1.12304e-07
1.13148e-06
-7.92608e-07
1.18683e-06
1.53023e-07
1.14576e-06
6.5355e-08
1.18093e-06
3.18319e-07
1.16746e-06
5.38597e-07
1.16703e-06
3.94609e-07
5.13199e-07
1.16559e-06
1.19868e-06
-1.28039e-08
1.20378e-06
1.18958e-07
1.22109e-06
-3.71604e-07
1.23143e-06
-9.65053e-07
1.24998e-06
1.07835e-06
1.22238e-06
1.50206e-07
1.19095e-06
1.23718e-06
1.19308e-06
2.48281e-07
1.17753e-06
-3.97955e-07
1.1455e-06
-1.48976e-06
1.19494e-06
1.33424e-07
1.14425e-06
-1.92484e-06
1.21259e-06
4.39727e-08
1.18446e-06
-7.64478e-07
1.22306e-06
1.14416e-07
1.21673e-06
7.16903e-08
1.21491e-06
3.20135e-07
1.25097e-06
5.02543e-07
1.20248e-06
4.43097e-07
4.67859e-07
1.24782e-06
1.25932e-06
1.0655e-08
1.26278e-06
1.15505e-07
1.28028e-06
-3.89105e-07
1.29013e-06
-9.74901e-07
1.30814e-06
1.06034e-06
1.28168e-06
1.76666e-07
1.25101e-06
1.26785e-06
1.25471e-06
2.44583e-07
1.24314e-06
-3.86387e-07
1.21242e-06
-1.45905e-06
1.25112e-06
9.47243e-08
1.20946e-06
-1.88318e-06
1.26378e-06
-1.03463e-08
1.25048e-06
-7.51175e-07
1.27201e-06
9.28814e-08
1.28481e-06
5.88894e-08
1.26845e-06
3.36495e-07
1.30244e-06
4.68557e-07
1.27446e-06
4.71076e-07
4.65774e-07
1.27655e-06
1.32444e-06
3.03195e-08
1.32545e-06
1.14489e-07
1.34192e-06
-4.05574e-07
1.35111e-06
-9.84089e-07
1.36897e-06
1.04248e-06
1.3441e-06
2.01536e-07
1.31775e-06
1.2942e-06
1.32151e-06
2.40829e-07
1.31155e-06
-3.76432e-07
1.28263e-06
-1.43012e-06
1.31037e-06
6.69851e-08
1.27896e-06
-1.85177e-06
1.32165e-06
-5.30358e-08
1.32222e-06
-7.51754e-07
1.33448e-06
8.06229e-08
1.35297e-06
4.04063e-08
1.34074e-06
3.48717e-07
1.35577e-06
4.53531e-07
1.35178e-06
4.75067e-07
4.76481e-07
1.34107e-06
1.39366e-06
4.50156e-08
1.39254e-06
1.15611e-07
1.40646e-06
-4.19497e-07
1.41404e-06
-9.91667e-07
1.43158e-06
1.02494e-06
1.40861e-06
2.24503e-07
1.38923e-06
1.31358e-06
1.39302e-06
2.37033e-07
1.38331e-06
-3.66716e-07
1.35517e-06
-1.40198e-06
1.3758e-06
4.63528e-08
1.35084e-06
-1.82682e-06
1.38466e-06
-8.68488e-08
1.39224e-06
-7.5934e-07
1.40531e-06
6.75562e-08
1.42117e-06
2.45489e-08
1.41992e-06
3.49965e-07
1.42341e-06
4.50037e-07
1.42846e-06
4.70019e-07
4.84714e-07
1.42023e-06
1.46612e-06
5.45668e-08
1.46424e-06
1.17499e-07
1.47434e-06
-4.29603e-07
1.47858e-06
-9.95902e-07
1.49476e-06
1.00876e-06
1.47425e-06
2.45015e-07
1.46393e-06
1.3239e-06
1.4685e-06
2.32463e-07
1.45827e-06
-3.56489e-07
1.43006e-06
-1.37377e-06
1.44657e-06
2.98424e-08
1.42277e-06
-1.80302e-06
1.4506e-06
-1.14679e-07
1.45934e-06
-7.6808e-07
1.47702e-06
4.98724e-08
1.4889e-06
1.26741e-08
1.49685e-06
3.42007e-07
1.49713e-06
4.49764e-07
1.50572e-06
4.6143e-07
4.89512e-07
1.50092e-06
1.54095e-06
5.98353e-08
1.53991e-06
1.18541e-07
1.54551e-06
-4.3521e-07
1.54465e-06
-9.95035e-07
1.5583e-06
9.95105e-07
1.54121e-06
2.62103e-07
1.54173e-06
1.32338e-06
1.54784e-06
2.26354e-07
1.53685e-06
-3.45496e-07
1.50804e-06
-1.34496e-06
1.52221e-06
1.56733e-08
1.49557e-06
-1.77638e-06
1.51931e-06
-1.38422e-07
1.5257e-06
-7.74474e-07
1.54741e-06
2.81694e-08
1.55621e-06
3.87116e-09
1.5709e-06
3.27317e-07
1.57125e-06
4.49409e-07
1.58331e-06
4.49373e-07
4.91122e-07
1.5817e-06
1.61779e-06
6.21781e-08
1.61851e-06
1.17815e-07
1.61945e-06
-4.36144e-07
1.61275e-06
-9.88343e-07
1.62354e-06
9.8432e-07
1.6111e-06
2.74547e-07
1.62352e-06
1.31095e-06
1.6312e-06
2.18676e-07
1.61912e-06
-3.33417e-07
1.58961e-06
-1.31545e-06
1.60211e-06
3.17413e-09
1.57026e-06
-1.74452e-06
1.59133e-06
-1.59494e-07
1.59367e-06
-7.7681e-07
1.61817e-06
3.67087e-09
1.62462e-06
-2.58278e-09
1.6447e-06
3.07235e-07
1.64624e-06
4.47874e-07
1.66194e-06
4.33668e-07
4.89095e-07
1.66397e-06
1.69698e-06
6.27745e-08
1.69945e-06
1.15345e-07
1.6957e-06
-4.32393e-07
1.68407e-06
-9.76714e-07
1.69303e-06
9.75361e-07
1.68618e-06
2.81394e-07
1.71021e-06
1.28692e-06
1.71851e-06
2.10378e-07
1.7049e-06
-3.19813e-07
1.67493e-06
-1.28548e-06
1.68597e-06
-7.87054e-09
1.64763e-06
-1.70618e-06
1.66709e-06
-1.78955e-07
1.66475e-06
-7.7447e-07
1.69168e-06
-2.32599e-08
1.69623e-06
-7.13611e-09
1.72095e-06
2.82515e-07
1.72437e-06
4.4446e-07
1.74325e-06
4.14788e-07
4.83141e-07
1.7492e-06
1.77919e-06
6.23084e-08
1.78283e-06
1.11702e-07
1.77443e-06
-4.23989e-07
1.75999e-06
-9.62274e-07
1.76922e-06
9.66127e-07
1.76809e-06
2.82523e-07
1.8018e-06
1.25322e-06
1.80917e-06
2.03008e-07
1.79372e-06
-3.04366e-07
1.76369e-06
-1.25545e-06
1.77354e-06
-1.77128e-08
1.72833e-06
-1.66098e-06
1.74697e-06
-1.97594e-07
1.73973e-06
-7.67221e-07
1.76938e-06
-5.29118e-08
1.77263e-06
-1.0386e-08
1.80149e-06
2.53651e-07
1.80735e-06
4.386e-07
1.82844e-06
3.93694e-07
4.73309e-07
1.83828e-06
1.86499e-06
6.10694e-08
1.8692e-06
1.07491e-07
1.85649e-06
-4.1128e-07
1.84151e-06
-9.47292e-07
1.85319e-06
9.54439e-07
1.85687e-06
2.78851e-07
1.89705e-06
1.21304e-06
1.90216e-06
1.97897e-07
1.88508e-06
-2.87288e-07
1.85534e-06
-1.22571e-06
1.86454e-06
-2.69154e-08
1.81316e-06
-1.60959e-06
1.83155e-06
-2.15987e-07
1.81901e-06
-7.54684e-07
1.85153e-06
-8.54242e-08
1.85418e-06
-1.30371e-08
1.88683e-06
2.20999e-07
1.8956e-06
4.29833e-07
1.91754e-06
3.71754e-07
4.59867e-07
1.93098e-06
1.95471e-06
5.92025e-08
1.95908e-06
1.03113e-07
1.94304e-06
-3.95232e-07
1.92884e-06
-9.33097e-07
1.94421e-06
9.39067e-07
1.95105e-06
2.72018e-07
1.99419e-06
1.16989e-06
1.99659e-06
1.95499e-07
1.97885e-06
-2.69548e-07
1.94928e-06
-1.19614e-06
1.95873e-06
-3.63653e-08
1.90279e-06
-1.55365e-06
1.92134e-06
-2.3454e-07
1.90295e-06
-7.36296e-07
1.93765e-06
-1.20125e-07
1.94004e-06
-1.54225e-08
1.97586e-06
1.85174e-07
1.98791e-06
4.17786e-07
2.00902e-06
3.50643e-07
4.43189e-07
2.0257e-06
2.04853e-06
5.68612e-08
2.05286e-06
9.87826e-08
2.03498e-06
-3.77353e-07
2.02158e-06
-9.19697e-07
2.04052e-06
9.20124e-07
2.04879e-06
2.63748e-07
2.09206e-06
1.12663e-06
2.09225e-06
1.95308e-07
2.07537e-06
-2.5267e-07
2.04531e-06
-1.16608e-06
2.05601e-06
-4.70669e-08
1.99742e-06
-1.49506e-06
2.01642e-06
-2.53535e-07
1.99186e-06
-7.1174e-07
2.02715e-06
-1.55415e-07
2.02884e-06
-1.71127e-08
2.06636e-06
1.47657e-07
2.08179e-06
4.02352e-07
2.10035e-06
3.32083e-07
4.2371e-07
2.11983e-06
2.14664e-06
5.42227e-08
2.15082e-06
9.45985e-08
2.13266e-06
-3.59186e-07
2.11918e-06
-9.06225e-07
2.14061e-06
8.98698e-07
2.14902e-06
2.5534e-07
2.19084e-06
1.08481e-06
2.1898e-06
1.96348e-07
2.17531e-06
-2.38184e-07
2.14382e-06
-1.13458e-06
2.15659e-06
-5.98372e-08
2.09676e-06
-1.43523e-06
2.11635e-06
-2.73119e-07
2.08602e-06
-6.81409e-07
2.11985e-06
-1.89245e-07
2.11986e-06
-1.71316e-08
2.15653e-06
1.10989e-07
2.17497e-06
3.83918e-07
2.18963e-06
3.17422e-07
4.02036e-07
2.2113e-06
2.24926e-06
5.14474e-08
2.25331e-06
9.05562e-08
2.23592e-06
-3.41798e-07
2.2214e-06
-8.91706e-07
2.24398e-06
8.76114e-07
2.25179e-06
2.4753e-07
2.29185e-06
1.04475e-06
2.29043e-06
1.97763e-07
2.27935e-06
-2.27095e-07
2.24564e-06
-1.10088e-06
2.26089e-06
-7.50839e-08
2.20044e-06
-1.37479e-06
2.22059e-06
-2.93265e-07
2.18561e-06
-6.46432e-07
2.21625e-06
-2.19888e-07
2.21373e-06
-1.46035e-08
2.24655e-06
7.81676e-08
2.26716e-06
3.63306e-07
2.27731e-06
3.07271e-07
3.7913e-07
2.30022e-06
2.35667e-06
4.86544e-08
2.36066e-06
8.65602e-08
2.34446e-06
-3.25595e-07
2.32833e-06
-8.75577e-07
2.35108e-06
8.53367e-07
2.35797e-06
2.40638e-07
2.39671e-06
1.00602e-06
2.39536e-06
1.99109e-07
2.38795e-06
-2.19682e-07
2.35176e-06
-1.06469e-06
2.36946e-06
-9.27797e-08
2.30844e-06
-1.31377e-06
2.32894e-06
-3.13765e-07
2.29082e-06
-6.08309e-07
2.31729e-06
-2.46364e-07
2.31205e-06
-9.363e-09
2.33854e-06
5.16786e-08
2.36047e-06
3.41375e-07
2.36631e-06
3.01439e-07
3.56279e-07
2.38916e-06
2.46913e-06
4.59223e-08
2.47322e-06
8.24657e-08
2.45811e-06
-3.10479e-07
2.4403e-06
-8.57767e-07
2.46273e-06
8.30938e-07
2.4686e-06
2.34763e-07
2.5067e-06
9.67913e-07
2.50549e-06
2.00321e-07
2.50147e-06
-2.1566e-07
2.46293e-06
-1.02615e-06
2.48274e-06
-1.12587e-07
2.4211e-06
-1.25214e-06
2.4416e-06
-3.34266e-07
2.40178e-06
-5.68483e-07
2.42382e-06
-2.68405e-07
2.4165e-06
-2.04352e-09
2.43532e-06
3.28618e-08
2.45802e-06
3.18676e-07
2.46027e-06
2.99182e-07
3.34744e-07
2.48181e-06
2.58692e-06
4.32984e-08
2.59125e-06
7.81307e-08
2.57688e-06
-2.96101e-07
2.55762e-06
-8.38511e-07
2.57967e-06
8.08883e-07
2.58453e-06
2.29906e-07
2.6226e-06
9.29842e-07
2.62138e-06
2.01548e-07
2.62019e-06
-2.14477e-07
2.57965e-06
-9.85606e-07
2.60106e-06
-1.34003e-07
2.53892e-06
-1.19e-06
2.55899e-06
-3.54335e-07
2.51862e-06
-5.28109e-07
2.53635e-06
-2.86138e-07
2.52812e-06
6.18401e-09
2.53907e-06
2.19171e-08
2.56226e-06
2.95483e-07
2.5621e-06
2.99336e-07
3.15579e-07
2.58127e-06
2.71032e-06
4.08098e-08
2.71501e-06
7.34428e-08
2.70096e-06
-2.82056e-07
2.68059e-06
-8.18144e-07
2.70245e-06
7.87023e-07
2.70634e-06
2.26018e-07
2.7448e-06
8.91384e-07
2.74334e-06
2.03004e-07
2.74441e-06
-2.15541e-07
2.70223e-06
-9.43428e-07
2.72468e-06
-1.5645e-07
2.66233e-06
-1.12765e-06
2.6815e-06
-3.73504e-07
2.64151e-06
-4.88118e-07
2.65509e-06
-2.99717e-07
2.6473e-06
1.3976e-08
2.65101e-06
1.82031e-08
2.67444e-06
2.72057e-07
2.67327e-06
3.00506e-07
2.99481e-07
2.68937e-06
2.83961e-06
3.84712e-08
2.84473e-06
6.83185e-08
2.83065e-06
-2.67978e-07
2.80949e-06
-7.96981e-07
2.83142e-06
7.65091e-07
2.8344e-06
2.23041e-07
2.87351e-06
8.52269e-07
2.87162e-06
2.04893e-07
2.8744e-06
-2.18316e-07
2.83095e-06
-8.99978e-07
2.85381e-06
-1.79316e-07
2.79171e-06
-1.06555e-06
2.80948e-06
-3.91272e-07
2.77064e-06
-4.49279e-07
2.78018e-06
-3.09256e-07
2.77399e-06
2.01641e-08
2.77161e-06
2.05812e-08
2.79485e-06
2.48821e-07
2.79405e-06
3.01299e-07
2.86754e-07
2.80678e-06
2.97507e-06
3.62927e-08
2.9807e-06
6.26947e-08
2.9663e-06
-2.5358e-07
2.94458e-06
-7.7526e-07
2.96685e-06
7.4282e-07
2.96896e-06
2.20936e-07
3.0089e-06
8.12329e-07
3.00642e-06
2.07368e-07
3.01044e-06
-2.22331e-07
2.96608e-06
-8.55622e-07
2.98873e-06
-2.01962e-07
2.9274e-06
-1.00422e-06
2.94324e-06
-4.07109e-07
2.90623e-06
-4.12274e-07
2.91177e-06
-3.14794e-07
2.90797e-06
2.39597e-08
2.9009e-06
2.76598e-08
2.92335e-06
2.26362e-07
2.92414e-06
3.00509e-07
2.77331e-07
2.93357e-06
3.11702e-06
3.42833e-08
3.12319e-06
5.65252e-08
3.10828e-06
-2.38673e-07
3.08615e-06
-7.53135e-07
3.10899e-06
7.19984e-07
3.11022e-06
2.19705e-07
3.15108e-06
7.71465e-07
3.14796e-06
2.10491e-07
3.15278e-06
-2.27152e-07
3.10792e-06
-8.10763e-07
3.12969e-06
-2.23733e-07
3.06975e-06
-9.44276e-07
3.08312e-06
-4.20476e-07
3.04853e-06
-3.77682e-07
3.05009e-06
-3.16358e-07
3.04905e-06
2.4998e-08
3.03874e-06
3.79742e-08
3.05975e-06
2.05351e-07
3.06302e-06
2.97236e-07
2.70821e-07
3.06953e-06
3.26574e-06
3.24544e-08
3.27248e-06
4.97815e-08
3.25698e-06
-2.23167e-07
3.23451e-06
-7.30674e-07
3.25809e-06
6.96404e-07
3.25841e-06
2.1939e-07
3.30025e-06
7.29629e-07
3.2965e-06
2.14232e-07
3.30171e-06
-2.3236e-07
3.25681e-06
-7.6586e-07
3.27704e-06
-2.43966e-07
3.21911e-06
-8.86339e-07
3.22951e-06
-4.30882e-07
3.19775e-06
-3.45923e-07
3.19543e-06
-3.14036e-07
3.19718e-06
2.3253e-08
3.18495e-06
5.01966e-08
3.20393e-06
1.86373e-07
3.2102e-06
2.90965e-07
2.66631e-07
3.21439e-06
3.42157e-06
3.08208e-08
3.42889e-06
4.24578e-08
3.41279e-06
-2.07072e-07
3.38999e-06
-7.07871e-07
3.41444e-06
6.7195e-07
3.41377e-06
2.20062e-07
3.45657e-06
6.86829e-07
3.45235e-06
2.18457e-07
3.45753e-06
-2.37543e-07
3.41309e-06
-7.21423e-07
3.43113e-06
-2.62e-07
3.37578e-06
-8.30986e-07
3.38286e-06
-4.37971e-07
3.35414e-06
-3.17202e-07
3.34816e-06
-3.08051e-07
3.35245e-06
1.89637e-08
3.33946e-06
6.31807e-08
3.35596e-06
1.69878e-07
3.36536e-06
2.81567e-07
2.64014e-07
3.36797e-06
3.58483e-06
2.94012e-08
3.59271e-06
3.4575e-08
3.57613e-06
-1.90489e-07
3.55292e-06
-6.84663e-07
3.57834e-06
6.46529e-07
3.57661e-06
2.21798e-07
3.6203e-06
6.43134e-07
3.61583e-06
2.22932e-07
3.62056e-06
-2.42275e-07
3.57715e-06
-6.78017e-07
3.59234e-06
-2.77192e-07
3.54004e-06
-7.78681e-07
3.54364e-06
-4.41567e-07
3.51794e-06
-2.9151e-07
3.50868e-06
-2.9879e-07
3.51505e-06
1.25982e-08
3.50231e-06
7.59237e-08
3.51596e-06
1.56227e-07
3.52833e-06
2.6919e-07
2.62149e-07
3.5302e-06
3.75589e-06
2.82165e-08
3.76428e-06
2.61837e-08
3.74739e-06
-1.73596e-07
3.72366e-06
-6.60938e-07
3.75012e-06
6.20076e-07
3.74727e-06
2.24646e-07
3.79171e-06
5.98694e-07
3.7873e-06
2.27338e-07
3.79115e-06
-2.46123e-07
3.74936e-06
-6.36229e-07
3.76113e-06
-2.88959e-07
3.71216e-06
-7.29708e-07
3.71229e-06
-4.41704e-07
3.68942e-06
-2.68637e-07
3.67739e-06
-2.86762e-07
3.68525e-06
4.73629e-09
3.67358e-06
8.76002e-08
3.68417e-06
1.45632e-07
3.69912e-06
2.54247e-07
2.60168e-07
3.7011e-06
3.93512e-06
2.72863e-08
3.94394e-06
1.73648e-08
3.92696e-06
-1.5662e-07
3.90257e-06
-6.3655e-07
3.93011e-06
5.92543e-07
3.92616e-06
2.28593e-07
3.9711e-06
5.53749e-07
3.96715e-06
2.31292e-07
3.96968e-06
-2.48652e-07
3.93008e-06
-5.96634e-07
3.93798e-06
-2.96858e-07
3.89236e-06
-6.84089e-07
3.88933e-06
-4.38669e-07
3.8689e-06
-2.48209e-07
3.85461e-06
-2.7247e-07
3.86341e-06
-4.06831e-09
3.85343e-06
9.75865e-08
3.86094e-06
1.38119e-07
3.87775e-06
2.37441e-07
2.57152e-07
3.88076e-06
4.12291e-06
2.66245e-08
4.13205e-06
8.22428e-09
4.11525e-06
-1.39814e-07
4.09003e-06
-6.11337e-07
4.11868e-06
5.63899e-07
4.11374e-06
2.33532e-07
4.15884e-06
5.08646e-07
4.15576e-06
2.34377e-07
4.15655e-06
-2.49442e-07
4.11966e-06
-5.59743e-07
4.12348e-06
-3.00682e-07
4.08096e-06
-6.41571e-07
4.07518e-06
-4.32884e-07
4.05676e-06
-2.29793e-07
4.04066e-06
-2.56374e-07
4.04989e-06
-1.32962e-08
4.04204e-06
1.05434e-07
4.04665e-06
1.3351e-07
4.06437e-06
2.19725e-07
2.52191e-07
4.06933e-06
4.31969e-06
2.62345e-08
4.32903e-06
-1.11255e-09
4.31265e-06
-1.23432e-07
4.28646e-06
-5.85146e-07
4.31621e-06
5.34144e-07
4.31049e-06
2.39254e-07
4.3553e-06
4.63834e-07
4.35349e-06
2.36184e-07
4.35217e-06
-2.48114e-07
4.31834e-06
-5.25914e-07
4.31817e-06
-3.00518e-07
4.2783e-06
-6.01694e-07
4.27024e-06
-4.24824e-07
4.25346e-06
-2.13011e-07
4.23589e-06
-2.3881e-07
4.24504e-06
-2.244e-08
4.23971e-06
1.10762e-07
4.24171e-06
1.31511e-07
4.2593e-06
2.02131e-07
2.44609e-07
4.26688e-06
4.5259e-06
2.61096e-08
4.53529e-06
-1.05082e-08
4.51958e-06
-1.07717e-07
4.49228e-06
-5.57847e-07
4.52311e-06
5.03319e-07
4.51688e-06
2.45484e-07
4.56089e-06
4.19821e-07
4.56074e-06
2.36329e-07
4.557e-06
-2.44367e-07
4.52637e-06
-4.95284e-07
4.52259e-06
-2.96742e-07
4.48478e-06
-5.63885e-07
4.4749e-06
-4.14938e-07
4.45948e-06
-1.97592e-07
4.44066e-06
-2.19996e-07
4.44932e-06
-3.10991e-08
4.44668e-06
1.13404e-07
4.44662e-06
1.31567e-07
4.46296e-06
1.85796e-07
2.34035e-07
4.47353e-06
4.74199e-06
2.62311e-08
4.7513e-06
-1.98147e-08
4.73647e-06
-9.28845e-08
4.70799e-06
-5.29368e-07
4.73978e-06
4.71524e-07
4.73338e-06
2.51887e-07
4.77604e-06
3.77156e-07
4.77789e-06
2.34484e-07
4.77156e-06
-2.38039e-07
4.74402e-06
-4.67747e-07
4.73723e-06
-2.89947e-07
4.70086e-06
-5.27517e-07
4.68956e-06
-4.03638e-07
4.67535e-06
-1.83375e-07
4.65548e-06
-2.00132e-07
4.66319e-06
-3.88101e-08
4.66331e-06
1.13288e-07
4.66191e-06
1.3297e-07
4.67608e-06
1.7162e-07
2.20707e-07
4.68941e-06
4.96846e-06
2.65703e-08
4.97752e-06
-2.88778e-08
4.96375e-06
-7.91173e-08
4.9341e-06
-4.99719e-07
4.96669e-06
4.38936e-07
4.96049e-06
2.58087e-07
5.00125e-06
3.36401e-07
5.00533e-06
2.30402e-07
4.99641e-06
-2.29115e-07
4.97166e-06
-4.43003e-07
4.96257e-06
-2.80851e-07
4.92709e-06
-4.92039e-07
4.91462e-06
-3.91168e-07
4.90162e-06
-1.70377e-07
4.8809e-06
-1.79414e-07
4.88721e-06
-4.51166e-08
4.89e-06
1.10496e-07
4.88808e-06
1.34885e-07
4.89949e-06
1.60211e-07
2.05466e-07
4.91473e-06
5.20579e-06
2.70932e-08
5.21446e-06
-3.7546e-08
5.20189e-06
-6.65481e-08
5.17117e-06
-4.68996e-07
5.20432e-06
4.05783e-07
5.1987e-06
2.63709e-07
5.23702e-06
2.98085e-07
5.2435e-06
2.23923e-07
5.23209e-06
-2.17714e-07
5.2097e-06
-4.20607e-07
5.19906e-06
-2.70216e-07
5.16404e-06
-4.57012e-07
5.15051e-06
-3.77641e-07
5.1388e-06
-1.5867e-07
5.11752e-06
-1.58133e-07
5.12198e-06
-4.95765e-08
5.12718e-06
1.05293e-07
5.12563e-06
1.36437e-07
5.13413e-06
1.51715e-07
1.8963e-07
5.14996e-06
5.45452e-06
2.77627e-08
5.46266e-06
-4.56838e-08
5.45135e-06
-5.52419e-08
5.41975e-06
-4.37391e-07
5.45319e-06
3.72342e-07
5.44849e-06
2.68404e-07
5.48391e-06
2.62665e-07
5.49284e-06
2.14998e-07
5.4792e-06
-2.04081e-07
5.45863e-06
-4.00033e-07
5.44717e-06
-2.58757e-07
5.41234e-06
-4.2218e-07
5.39774e-06
-3.63042e-07
5.38746e-06
-1.48386e-07
5.36601e-06
-1.36684e-07
5.36817e-06
-5.17362e-08
5.3754e-06
9.80591e-08
5.37488e-06
1.36958e-07
5.38084e-06
1.45757e-07
1.74591e-07
5.39588e-06
5.71518e-06
2.85407e-08
5.72268e-06
-5.31839e-08
5.71262e-06
-4.51833e-08
5.68042e-06
-4.05184e-07
5.71382e-06
3.38933e-07
5.71037e-06
2.71858e-07
5.74254e-06
2.30499e-07
5.75383e-06
2.03708e-07
5.73836e-06
-1.88611e-07
5.719e-06
-3.80682e-07
5.70735e-06
-2.47098e-07
5.67265e-06
-3.87483e-07
5.65686e-06
-3.47249e-07
5.64815e-06
-1.39681e-07
5.62696e-06
-1.15496e-07
5.62663e-06
-5.14008e-08
5.63521e-06
8.94752e-08
5.63619e-06
1.35983e-07
5.64033e-06
1.41615e-07
1.61451e-07
5.65347e-06
5.98834e-06
2.9389e-08
5.99513e-06
-5.99734e-08
5.98624e-06
-3.62918e-08
5.95377e-06
-3.7271e-07
5.98681e-06
3.05896e-07
5.98485e-06
2.73814e-07
6.01351e-06
2.01839e-07
6.02697e-06
1.90245e-07
6.01016e-06
-1.71795e-07
5.99142e-06
-3.61944e-07
5.98006e-06
-2.35743e-07
5.94563e-06
-3.53044e-07
5.92847e-06
-3.3009e-07
5.92132e-06
-1.32534e-07
5.90105e-06
-9.52224e-08
5.89803e-06
-4.83854e-08
5.9073e-06
8.02045e-08
5.90992e-06
1.33369e-07
5.91308e-06
1.38454e-07
1.50721e-07
5.92381e-06
6.27461e-06
3.02686e-08
6.28065e-06
-6.60133e-08
6.2728e-06
-2.84426e-08
6.24041e-06
-3.40319e-07
6.27274e-06
2.73565e-07
6.2725e-06
2.74058e-07
6.29746e-06
1.76874e-07
6.31284e-06
1.74868e-07
6.29523e-06
-1.54186e-07
6.27653e-06
-3.4325e-07
6.26583e-06
-2.2504e-07
6.23194e-06
-3.19156e-07
6.21318e-06
-3.11327e-07
6.2075e-06
-1.26858e-07
6.18869e-06
-7.64059e-08
6.18316e-06
-4.28541e-08
6.19239e-06
7.09708e-08
6.19656e-06
1.29194e-07
6.19947e-06
1.35546e-07
1.42272e-07
6.20792e-06
6.5746e-06
3.1138e-08
6.57987e-06
-7.12795e-08
6.57295e-06
-2.15282e-08
6.54093e-06
-3.08295e-07
6.57227e-06
2.42221e-07
6.57392e-06
2.72409e-07
6.59503e-06
1.55761e-07
6.61198e-06
1.5792e-07
6.59419e-06
-1.36398e-07
6.57506e-06
-3.24112e-07
6.56517e-06
-2.15151e-07
6.53225e-06
-2.8624e-07
6.51175e-06
-2.90831e-07
6.50721e-06
-1.22309e-07
6.49039e-06
-5.95898e-08
6.4827e-06
-3.51685e-08
6.49123e-06
6.24454e-08
6.49673e-06
1.23695e-07
6.49993e-06
1.3234e-07
1.35638e-07
6.50657e-06
6.88898e-06
3.19473e-08
6.89343e-06
-7.57261e-08
6.88742e-06
-1.55248e-08
6.85593e-06
-2.76798e-07
6.88605e-06
2.12098e-07
6.88979e-06
2.68668e-07
6.90699e-06
1.38565e-07
6.92499e-06
1.39917e-07
6.90767e-06
-1.19082e-07
6.88778e-06
-3.04219e-07
6.87859e-06
-2.05957e-07
6.84717e-06
-2.54819e-07
6.82499e-06
-2.68651e-07
6.82101e-06
-1.18333e-07
6.8066e-06
-4.51815e-08
6.79735e-06
-2.59156e-08
6.80457e-06
5.52215e-08
6.81117e-06
1.17099e-07
6.81485e-06
1.28659e-07
1.30121e-07
6.82037e-06
7.21845e-06
3.26322e-08
7.22198e-06
-7.92502e-08
7.21699e-06
-1.05345e-08
7.18604e-06
-2.45854e-07
7.21472e-06
1.83416e-07
7.22079e-06
2.62603e-07
7.23415e-06
1.25208e-07
7.25251e-06
1.21551e-07
7.2363e-06
-1.02866e-07
7.21546e-06
-2.83386e-07
7.20671e-06
-1.97204e-07
7.1773e-06
-2.25409e-07
7.15359e-06
-2.44939e-07
7.14964e-06
-1.14386e-07
7.13785e-06
-3.3391e-08
7.12767e-06
-1.57354e-08
7.13319e-06
4.97012e-08
7.1406e-06
1.09689e-07
7.14483e-06
1.24423e-07
1.2516e-07
7.14979e-06
7.56374e-06
3.31192e-08
7.56617e-06
-8.16832e-08
7.56243e-06
-6.789e-09
7.53196e-06
-2.15392e-07
7.55897e-06
1.56413e-07
7.56755e-06
2.54019e-07
7.57739e-06
1.1537e-07
7.5953e-06
1.03639e-07
7.58058e-06
-8.81406e-08
7.55891e-06
-2.61714e-07
7.55028e-06
-1.88582e-07
7.52312e-06
-1.98245e-07
7.4983e-06
-2.20117e-07
7.49372e-06
-1.09813e-07
7.48464e-06
-2.4306e-08
7.47429e-06
-5.38811e-09
7.4779e-06
4.60916e-08
7.48573e-06
1.01863e-07
7.49052e-06
1.1963e-07
1.20359e-07
7.49532e-06
7.9256e-06
3.33291e-08
7.92672e-06
-8.28002e-08
7.92451e-06
-4.57905e-09
7.89453e-06
-1.85416e-07
7.91945e-06
1.31499e-07
7.93069e-06
2.42772e-07
7.93751e-06
1.0855e-07
7.95414e-06
8.70125e-08
7.94118e-06
-7.51798e-08
7.91885e-06
-2.39385e-07
7.91001e-06
-1.79748e-07
7.8852e-06
-1.73434e-07
7.85975e-06
-1.94667e-07
7.85411e-06
-1.04173e-07
7.84751e-06
-1.77023e-08
7.83777e-06
4.35029e-09
7.83957e-06
4.42945e-08
7.84728e-06
9.41565e-08
7.85269e-06
1.14212e-07
1.15605e-07
7.85745e-06
8.30482e-06
3.31877e-08
8.3044e-06
-8.23786e-08
8.30398e-06
-4.15629e-09
8.27461e-06
-1.5605e-07
8.29698e-06
1.09127e-07
8.3108e-06
2.28959e-07
8.31529e-06
1.04062e-07
8.32989e-06
7.24102e-08
8.31874e-06
-6.4029e-08
8.29598e-06
-2.1663e-07
8.28657e-06
-1.70336e-07
8.26424e-06
-1.51099e-07
8.23862e-06
-1.6905e-07
8.23167e-06
-9.72275e-08
8.22718e-06
-1.32106e-08
8.21869e-06
1.28428e-08
8.219e-06
4.39882e-08
8.22614e-06
8.70161e-08
8.2321e-06
1.08253e-07
1.10856e-07
8.23684e-06
8.70219e-06
3.26559e-08
8.70014e-06
-8.03262e-08
8.7015e-06
-5.51276e-09
8.67317e-06
-1.2772e-07
8.69242e-06
8.98782e-08
8.70847e-06
2.12905e-07
8.71142e-06
1.01111e-07
8.72352e-06
6.03108e-08
8.71393e-06
-5.44423e-08
8.69094e-06
-1.93635e-07
8.68065e-06
-1.60046e-07
8.66085e-06
-1.31305e-07
8.63584e-06
-1.44036e-07
8.62738e-06
-8.87687e-08
8.62455e-06
-1.03795e-08
8.6177e-06
1.9696e-08
8.61698e-06
4.47013e-08
8.62326e-06
8.07423e-08
8.62951e-06
1.02e-07
1.05886e-07
8.63448e-06
9.11854e-06
3.17377e-08
9.11496e-06
-7.67525e-08
9.11765e-06
-8.19604e-09
9.0912e-06
-1.01274e-07
9.10661e-06
7.44687e-08
9.12437e-06
1.95146e-07
9.12657e-06
9.89149e-08
9.13597e-06
5.09086e-08
9.12749e-06
-4.59647e-08
9.10456e-06
-1.70706e-07
9.09321e-06
-1.48696e-07
9.07602e-06
-1.14111e-07
9.05237e-06
-1.2039e-07
9.04247e-06
-7.88702e-08
9.04059e-06
-8.49837e-09
9.03556e-06
2.47284e-08
9.03429e-06
4.59741e-08
9.03961e-06
7.54167e-08
9.04601e-06
9.56025e-08
1.00813e-07
9.05108e-06
9.55471e-06
3.04874e-08
9.54993e-06
-7.19713e-08
9.55319e-06
-1.14614e-08
9.52951e-06
-7.75896e-08
9.54068e-06
6.3299e-08
9.55901e-06
1.76819e-07
9.56127e-06
9.66466e-08
9.56813e-06
4.40488e-08
9.56032e-06
-3.81552e-08
9.53798e-06
-1.48365e-07
9.5256e-06
-1.36311e-07
9.51083e-06
-9.93444e-08
9.48922e-06
-9.87738e-08
9.47807e-06
-6.77286e-08
9.47645e-06
-6.87419e-09
9.47316e-06
2.80136e-08
9.47176e-06
4.73811e-08
9.47615e-06
7.10248e-08
9.48252e-06
8.92356e-08
9.56443e-08
9.48768e-06
1.00116e-05
2.9e-08
1.00061e-05
-6.64622e-08
1.00091e-05
-1.44135e-08
9.98885e-06
-5.73713e-08
9.996e-06
5.61436e-08
1.00135e-05
1.59287e-07
1.00161e-05
9.40511e-08
1.00209e-05
3.92547e-08
1.00138e-05
-3.10198e-08
9.99234e-06
-1.26919e-07
9.97909e-06
-1.23062e-07
9.96633e-06
-8.65797e-08
9.94709e-06
-7.95374e-08
9.93536e-06
-5.6e-08
9.93331e-06
-4.81883e-09
9.93145e-06
2.98773e-08
9.93039e-06
4.84368e-08
9.93383e-06
6.75889e-08
9.93988e-06
8.31818e-08
9.02892e-08
9.94523e-06
1.04902e-05
2.73959e-08
1.04845e-05
-6.07323e-08
1.04864e-05
-1.63243e-08
1.047e-05
-4.09181e-08
1.04741e-05
5.2015e-08
1.04899e-05
1.43494e-07
1.04925e-05
9.14236e-08
1.04956e-05
3.61831e-08
1.04891e-05
-2.45383e-08
1.04688e-05
-1.0658e-07
1.04549e-05
-1.09152e-07
1.04436e-05
-7.52989e-08
1.04269e-05
-6.28533e-08
1.04151e-05
-4.42315e-08
1.04124e-05
-2.11454e-09
1.04115e-05
3.08426e-08
1.0411e-05
4.8877e-08
1.04137e-05
6.48903e-08
1.04192e-05
7.77248e-08
8.46753e-08
1.04248e-05
1.09916e-05
2.57903e-08
1.09861e-05
-5.51713e-08
1.09866e-05
-1.68616e-08
1.09737e-05
-2.80335e-08
1.09761e-05
4.96122e-08
1.09896e-05
1.29995e-07
1.09922e-05
8.88598e-08
1.09935e-05
3.48373e-08
1.09873e-05
-1.83268e-08
1.09685e-05
-8.77548e-08
1.09541e-05
-9.47584e-08
1.09437e-05
-6.49133e-08
1.09296e-05
-4.87151e-08
1.09182e-05
-3.29039e-08
1.0915e-05
1.17815e-09
1.09144e-05
3.14241e-08
1.09145e-05
4.87427e-08
1.09169e-05
6.24798e-08
1.09217e-05
7.29683e-08
7.9125e-08
1.09272e-05
1.15169e-05
2.42766e-08
1.15117e-05
-5.00237e-08
1.1511e-05
-1.61292e-08
1.15008e-05
-1.78592e-08
1.15028e-05
4.76629e-08
1.15139e-05
1.1885e-07
1.15161e-05
8.6645e-08
1.15159e-05
3.5086e-08
1.15097e-05
-1.21712e-08
1.14926e-05
-7.06625e-08
1.14779e-05
-8.00354e-08
1.1468e-05
-5.5033e-08
1.1456e-05
-3.67263e-08
1.14456e-05
-2.24576e-08
1.14419e-05
4.86585e-09
1.14415e-05
3.18622e-08
1.1442e-05
4.8246e-08
1.14444e-05
6.00735e-08
1.14485e-05
6.88108e-08
7.39902e-08
1.14537e-05
1.20672e-05
2.29157e-08
1.20626e-05
-4.54229e-08
1.20609e-05
-1.4421e-08
1.20525e-05
-9.46783e-09
1.20547e-05
4.54908e-08
1.2064e-05
1.09455e-07
1.20654e-05
8.5271e-08
1.20638e-05
3.67209e-08
1.20577e-05
-6.04197e-09
1.20422e-05
-5.51855e-08
1.20276e-05
-6.54396e-08
1.20177e-05
-4.51546e-08
1.20075e-05
-2.65566e-08
1.19982e-05
-1.31267e-08
1.19944e-05
8.70478e-09
1.1994e-05
3.22734e-08
1.19947e-05
4.74978e-08
1.19971e-05
5.77108e-08
1.20009e-05
6.49446e-08
6.9393e-08
1.20055e-05
1.26438e-05
2.17398e-08
1.26398e-05
-4.14153e-08
1.26374e-05
-1.2104e-08
1.263e-05
-2.06293e-09
1.26325e-05
4.30309e-08
1.26411e-05
1.0089e-07
1.26414e-05
8.49783e-08
1.26384e-05
3.97211e-08
1.26322e-05
1.4274e-10
1.26183e-05
-4.13001e-08
1.26043e-05
-5.14165e-08
1.25941e-05
-3.50259e-08
1.25853e-05
-1.77342e-08
1.25771e-05
-4.91906e-09
1.25733e-05
1.24696e-08
1.2573e-05
3.26011e-08
1.2574e-05
4.65347e-08
1.25761e-05
5.5539e-08
1.258e-05
6.11253e-08
6.52239e-08
1.25841e-05
1.32479e-05
2.07248e-08
1.32444e-05
-3.78663e-08
1.32421e-05
-9.81368e-09
1.32348e-05
5.22784e-09
1.32375e-05
4.03871e-08
1.32458e-05
9.25192e-08
1.32453e-05
8.55031e-08
1.32407e-05
4.43446e-08
1.32343e-05
6.52025e-09
1.3222e-05
-2.90367e-08
1.32089e-05
-3.8301e-08
1.31988e-05
-2.49429e-08
1.31908e-05
-9.64876e-09
1.31837e-05
2.14868e-09
1.31801e-05
1.60522e-08
1.31798e-05
3.29313e-08
1.3181e-05
4.52658e-08
1.3183e-05
5.35647e-08
1.31867e-05
5.74834e-08
6.11849e-08
1.31907e-05
1.38811e-05
1.98267e-08
1.3878e-05
-3.47703e-08
1.38759e-05
-7.75005e-09
1.38682e-05
1.291e-08
1.38705e-05
3.80768e-08
1.38794e-05
8.36895e-08
1.38785e-05
8.64135e-08
1.38722e-05
5.05632e-08
1.38654e-05
1.33899e-08
1.38545e-05
-1.82038e-08
1.38427e-05
-2.65149e-08
1.3833e-05
-1.51923e-08
1.38254e-05
-2.04723e-09
1.38192e-05
8.36997e-09
1.38159e-05
1.92974e-08
1.38156e-05
3.32462e-08
1.38171e-05
4.37409e-08
1.38192e-05
5.15157e-08
1.38224e-05
5.42205e-08
5.71295e-08
1.38265e-05
1.45446e-05
1.88617e-08
1.45417e-05
-3.18782e-08
1.45389e-05
-4.88288e-09
1.45315e-05
2.03246e-08
1.45333e-05
3.62558e-08
1.45424e-05
7.45997e-08
1.45415e-05
8.72795e-08
1.45342e-05
5.79138e-08
1.45267e-05
2.07989e-08
1.45172e-05
-8.6174e-09
1.45069e-05
-1.62747e-08
1.44979e-05
-6.18865e-09
1.44908e-05
5.07849e-09
1.44851e-05
1.40717e-08
1.44822e-05
2.21522e-08
1.44818e-05
3.36659e-08
1.44835e-05
4.20317e-08
1.44858e-05
4.92831e-08
1.44887e-05
5.12301e-08
5.32575e-08
1.44926e-05
1.52395e-05
1.82712e-08
1.52311e-05
-2.35404e-08
1.52301e-05
-3.83926e-09
1.52262e-05
2.42266e-08
1.52281e-05
3.43191e-08
1.52357e-05
6.70527e-08
1.52353e-05
8.76756e-08
1.5228e-05
6.52223e-08
1.522e-05
2.87278e-08
1.52113e-05
1.37607e-10
1.52026e-05
-7.62158e-09
1.51948e-05
1.68066e-09
1.51882e-05
1.15958e-08
1.5183e-05
1.93053e-08
1.51804e-05
2.48019e-08
1.51801e-05
3.39502e-08
1.51817e-05
4.03886e-08
1.51843e-05
4.66983e-08
1.51872e-05
4.83843e-08
4.9706e-08
1.51907e-05
1.59693e-05
1.62956e-08
1.59748e-05
-2.90765e-08
1.5979e-05
-7.95791e-09
1.59673e-05
3.59042e-08
1.59569e-05
4.47e-08
1.59587e-05
6.52126e-08
1.59611e-05
8.53402e-08
1.59553e-05
7.09592e-08
1.59473e-05
3.67761e-08
1.59388e-05
8.59119e-09
1.59315e-05
-2.63069e-10
1.59249e-05
8.23733e-09
1.59193e-05
1.71808e-08
1.59145e-05
2.41e-08
1.5912e-05
2.73801e-08
1.59117e-05
3.41866e-08
1.59132e-05
3.89081e-08
1.59159e-05
4.3987e-08
1.59189e-05
4.53679e-08
4.64551e-08
1.59222e-05
1.6731e-05
1.59053e-08
1.67179e-05
-1.59719e-08
1.67166e-05
-6.69977e-09
1.6715e-05
3.75288e-08
1.67119e-05
4.77585e-08
1.67178e-05
5.93732e-08
1.67226e-05
8.04866e-08
1.67181e-05
7.54636e-08
1.67098e-05
4.50627e-08
1.67014e-05
1.70276e-08
1.66948e-05
6.39851e-09
1.66896e-05
1.33662e-08
1.66852e-05
2.15824e-08
1.66812e-05
2.81433e-08
1.66788e-05
2.97626e-08
1.66785e-05
3.44428e-08
1.668e-05
3.73971e-08
1.66825e-05
4.15026e-08
1.66859e-05
4.20024e-08
4.33643e-08
1.6689e-05
1.75323e-05
1.39949e-08
1.75312e-05
-1.48939e-08
1.75255e-05
-1.01319e-09
1.75162e-05
4.68212e-08
1.75094e-05
5.45241e-08
1.75126e-05
5.62121e-08
1.75197e-05
7.33963e-08
1.75178e-05
7.73617e-08
1.75098e-05
5.30703e-08
1.75011e-05
2.57027e-08
1.74948e-05
1.26698e-08
1.74907e-05
1.75519e-08
1.74875e-05
2.47052e-08
1.74844e-05
3.12629e-08
1.74823e-05
3.18514e-08
1.74819e-05
3.48311e-08
1.74834e-05
3.59244e-08
1.74857e-05
3.9218e-08
1.74891e-05
3.86367e-08
4.01229e-08
1.74923e-05
1.83689e-05
1.34757e-08
1.8358e-05
-4.00328e-09
1.83546e-05
2.31173e-09
1.83537e-05
4.77722e-08
1.83485e-05
5.97699e-08
1.83482e-05
5.64987e-08
1.83546e-05
6.69142e-08
1.83552e-05
7.67779e-08
1.83484e-05
5.986e-08
1.83396e-05
3.45594e-08
1.83333e-05
1.89839e-08
1.83297e-05
2.11021e-08
1.83278e-05
2.66552e-08
1.83258e-05
3.32187e-08
1.83244e-05
3.32682e-08
1.8324e-05
3.52105e-08
1.83255e-05
3.44912e-08
1.83276e-05
3.70561e-08
1.83307e-05
3.55401e-08
3.6622e-08
1.83342e-05
1.9248e-05
1.19048e-08
1.92394e-05
4.58897e-09