/*--------------------------------*- C++ -*----------------------------------*\
| =========                 |                                                 |
| \\      /  F ield         | OpenFOAM: The Open Source CFD Toolbox           |
|  \\    /   O peration     | Version:  v1906                                 |
|   \\  /    A nd           | Web:      www.OpenFOAM.com                      |
|    \\/     M anipulation  |                                                 |
\*---------------------------------------------------------------------------*/
FoamFile
{
    version     2.0;
    format      ascii;
    class       volVectorField;
    location    "10.5";
    object      U;
}
// * * * * * * * * * * * * * * * * * * * * * * * * * * * * * * * * * * * * * //

dimensions      [0 1 -1 0 0 0 0];


internalField   nonuniform List<vector> 
9600
(
(0.958571 -0.000581764 0)
(0.995179 0.00139541 0)
(0.971323 -0.00407611 0)
(1.01885 -0.0122813 0)
(0.995507 0.0157695 0)
(1.04549 0.00153939 0)
(0.95684 0.0199049 0)
(0.985184 0.00452935 0)
(0.963486 -0.00847546 0)
(0.946279 -0.033374 0)
(0.914356 0.00547423 0)
(1.03719 -0.0514356 0)
(0.852153 0.00457649 0)
(1.13273 -0.0247447 0)
(0.824846 0.0061576 0)
(1.18146 0.00122291 0)
(0.804574 0.0127114 0)
(1.18569 0.0230589 0)
(0.831752 0.0174207 0)
(1.14628 0.0264382 0)
(0.963398 -0.000253417 0)
(0.993304 0.00132965 0)
(0.974489 -0.00430906 0)
(1.01728 -0.0124206 0)
(0.996944 0.0153504 0)
(1.04195 0.00206734 0)
(0.960706 0.0203299 0)
(0.979588 0.00449867 0)
(0.972869 -0.00801953 0)
(0.94992 -0.0323044 0)
(0.927009 0.0034893 0)
(1.01487 -0.0495661 0)
(0.867803 0.00238395 0)
(1.09764 -0.0233486 0)
(0.849587 0.00454693 0)
(1.13834 0.00265212 0)
(0.858353 0.0128165 0)
(1.11524 0.021837 0)
(0.936124 0.0198167 0)
(1.02431 0.0240389 0)
(0.971915 4.17742e-06 0)
(0.990477 0.00127433 0)
(0.979266 -0.00453505 0)
(1.01406 -0.0125745 0)
(0.999773 0.0150153 0)
(1.03685 0.00253022 0)
(0.966889 0.0209046 0)
(0.978249 0.00447676 0)
(0.981255 -0.00773347 0)
(0.955988 -0.0317795 0)
(0.939897 0.00258523 0)
(1.00114 -0.0485523 0)
(0.896803 0.000295602 0)
(1.06013 -0.0228335 0)
(0.898949 0.00318395 0)
(1.07776 0.00248346 0)
(0.929973 0.0128416 0)
(1.04142 0.0202498 0)
(0.992921 0.0216386 0)
(0.992706 0.0229789 0)
(0.981921 0.000220034 0)
(0.9883 0.00124707 0)
(0.984574 -0.00474315 0)
(1.00976 -0.0127128 0)
(1.00286 0.0148097 0)
(1.03146 0.00292334 0)
(0.973695 0.0214178 0)
(0.981565 0.0044147 0)
(0.98825 -0.00754144 0)
(0.962204 -0.0311139 0)
(0.951959 0.00181093 0)
(0.98875 -0.0476971 0)
(0.925559 -0.00102147 0)
(1.02927 -0.0227869 0)
(0.94533 0.0027009 0)
(1.03641 0.00173433 0)
(0.978746 0.0132373 0)
(1.01205 0.0194709 0)
(1.00843 0.0218998 0)
(1.00097 0.0235013 0)
(0.990986 0.000392915 0)
(0.988022 0.00125285 0)
(0.989903 -0.00492746 0)
(1.00533 -0.0128255 0)
(1.00477 0.014582 0)
(1.02569 0.0032839 0)
(0.979555 0.0218171 0)
(0.987388 0.00435384 0)
(0.994579 -0.00734835 0)
(0.968529 -0.0304974 0)
(0.96173 0.00126084 0)
(0.983046 -0.0470107 0)
(0.946177 -0.00201107 0)
(1.00922 -0.0229524 0)
(0.974077 0.00250002 0)
(1.01836 0.00101789 0)
(1.00138 0.0137474 0)
(1.01067 0.0192145 0)
(1.01467 0.0217142 0)
(1.01106 0.0243546 0)
(0.997482 0.000513479 0)
(0.989661 0.0012756 0)
(0.995075 -0.00506937 0)
(1.00138 -0.012902 0)
(1.00455 0.0143307 0)
(1.01891 0.00361478 0)
(0.983804 0.0220784 0)
(0.993922 0.00428528 0)
(1.00045 -0.00715141 0)
(0.974417 -0.0298948 0)
(0.969766 0.000855127 0)
(0.981636 -0.0463675 0)
(0.957781 -0.00285517 0)
(0.997302 -0.023168 0)
(0.986868 0.00202537 0)
(1.01118 0.00058141 0)
(1.00902 0.01374 0)
(1.01433 0.0190777 0)
(1.01961 0.0215175 0)
(1.01791 0.0247852 0)
(1.00109 0.000584665 0)
(0.992233 0.00129605 0)
(0.99975 -0.00515922 0)
(0.997896 -0.0129165 0)
(1.00213 0.0141141 0)
(1.01113 0.00390604 0)
(0.986825 0.0221714 0)
(1.00051 0.00419157 0)
(1.00607 -0.00694208 0)
(0.980028 -0.029281 0)
(0.976851 0.000517551 0)
(0.982658 -0.0456919 0)
(0.963529 -0.00354528 0)
(0.990273 -0.0233731 0)
(0.990288 0.00134562 0)
(1.00643 0.000292383 0)
(1.0099 0.0131592 0)
(1.0156 0.0190603 0)
(1.02237 0.0210752 0)
(1.02237 0.024816 0)
(1.00249 0.000619092 0)
(0.994719 0.00129951 0)
(1.00337 -0.005195 0)
(0.994595 -0.0128544 0)
(0.998481 0.0139498 0)
(1.00336 0.00413619 0)
(0.989731 0.02207 0)
(1.00708 0.00406473 0)
(1.01144 -0.00671308 0)
(0.985274 -0.0286524 0)
(0.983571 0.00021368 0)
(0.984437 -0.0449243 0)
(0.966411 -0.004155 0)
(0.985936 -0.0234998 0)
(0.989564 0.000589533 0)
(1.00199 2.29939e-05 0)
(1.00807 0.0123811 0)
(1.01493 0.0190912 0)
(1.02334 0.0203536 0)
(1.0253 0.0247293 0)
(1.00265 0.000631197 0)
(0.99669 0.00128105 0)
(1.00558 -0.00517731 0)
(0.991229 -0.0127233 0)
(0.995132 0.0138234 0)
(0.997068 0.00428514 0)
(0.993583 0.0217647 0)
(1.01347 0.00391527 0)
(1.01643 -0.00645807 0)
(0.98992 -0.0280093 0)
(0.990145 -6.01776e-05 0)
(0.986143 -0.0440232 0)
(0.968149 -0.0047081 0)
(0.983031 -0.0234939 0)
(0.987622 -0.000261995 0)
(0.998223 -0.000185287 0)
(1.0057 0.011516 0)
(1.01386 0.0190199 0)
(1.02387 0.0194834 0)
(1.02758 0.0245622 0)
(1.0023 0.000630591 0)
(0.998204 0.0012454 0)
(1.00648 -0.00510549 0)
(0.987879 -0.0125478 0)
(0.993347 0.0137092 0)
(0.993404 0.00434438 0)
(0.998615 0.0212718 0)
(1.01915 0.00376853 0)
(1.02069 -0.00616938 0)
(0.993632 -0.0273617 0)
(0.996417 -0.000310435 0)
(0.98746 -0.0429634 0)
(0.969692 -0.00522265 0)
(0.980896 -0.0233543 0)
(0.985704 -0.00121235 0)
(0.995487 -0.000306192 0)
(1.00395 0.0104622 0)
(1.01335 0.0188294 0)
(1.02477 0.01853 0)
(1.02983 0.0241919 0)
(1.00185 0.000621453 0)
(0.999407 0.0012006 0)
(1.00653 -0.00497951 0)
(0.985 -0.0123581 0)
(0.993373 0.0135712 0)
(0.992566 0.00432232 0)
(1.00401 0.0206365 0)
(1.0233 0.00365362 0)
(1.02386 -0.00584512 0)
(0.99624 -0.0267196 0)
(1.00186 -0.000536889 0)
(0.988468 -0.0417393 0)
(0.971645 -0.00572726 0)
(0.979335 -0.0230654 0)
(0.984127 -0.00225774 0)
(0.993544 -0.000407512 0)
(1.00297 0.00921046 0)
(1.01355 0.0185361 0)
(1.02599 0.0175179 0)
(1.03191 0.0235722 0)
(1.00148 0.000605562 0)
(1.00032 0.00115234 0)
(1.00617 -0.00480602 0)
(0.983185 -0.0121747 0)
(0.994417 0.0133809 0)
(0.993804 0.00423794 0)
(1.00843 0.0199199 0)
(1.02532 0.00358479 0)
(1.0257 -0.00549833 0)
(0.997887 -0.0260834 0)
(1.00577 -0.000753165 0)
(0.989486 -0.0403724 0)
(0.974158 -0.00624114 0)
(0.97845 -0.0225953 0)
(0.982801 -0.00339999 0)
(0.99178 -0.000508012 0)
(1.00204 0.00781843 0)
(1.01374 0.018109 0)
(1.02664 0.0165103 0)
(1.03297 0.0227428 0)
(1.00127 0.000584058 0)
(1.00091 0.00110396 0)
(1.0057 -0.00459996 0)
(0.982771 -0.0120017 0)
(0.995341 0.0131312 0)
(0.995932 0.00411708 0)
(1.0109 0.0191808 0)
(1.02522 0.00355943 0)
(1.02624 -0.00515382 0)
(0.99896 -0.0254447 0)
(1.0077 -0.000980927 0)
(0.990834 -0.0389027 0)
(0.976826 -0.00677376 0)
(0.978388 -0.0219283 0)
(0.981558 -0.00457051 0)
(0.989629 -0.000575775 0)
(1.00016 0.00634547 0)
(1.01264 0.01752 0)
(1.02546 0.0155953 0)
(1.03174 0.0217504 0)
(1.00118 0.000558417 0)
(1.00118 0.00105745 0)
(1.00523 -0.00438154 0)
(0.983607 -0.0118303 0)
(0.995462 0.0128351 0)
(0.997926 0.00398437 0)
(1.01131 0.018461 0)
(1.02355 0.00356405 0)
(1.02578 -0.00484174 0)
(0.999827 -0.0247842 0)
(1.00777 -0.00124486 0)
(0.992585 -0.0373769 0)
(0.979018 -0.00732451 0)
(0.979072 -0.0210615 0)
(0.980375 -0.00573087 0)
(0.986897 -0.000603235 0)
(0.996802 0.00487015 0)
(1.00928 0.0167702 0)
(1.02157 0.0148511 0)
(1.02745 0.0206457 0)
(1.00118 0.000530693 0)
(1.00123 0.00101313 0)
(1.00483 -0.00416822 0)
(0.985172 -0.01165 0)
(0.994806 0.0125149 0)
(0.999263 0.00385519 0)
(1.0103 0.0177747 0)
(1.02114 0.00358218 0)
(1.02471 -0.0045885 0)
(1.00065 -0.0240809 0)
(1.00662 -0.00156566 0)
(0.994519 -0.0358282 0)
(0.980399 -0.00788917 0)
(0.980157 -0.0200352 0)
(0.979421 -0.0068218 0)
(0.983819 -0.000577683 0)
(0.992386 0.00350107 0)
(1.00375 0.0158938 0)
(1.0152 0.0143241 0)
(1.02047 0.0194881 0)
(1.0012 0.000502417 0)
(1.00116 0.000969798 0)
(1.0045 -0.00396853 0)
(0.986909 -0.0114516 0)
(0.993803 0.0121885 0)
(0.999899 0.00373971 0)
(1.00869 0.0171182 0)
(1.01867 0.00360283 0)
(1.02342 -0.00440618 0)
(1.00139 -0.0233249 0)
(1.00505 -0.00195039 0)
(0.9963 -0.0342701 0)
(0.981111 -0.00846023 0)
(0.981237 -0.0189121 0)
(0.978905 -0.00774872 0)
(0.980847 -0.000429002 0)
(0.987858 0.00235849 0)
(0.997197 0.0149379 0)
(1.00758 0.0140145 0)
(1.01221 0.018327 0)
(1.00122 0.000474498 0)
(1.00104 0.000925917 0)
(1.00426 -0.00378325 0)
(0.988456 -0.0112317 0)
(0.992865 0.0118675 0)
(1.00005 0.00364042 0)
(1.00707 0.0164795 0)
(1.0165 0.00362458 0)
(1.02213 -0.00429453 0)
(1.00198 -0.0225139 0)
(1.0036 -0.00239808 0)
(0.997694 -0.0326978 0)
(0.981522 -0.00903668 0)
(0.982062 -0.0177153 0)
(0.978899 -0.00854694 0)
(0.978377 -0.00017266 0)
(0.984035 0.00150611 0)
(0.991027 0.0139371 0)
(1.00021 0.0138925 0)
(1.00429 0.0172199 0)
(1.0012 0.000447456 0)
(1.00093 0.000880296 0)
(1.00408 -0.00360939 0)
(0.989684 -0.0109913 0)
(0.992189 0.0115553 0)
(0.999969 0.0035578 0)
(1.00573 0.0158469 0)
(1.01474 0.00364471 0)
(1.02095 -0.00424486 0)
(1.00237 -0.0216564 0)
(1.00245 -0.00289439 0)
(0.99864 -0.0311113 0)
(0.981918 -0.00960616 0)
(0.982581 -0.0164939 0)
(0.979301 -0.00920509 0)
(0.976603 0.000126565 0)
(0.98126 0.000962127 0)
(0.986163 0.0129265 0)
(0.994096 0.0138995 0)
(0.997801 0.0162137 0)
(1.00117 0.000421561 0)
(1.00084 0.000831473 0)
(1.00391 -0.00344134 0)
(0.990607 -0.0107343 0)
(0.991796 0.0112473 0)
(0.999831 0.00349258 0)
(1.00475 0.0152115 0)
(1.01335 0.00366727 0)
(1.01989 -0.00424776 0)
(1.00259 -0.0207607 0)
(1.00161 -0.00342043 0)
(0.999195 -0.0295175 0)
(0.9824 -0.0101545 0)
(0.98287 -0.0152847 0)
(0.979949 -0.00970952 0)
(0.975522 0.000412901 0)
(0.979484 0.000710795 0)
(0.982864 0.0119243 0)
(0.989596 0.0139652 0)
(0.993073 0.0153415 0)
(1.00111 0.000397208 0)
(1.00077 0.000777105 0)
(1.00373 -0.00327396 0)
(0.99129 -0.0104652 0)
(0.991629 0.010941 0)
(0.999719 0.00343999 0)
(1.00408 0.0145635 0)
(1.01227 0.00370195 0)
(1.01895 -0.00429053 0)
(1.00272 -0.0198344 0)
(1.00097 -0.00396209 0)
(0.999458 -0.027925 0)
(0.982955 -0.0106704 0)
(0.983024 -0.0140979 0)
(0.980703 -0.0100895 0)
(0.97503 0.000636024 0)
(0.978495 0.000722228 0)
(0.980956 0.0109339 0)
(0.986601 0.014021 0)
(0.989939 0.0146364 0)
(1.00104 0.000374489 0)
(1.00073 0.000718389 0)
(1.00354 -0.00310453 0)
(0.991805 -0.010187 0)
(0.991621 0.0106341 0)
(0.999654 0.00339878 0)
(1.00364 0.0139017 0)
(1.01142 0.00374222 0)
(1.01809 -0.00436289 0)
(1.00277 -0.0188833 0)
(1.00045 -0.0045078 0)
(0.999522 -0.0263448 0)
(0.983537 -0.0111397 0)
(0.983118 -0.0129601 0)
(0.981478 -0.010327 0)
(0.974995 0.000797219 0)
(0.978067 0.000944047 0)
(0.980104 0.0099608 0)
(0.984814 0.0140112 0)
(0.988039 0.0141082 0)
(1.00097 0.000353324 0)
(1.0007 0.000654637 0)
(1.00335 -0.00292927 0)
(0.992211 -0.00990423 0)
(0.991719 0.0103192 0)
(0.999628 0.00337297 0)
(1.00336 0.0132265 0)
(1.01073 0.00379259 0)
(1.01728 -0.00445716 0)
(1.00279 -0.0179151 0)
(1 -0.0050393 0)
(0.999464 -0.0247943 0)
(0.984116 -0.0115439 0)
(0.983201 -0.0118904 0)
(0.98223 -0.0104274 0)
(0.975294 0.000873837 0)
(0.978013 0.00130555 0)
(0.979982 0.00903959 0)
(0.983915 0.0139025 0)
(0.987002 0.0137381 0)
(1.00091 0.000334056 0)
(1.00067 0.000583352 0)
(1.00316 -0.00274639 0)
(0.992556 -0.00961726 0)
(0.991883 0.00999242 0)
(0.999626 0.00336199 0)
(1.00317 0.0125333 0)
(1.01014 0.00386022 0)
(1.0165 -0.0045629 0)
(1.0028 -0.0169424 0)
(0.999603 -0.00553717 0)
(0.999336 -0.0232951 0)
(0.984681 -0.0118626 0)
(0.983299 -0.0109093 0)
(0.982946 -0.0103917 0)
(0.975833 0.000851355 0)
(0.978197 0.00175079 0)
(0.980327 0.00820215 0)
(0.983631 0.0136722 0)
(0.986521 0.013492 0)
(1.00088 0.000316584 0)
(1.00062 0.000506136 0)
(1.00297 -0.00255725 0)
(0.992875 -0.00932422 0)
(0.992086 0.00965353 0)
(0.99963 0.00336509 0)
(1.00303 0.0118222 0)
(1.00962 0.00393777 0)
(1.01576 -0.00467179 0)
(1.00279 -0.0159772 0)
(0.999236 -0.00598594 0)
(0.999172 -0.0218562 0)
(0.985236 -0.0120942 0)
(0.983425 -0.0100094 0)
(0.983623 -0.0102365 0)
(0.976541 0.000735104 0)
(0.978528 0.00223762 0)
(0.980949 0.00745849 0)
(0.983756 0.0133061 0)
(0.986376 0.0133458 0)
(1.00087 0.000301409 0)
(1.00054 0.000422005 0)
(1.00279 -0.00236203 0)
(0.993191 -0.0090263 0)
(0.992311 0.00930379 0)
(0.99963 0.00338338 0)
(1.00291 0.0110957 0)
(1.00914 0.00402259 0)
(1.01505 -0.00477398 0)
(1.00279 -0.0150294 0)
(0.998909 -0.00637312 0)
(0.998988 -0.0204922 0)
(0.985793 -0.0122309 0)
(0.983581 -0.00918059 0)
(0.984261 -0.00998395 0)
(0.977372 0.000539878 0)
(0.978946 0.00273684 0)
(0.981711 0.00682446 0)
(0.984148 0.0127976 0)
(0.986422 0.0132687 0)
(1.00089 0.000288301 0)
(1.00045 0.000332097 0)
(1.00262 -0.00216121 0)
(0.993517 -0.00872439 0)
(0.992548 0.00893969 0)
(0.99962 0.00342094 0)
(1.0028 0.0103561 0)
(1.00867 0.00410762 0)
(1.01437 -0.00486395 0)
(1.00279 -0.0141088 0)
(0.998631 -0.00668621 0)
(0.998797 -0.0192133 0)
(0.986365 -0.0122703 0)
(0.983766 -0.00845128 0)
(0.984861 -0.00963147 0)
(0.97829 0.000288931 0)
(0.979413 0.00321431 0)
(0.982521 0.00631226 0)
(0.984714 0.0121636 0)
(0.986576 0.0132158 0)
(1.00094 0.000277586 0)
(1.00033 0.000236939 0)
(1.00244 -0.00195693 0)
(0.993855 -0.00841462 0)
(0.992789 0.00855748 0)
(0.9996 0.00347763 0)
(1.00271 0.00960639 0)
(1.00821 0.00418338 0)
(1.01373 -0.00493146 0)
(1.00279 -0.0132303 0)
(0.998406 -0.00690511 0)
(0.998605 -0.0180294 0)
(0.986958 -0.0122192 0)
(0.983978 -0.00780878 0)
(0.985427 -0.00919725 0)
(0.979263 -6.54134e-06 0)
(0.979909 0.00364149 0)
(0.983315 0.00592098 0)
(0.985388 0.0114094 0)
(0.986793 0.0131338 0)
(1.00099 0.000270086 0)
(1.0002 0.000138428 0)
(1.00226 -0.00175457 0)
(0.9942 -0.00809097 0)
(0.993029 0.00815572 0)
(0.999571 0.00354857 0)
(1.00263 0.00885169 0)
(1.00775 0.00424989 0)
(1.01311 -0.00496278 0)
(1.00279 -0.0124092 0)
(0.998231 -0.0070303 0)
(0.998414 -0.016922 0)
(0.987578 -0.0120917 0)
(0.984216 -0.00721783 0)
(0.985957 -0.00870044 0)
(0.980271 -0.000322959 0)
(0.980426 0.00399486 0)
(0.984045 0.00565881 0)
(0.986124 0.0105689 0)
(0.987067 0.0129731 0)
(1.00104 0.000265107 0)
(1.00007 3.6443e-05 0)
(1.00208 -0.00155713 0)
(0.994547 -0.00775712 0)
(0.993268 0.00773828 0)
(0.999535 0.00363506 0)
(1.00256 0.00809816 0)
(1.00728 0.0042949 0)
(1.01252 -0.004956 0)
(1.00279 -0.0116532 0)
(0.998099 -0.00705925 0)
(0.998227 -0.0158751 0)
(0.988221 -0.0119007 0)
(0.984486 -0.006679 0)
(0.986453 -0.00815109 0)
(0.981299 -0.000656374 0)
(0.980966 0.00426817 0)
(0.984691 0.00553283 0)
(0.986888 0.00970145 0)
(0.987404 0.012679 0)
(1.00109 0.000262794 0)
(0.999946 -6.85083e-05 0)
(1.0019 -0.00136543 0)
(0.994886 -0.00741084 0)
(0.993509 0.00730792 0)
(0.999495 0.00373293 0)
(1.00252 0.00735282 0)
(1.0068 0.00430977 0)
(1.01194 -0.00490474 0)
(1.00279 -0.0109675 0)
(0.997995 -0.00699604 0)
(0.998043 -0.0148909 0)
(0.988884 -0.0116478 0)
(0.984793 -0.00619571 0)
(0.986912 -0.0075578 0)
(0.98234 -0.0009896 0)
(0.981546 0.00444394 0)
(0.985243 0.00552348 0)
(0.987646 0.00886329 0)
(0.98782 0.0122044 0)
(1.00113 0.000262685 0)
(0.999843 -0.000171189 0)
(1.00171 -0.00118258 0)
(0.995212 -0.00704743 0)
(0.993759 0.00686332 0)
(0.99945 0.00382924 0)
(1.00249 0.00663035 0)
(1.00633 0.00429603 0)
(1.01136 -0.00480088 0)
(1.00279 -0.0103539 0)
(0.99791 -0.00685859 0)
(0.997865 -0.0139455 0)
(0.989553 -0.0113586 0)
(0.985146 -0.00574627 0)
(0.987341 -0.00691461 0)
(0.983384 -0.00128415 0)
(0.982179 0.0045006 0)
(0.985713 0.00559447 0)
(0.98837 0.00812207 0)
(0.988326 0.0115541 0)
(1.00115 0.000265558 0)
(0.999761 -0.00027291 0)
(1.00152 -0.0010145 0)
(0.995523 -0.00666679 0)
(0.994025 0.00640609 0)
(0.999401 0.00392682 0)
(1.00247 0.00593391 0)
(1.00585 0.00424115 0)
(1.01076 -0.00464614 0)
(1.00278 -0.00980339 0)
(0.997834 -0.006659 0)
(0.99769 -0.0130301 0)
(0.990224 -0.0110334 0)
(0.985555 -0.00532346 0)
(0.987737 -0.00624322 0)
(0.984424 -0.00154212 0)
(0.982881 0.00443682 0)
(0.986126 0.00570952 0)
(0.989036 0.00751793 0)
(0.988923 0.010765 0)
(1.00115 0.000270274 0)
(0.999701 -0.000370807 0)
(1.00134 -0.000861098 0)
(0.995816 -0.00627225 0)
(0.994311 0.00594097 0)
(0.999348 0.00401976 0)
(1.00245 0.00526967 0)
(1.00538 0.00414144 0)
(1.01015 -0.00444095 0)
(1.00276 -0.00930477 0)
(0.997765 -0.00642562 0)
(0.997517 -0.0121264 0)
(0.990887 -0.010677 0)
(0.98602 -0.00494427 0)
(0.988108 -0.00555273 0)
(0.985448 -0.00173501 0)
(0.983661 0.00426643 0)
(0.986512 0.00582871 0)
(0.989628 0.00707175 0)
(0.989594 0.00990565 0)
(1.00115 0.000276135 0)
(0.99966 -0.000462179 0)
(1.00116 -0.000720994 0)
(0.996092 -0.00586725 0)
(0.994619 0.0054744 0)
(0.999291 0.00409754 0)
(1.00243 0.00465467 0)
(1.00492 0.00399981 0)
(1.00952 -0.00418179 0)
(1.00273 -0.00885195 0)
(0.997706 -0.00616574 0)
(0.997344 -0.0112285 0)
(0.991536 -0.0102983 0)
(0.986545 -0.00461151 0)
(0.98846 -0.00484093 0)
(0.986442 -0.00185815 0)
(0.984519 0.00399931 0)
(0.986902 0.00589972 0)
(0.990137 0.0067733 0)
(0.990307 0.00905493 0)
(1.00113 0.000283773 0)
(0.999634 -0.000547382 0)
(1.001 -0.000595122 0)
(0.996352 -0.0054551 0)
(0.994947 0.00500479 0)
(0.999231 0.00416005 0)
(1.0024 0.00409092 0)
(1.00449 0.00381436 0)
(1.00889 -0.00388394 0)
(1.0027 -0.00842737 0)
(0.997663 -0.00589593 0)
(0.997172 -0.010332 0)
(0.992164 -0.00988561 0)
(0.987128 -0.004333 0)
(0.988798 -0.00412484 0)
(0.987388 -0.00188391 0)
(0.985445 0.0036605 0)
(0.987326 0.0058926 0)
(0.99057 0.00659673 0)
(0.991018 0.00829681 0)
(1.00111 0.00029189 0)
(0.99962 -0.000624239 0)
(1.00084 -0.000483416 0)
(0.996596 -0.00503703 0)
(0.995291 0.0045354 0)
(0.999168 0.0042018 0)
(1.00236 0.00358325 0)
(1.00408 0.00358276 0)
(1.00825 -0.00355597 0)
(1.00265 -0.00802408 0)
(0.997642 -0.00562924 0)
(0.997001 -0.00943393 0)
(0.992764 -0.00943821 0)
(0.987766 -0.0041007 0)
(0.989137 -0.00343224 0)
(0.988272 -0.00180722 0)
(0.986416 0.00328353 0)
(0.987804 0.00580499 0)
(0.990945 0.00649609 0)
(0.99168 0.00769209 0)
(1.00108 0.000300492 0)
(0.999613 -0.000692879 0)
(1.0007 -0.00038314 0)
(0.996823 -0.00461579 0)
(0.995646 0.00407498 0)
(0.999105 0.00421955 0)
(1.00232 0.00313639 0)
(1.0037 0.00331471 0)
(1.00762 -0.00320626 0)
(1.0026 -0.00762445 0)
(0.997649 -0.00537593 0)
(0.996836 -0.00855279 0)
(0.99333 -0.00893884 0)
(0.988455 -0.00391286 0)
(0.989482 -0.00278364 0)
(0.989084 -0.00164884 0)
(0.987413 0.00289971 0)
(0.988349 0.00563695 0)
(0.991288 0.00640279 0)
(0.992264 0.00725115 0)
(1.00105 0.000308899 0)
(0.999611 -0.00075185 0)
(1.00057 -0.000295884 0)
(0.997035 -0.00420157 0)
(0.996008 0.00362779 0)
(0.999041 0.00421139 0)
(1.00225 0.00275161 0)
(1.00335 0.00301761 0)
(1.007 -0.00284701 0)
(1.00254 -0.00721181 0)
(0.997689 -0.00514871 0)
(0.996684 -0.00768883 0)
(0.993857 -0.00838706 0)
(0.989185 -0.00376203 0)
(0.989847 -0.00219653 0)
(0.98982 -0.00141085 0)
(0.988411 0.00254475 0)
(0.988957 0.00540632 0)
(0.991628 0.00627059 0)
(0.992763 0.00694082 0)
(1.00102 0.000318231 0)
(0.999613 -0.000807129 0)
(1.00045 -0.000217877 0)
(0.997232 -0.00378856 0)
(0.996374 0.00318905 0)
(0.998979 0.00417388 0)
(1.00218 0.00243544 0)
(1.00303 0.00269306 0)
(1.00639 -0.00249352 0)
(1.00247 -0.00678639 0)
(0.997765 -0.00493623 0)
(0.996551 -0.0068624 0)
(0.994338 -0.00778293 0)
(0.989949 -0.00364347 0)
(0.990241 -0.00168337 0)
(0.990482 -0.00109655 0)
(0.989392 0.00223582 0)
(0.989619 0.00513523 0)
(0.991982 0.00609776 0)
(0.993197 0.00669292 0)
(1.00098 0.000325965 0)
(0.999618 -0.000853618 0)
(1.00034 -0.000149482 0)
(0.997412 -0.00338133 0)
(0.996741 0.00276823 0)
(0.998925 0.00409891 0)
(1.00208 0.00218756 0)
(1.00275 0.00236238 0)
(1.00581 -0.00216539 0)
(1.00238 -0.00633811 0)
(0.997875 -0.00473619 0)
(0.996449 -0.00608798 0)
(0.99477 -0.00713352 0)
(0.990732 -0.00353278 0)
(0.99068 -0.00125933 0)
(0.991078 -0.000737298 0)
(0.990332 0.00199189 0)
(0.990326 0.00482972 0)
(0.992361 0.00590238 0)
(0.993589 0.00645427 0)
(1.00095 0.000331777 0)
(0.999625 -0.000886972 0)
(1.00025 -9.6805e-05 0)
(0.997577 -0.00298398 0)
(0.997105 0.00237169 0)
(0.998881 0.00398121 0)
(1.00197 0.00200022 0)
(1.00248 0.00202995 0)
(1.00526 -0.00187249 0)
(1.00227 -0.00586954 0)
(0.998014 -0.00453338 0)
(0.996382 -0.00536358 0)
(0.995153 -0.00645688 0)
(0.991521 -0.00341014 0)
(0.991168 -0.000921883 0)
(0.991622 -0.000364241 0)
(0.99122 0.00182496 0)
(0.991068 0.00448772 0)
(0.99277 0.00568824 0)
(0.993959 0.00621353 0)
(1.00092 0.000336322 0)
(0.999635 -0.000910018 0)
(1.00018 -6.08422e-05 0)
(0.997724 -0.00258861 0)
(0.997462 0.00199921 0)
(0.998851 0.00382482 0)
(1.00185 0.0018698 0)
(1.00225 0.0017098 0)
(1.00474 -0.00161205 0)
(1.00216 -0.00539138 0)
(0.99818 -0.00432382 0)
(0.996357 -0.00469945 0)
(0.995489 -0.00574874 0)
(0.992303 -0.00325895 0)
(0.991709 -0.000667589 0)
(0.99213 1.85894e-05 0)
(0.992037 0.00174409 0)
(0.99183 0.00413867 0)
(0.993218 0.00544712 0)
(0.994318 0.00598072 0)
(1.00088 0.000336849 0)
(0.999645 -0.000914833 0)
(1.00012 -4.57006e-05 0)
(0.997856 -0.00219801 0)
(0.997808 0.00166561 0)
(0.998839 0.00362497 0)
(1.00171 0.00178225 0)
(1.00203 0.00142729 0)
(1.00427 -0.00138386 0)
(1.00203 -0.00490684 0)
(0.998367 -0.00411355 0)
(0.99638 -0.00410077 0)
(0.995784 -0.0050258 0)
(0.993057 -0.00306923 0)
(0.992303 -0.000499016 0)
(0.992625 0.000360005 0)
(0.992781 0.0017291 0)
(0.992593 0.00381591 0)
(0.993708 0.0051671 0)
(0.994681 0.00574459 0)
(1.00085 0.000333042 0)
(0.999656 -0.000899641 0)
(1.00007 -5.3404e-05 0)
(0.997974 -0.00182162 0)
(0.998137 0.00137704 0)
(0.998845 0.00338526 0)
(1.00157 0.00172086 0)
(1.00183 0.00118815 0)
(1.00383 -0.00118539 0)
(1.0019 -0.00442215 0)
(0.998571 -0.00389437 0)
(0.996454 -0.00357131 0)
(0.996045 -0.00431384 0)
(0.993771 -0.00283278 0)
(0.992937 -0.000388135 0)
(0.99312 0.000631328 0)
(0.993459 0.00175663 0)
(0.993339 0.00353911 0)
(0.994233 0.00486621 0)
(0.995063 0.00549074 0)
(1.00081 0.000325663 0)
(0.999666 -0.000865677 0)
(1.00005 -8.29009e-05 0)
(0.998079 -0.00146539 0)
(0.998445 0.00113876 0)
(0.99887 0.00311338 0)
(1.00142 0.00167787 0)
(1.00164 0.00100145 0)
(1.00343 -0.0010067 0)
(1.00176 -0.00393387 0)
(0.998786 -0.0036458 0)
(0.996583 -0.0031132 0)
(0.996284 -0.00362794 0)
(0.994434 -0.0025419 0)
(0.993596 -0.000316134 0)
(0.993628 0.000827698 0)
(0.994083 0.001802 0)
(0.994057 0.00330457 0)
(0.994783 0.00456275 0)
(0.995469 0.00522494 0)
(1.00078 0.000314096 0)
(0.999673 -0.000815318 0)
(1.00003 -0.000120676 0)
(0.998175 -0.00114133 0)
(0.998727 0.000961419 0)
(0.998912 0.00283104 0)
(1.00128 0.00163827 0)
(1.00146 0.000857442 0)
(1.00308 -0.00084116 0)
(1.00162 -0.00344775 0)
(0.999 -0.00336807 0)
(0.996761 -0.00271568 0)
(0.996513 -0.00299881 0)
(0.995038 -0.00221172 0)
(0.994261 -0.00025951 0)
(0.994155 0.000957954 0)
(0.994666 0.00184418 0)
(0.994739 0.00310391 0)
(0.995349 0.00427255 0)
(0.995897 0.00495848 0)
(1.00075 0.000299151 0)
(0.999676 -0.000753893 0)
(1.00003 -0.00016023 0)
(0.998266 -0.000856632 0)
(0.998983 0.000843138 0)
(0.998965 0.00255795 0)
(1.00114 0.00159003 0)
(1.0013 0.000749248 0)
(1.00276 -0.000685131 0)
(1.00149 -0.00297473 0)
(0.999211 -0.00306637 0)
(0.996983 -0.00237282 0)
(0.996744 -0.00243769 0)
(0.995588 -0.00185677 0)
(0.994917 -0.00020111 0)
(0.9947 0.00104259 0)
(0.995219 0.00188814 0)
(0.995388 0.00293977 0)
(0.995922 0.00399309 0)
(0.99634 0.00469413 0)
(1.00071 0.000282759 0)
(0.999675 -0.000689748 0)
(1.00004 -0.000191079 0)
(0.998354 -0.000620926 0)
(0.999212 0.000771385 0)
(0.999027 0.00230347 0)
(1.00101 0.00154066 0)
(1.00115 0.00067961 0)
(1.00249 -0.000538578 0)
(1.00136 -0.00251279 0)
(0.99941 -0.0027434 0)
(0.997239 -0.00207356 0)
(0.996988 -0.00194473 0)
(0.996086 -0.00149867 0)
(0.995551 -0.000125818 0)
(0.995265 0.00109111 0)
(0.995751 0.00191852 0)
(0.995992 0.00280506 0)
(0.996493 0.00370834 0)
(0.996805 0.00441411 0)
(1.00068 0.000266226 0)
(0.999671 -0.000627217 0)
(1.00005 -0.000203617 0)
(0.998441 -0.00043776 0)
(0.999418 0.000727827 0)
(0.999093 0.00208659 0)
(1.0009 0.0014994 0)
(1.00101 0.00063538 0)
(1.00225 -0.000409826 0)
(1.00124 -0.00208209 0)
(0.999593 -0.00240464 0)
(0.997521 -0.0017985 0)
(0.997246 -0.00152252 0)
(0.996543 -0.00114434 0)
(0.996157 -1.36768e-05 0)
(0.995837 0.00111551 0)
(0.996271 0.0019225 0)
(0.996552 0.00270348 0)
(0.997046 0.00345773 0)
(0.997292 0.00412084 0)
(1.00065 0.000250155 0)
(0.999665 -0.000569343 0)
(1.00007 -0.000200704 0)
(0.998528 -0.000291171 0)
(0.999605 0.000694345 0)
(0.999164 0.00190608 0)
(1.00079 0.00146121 0)
(1.00088 0.000624961 0)
(1.00205 -0.000293107 0)
(1.00114 -0.0016815 0)
(0.999761 -0.00205336 0)
(0.997816 -0.00154372 0)
(0.997523 -0.00117388 0)
(0.996969 -0.000815427 0)
(0.996722 0.000114091 0)
(0.996403 0.00114012 0)
(0.996789 0.00190535 0)
(0.997083 0.00261615 0)
(0.997567 0.00326328 0)
(0.997781 0.00384051 0)
(1.00062 0.000236027 0)
(0.999658 -0.000516346 0)
(1.00009 -0.000181404 0)
(0.998613 -0.000175252 0)
(0.999776 0.000660837 0)
(0.999239 0.00175498 0)
(1.00069 0.00142543 0)
(1.00075 0.000643896 0)
(1.00188 -0.000179022 0)
(1.00106 -0.00131963 0)
(0.999911 -0.00169026 0)
(0.998113 -0.00128267 0)
(0.997815 -0.000873169 0)
(0.997375 -0.000523951 0)
(0.997257 0.000236662 0)
(0.996956 0.00116138 0)
(0.997297 0.00187338 0)
(0.997597 0.0025127 0)
(0.998059 0.00308816 0)
(0.998256 0.00358338 0)
(1.00058 0.000222833 0)
(0.999651 -0.000474071 0)
(1.00012 -0.000157974 0)
(0.998694 -6.86309e-05 0)
(0.999935 0.000626473 0)
(0.999319 0.00162613 0)
(1.0006 0.00142571 0)
(1.00064 0.000689462 0)
(1.00174 -6.57887e-05 0)
(1.001 -0.00101486 0)
(1.00005 -0.0013444 0)
(0.998404 -0.00101698 0)
(0.998114 -0.00060725 0)
(0.997758 -0.000259071 0)
(0.997754 0.000359414 0)
(0.997494 0.00117916 0)
(0.997791 0.00185221 0)
(0.998091 0.00241905 0)
(0.99853 0.00292287 0)
(0.998703 0.00337217 0)
(1.00055 0.000212847 0)
(0.999646 -0.000422117 0)
(1.00015 -0.000132918 0)
(0.998772 1.18892e-05 0)
(1.00008 0.000562338 0)
(0.999412 0.0014727 0)
(1.00053 0.00142654 0)
(1.00053 0.000757728 0)
(1.00162 5.97043e-05 0)
(1.00096 -0.000745253 0)
(1.00019 -0.00102759 0)
(0.998688 -0.000759833 0)
(0.998418 -0.000380666 0)
(0.998127 -4.00939e-05 0)
(0.99822 0.000464862 0)
(0.998019 0.00117673 0)
(0.998275 0.00180938 0)
(0.99856 0.00233125 0)
(0.998986 0.00275469 0)
(0.999126 0.00318499 0)
(1.00053 0.000199102 0)
(0.99964 -0.000415387 0)
(1.00019 -8.88733e-05 0)
(0.998841 0.000146015 0)
(1.00021 0.000569274 0)
(0.999517 0.00136756 0)
(1.00049 0.00144936 0)
(1.00043 0.00085964 0)
(1.00151 0.000194276 0)
(1.00094 -0.000501964 0)
(1.00032 -0.000730939 0)
(0.998958 -0.000492474 0)
(0.998715 -0.000154783 0)
(0.998476 0.000163882 0)
(0.99865 0.000580578 0)
(0.99852 0.00118144 0)
(0.998755 0.00174814 0)
(0.999011 0.00225093 0)
(0.999427 0.00259197 0)
(0.999538 0.00299124 0)
(1.0005 0.000209917 0)
(0.999642 -0.000371286 0)
(1.00024 -0.000107801 0)
(0.998918 0.000170616 0)
(1.00033 0.000495449 0)
(0.999628 0.00121113 0)
(1.00047 0.00146673 0)
(1.00034 0.000992924 0)
(1.00141 0.000338148 0)
(1.00093 -0.00029634 0)
(1.00047 -0.000491042 0)
(0.999226 -0.000261892 0)
(0.999007 4.94557e-05 0)
(0.998814 0.000341022 0)
(0.999051 0.000677623 0)
(0.998989 0.00118481 0)
(0.999225 0.00166951 0)
(0.999445 0.00215684 0)
(0.999838 0.00244977 0)
(0.999939 0.00279693 0)
(1.00048 0.000163156 0)
(0.999631 -0.000269549 0)
(1.00028 7.14323e-07 0)
(0.998984 0.000323383 0)
(1.00044 0.000491446 0)
(0.999773 0.00104025 0)
(1.0005 0.00142976 0)
(1.00026 0.00111694 0)
(1.00132 0.000490538 0)
(1.00093 -9.39073e-05 0)
(1.00062 -0.000273973 0)
(0.999493 -4.42548e-05 0)
(0.999294 0.000254941 0)
(0.99913 0.000522646 0)
(0.999421 0.000777149 0)
(0.999427 0.0011986 0)
(0.999681 0.00159412 0)
(0.999881 0.00204134 0)
(1.00024 0.00231526 0)
(1.00033 0.00260247 0)
(1.00046 0.000190632 0)
(0.999647 -0.000313085 0)
(1.00034 -9.04115e-05 0)
(0.999038 0.000376928 0)
(1.00049 0.000536714 0)
(0.999884 0.000994603 0)
(1.00055 0.00146151 0)
(1.00021 0.00126866 0)
(1.00123 0.000660946 0)
(1.00094 9.75397e-05 0)
(1.00078 -8.77192e-05 0)
(0.999773 0.000135979 0)
(0.999589 0.0004181 0)
(0.999436 0.00067748 0)
(0.999762 0.000869003 0)
(0.999828 0.0012105 0)
(1.0001 0.00152741 0)
(1.0003 0.00191653 0)
(1.00062 0.00217319 0)
(1.0007 0.00242807 0)
(1.00044 0.000156135 0)
(0.999621 -0.000240396 0)
(1.00041 -0.000113657 0)
(0.999148 0.000469462 0)
(1.00061 0.000656868 0)
(1.00006 0.000959931 0)
(1.00065 0.0014111 0)
(1.00018 0.00136179 0)
(1.00114 0.00082219 0)
(1.00094 0.000274678 0)
(1.00093 7.44724e-05 0)
(1.00005 0.000278779 0)
(0.999882 0.000556667 0)
(0.999733 0.000816799 0)
(1.00008 0.000962299 0)
(1.0002 0.00123347 0)
(1.00051 0.00147355 0)
(1.00072 0.00179593 0)
(1.001 0.00201382 0)
(1.00106 0.00226365 0)
(1.00042 0.000147189 0)
(0.99964 -0.000162387 0)
(1.00049 -2.82269e-05 0)
(0.999243 0.000568646 0)
(1.00064 0.000737184 0)
(1.00015 0.000859065 0)
(1.00075 0.00125644 0)
(1.00019 0.00139593 0)
(1.00107 0.000991102 0)
(1.00095 0.000468636 0)
(1.00108 0.000222403 0)
(1.00033 0.000386921 0)
(1.00019 0.000647985 0)
(1.00003 0.00092 0)
(1.00037 0.00103702 0)
(1.00054 0.00125531 0)
(1.00087 0.00142664 0)
(1.00109 0.0016946 0)
(1.00137 0.00185114 0)
(1.0014 0.00210285 0)
(1.00041 0.000146944 0)
(0.999611 -0.000114874 0)
(1.00056 1.22263e-06 0)
(0.999353 0.000605564 0)
(1.00071 0.000823263 0)
(1.00027 0.000856155 0)
(1.0009 0.00114506 0)
(1.00025 0.00139837 0)
(1.00102 0.00113842 0)
(1.00094 0.000661781 0)
(1.0012 0.000368828 0)
(1.0006 0.00048371 0)
(1.0005 0.000704904 0)
(1.00033 0.000988992 0)
(1.00066 0.00109578 0)
(1.00086 0.001274 0)
(1.00121 0.00138182 0)
(1.00144 0.00160718 0)
(1.00174 0.00169245 0)
(1.00175 0.00192211 0)
(1.00039 0.000127633 0)
(0.999632 7.68874e-06 0)
(1.00065 5.58409e-05 0)
(0.999473 0.000615655 0)
(1.00074 0.000891453 0)
(1.00032 0.000904095 0)
(1.00103 0.00106224 0)
(1.00035 0.00136758 0)
(1.00102 0.00125528 0)
(1.00094 0.000860602 0)
(1.00132 0.000534509 0)
(1.00085 0.000578364 0)
(1.00081 0.000746867 0)
(1.00064 0.0010189 0)
(1.00094 0.00112582 0)
(1.00114 0.00128811 0)
(1.0015 0.0013363 0)
(1.00174 0.00153166 0)
(1.00205 0.00156283 0)
(1.00207 0.00174262 0)
(1.00039 0.000114921 0)
(0.999594 0.000118454 0)