/*--------------------------------*- C++ -*----------------------------------*\
| =========                 |                                                 |
| \\      /  F ield         | OpenFOAM: The Open Source CFD Toolbox           |
|  \\    /   O peration     | Version:  v1812                                 |
|   \\  /    A nd           | Web:      www.OpenFOAM.com                      |
|    \\/     M anipulation  |                                                 |
\*---------------------------------------------------------------------------*/
FoamFile
{
    version     2.0;
    format      ascii;
    class       volScalarField;
    location    "4.7";
    object      p;
}
// * * * * * * * * * * * * * * * * * * * * * * * * * * * * * * * * * * * * * //

dimensions      [0 2 -2 0 0 0 0];


internalField   nonuniform List<scalar> 
9600
(
1.30208e-10
-0.000383328
0.00103105
-0.000620283
0.00136997
1.42842e-05
0.000246473
-0.00261463
-0.00162328
-0.000530489
0.00084161
-2.48545e-05
0.00293837
0.00111972
0.00266415
0.00158523
0.000927886
0.000556634
-0.000425547
-0.000726467
-6.99856e-06
-0.000383352
0.00103475
-0.000621663
0.00137737
-3.12236e-06
0.000239647
-0.00261325
-0.00163078
-0.000526094
0.000857598
-4.26858e-05
0.00295887
0.00108645
0.00267284
0.00150224
0.000938493
0.000440871
-0.000410427
-0.000939715
-1.43329e-05
-0.000382481
0.00103889
-0.000623396
0.00138368
-2.67856e-05
0.000229105
-0.00260785
-0.00163819
-0.000522155
0.000869586
-6.91315e-05
0.00298512
0.00103189
0.002676
0.00140139
0.000940776
0.000304928
-0.000393918
-0.00121
-2.1663e-05
-0.000381339
0.00104283
-0.000626642
0.00138398
-5.38135e-05
0.000215582
-0.00259437
-0.0016457
-0.000519347
0.000878927
-0.000103483
0.00299584
0.000952654
0.00265792
0.00129719
0.000919191
0.000195226
-0.000401654
-0.00143491
-2.93392e-05
-0.00037997
0.00104678
-0.000632484
0.0013824
-8.38112e-05
0.000201921
-0.00257117
-0.00165293
-0.000516553
0.000886396
-0.000145456
0.00299418
0.000852459
0.00263277
0.00118776
0.000898326
0.000103991
-0.000438633
-0.00158297
-3.73897e-05
-0.000378211
0.00105056
-0.000640566
0.00138167
-0.000116402
0.000191351
-0.00253799
-0.00165911
-0.000513163
0.000890915
-0.000191741
0.00298794
0.000741355
0.00260799
0.00108101
0.000888422
1.91088e-05
-0.000492003
-0.00168492
-4.57323e-05
-0.000376052
0.00105388
-0.000649747
0.0013823
-0.000151487
0.000185731
-0.00249491
-0.00166363
-0.000509102
0.000892023
-0.000239161
0.00298142
0.000625783
0.00258133
0.000983363
0.000872915
-5.42004e-05
-0.000564069
-0.00176477
-5.43461e-05
-0.000373559
0.00105651
-0.000658791
0.00138491
-0.000189215
0.000185859
-0.00244209
-0.00166612
-0.00050423
0.000889548
-0.000285658
0.00297573
0.000507979
0.00255102
0.000894114
0.000840494
-0.000111126
-0.000665285
-0.00183039
-6.32738e-05
-0.000370793
0.00105837
-0.000666863
0.00139017
-0.000229662
0.000191634
-0.00237982
-0.00166651
-0.000498438
0.000883363
-0.000329959
0.00297001
0.000389553
0.00251616
0.000813923
0.000789202
-0.000151852
-0.000796773
-0.00188376
-7.25815e-05
-0.000367777
0.00105951
-0.000673824
0.00139821
-0.00027235
0.000202002
-0.00230898
-0.00166506
-0.000491683
0.000873319
-0.000370582
0.00296259
0.000272998
0.0024755
0.00074582
0.000717167
-0.00017841
-0.000954307
-0.00193196
-8.23296e-05
-0.000364519
0.00106006
-0.000680086
0.00140864
-0.000316223
0.000215127
-0.00223112
-0.00166231
-0.00048398
0.000859178
-0.000405321
0.00295122
0.000161757
0.00242764
0.000692567
0.00062155
-0.00019384
-0.00113283
-0.00198637
-9.25568e-05
-0.000361027
0.00106022
-0.000686038
0.0014207
-0.00036008
0.000228859
-0.00214833
-0.00165896
-0.000475239
0.000840702
-0.000431845
0.00293306
6.01193e-05
0.00237109
0.000655209
0.000500965
-0.000202038
-0.00132564
-0.00205786
-0.000103282
-0.000357302
0.00106016
-0.000691638
0.00143351
-0.000403052
0.000241276
-0.00206273
-0.00165587
-0.000465166
0.00081783
-0.000448762
0.00290562
-2.80125e-05
0.00230354
0.000633911
0.000356488
-0.000208212
-0.001524
-0.00215347
-0.000114514
-0.000353341
0.00106002
-0.000696452
0.00144616
-0.000444895
0.000251026
-0.00197597
-0.00165381
-0.000453404
0.000790735
-0.000456186
0.00286736
-0.000100214
0.00222167
0.000628798
0.000190674
-0.000219113
-0.00171831
-0.00227659
-0.000126263
-0.00034916
0.00105988
-0.000699931
0.00145754
-0.000485612
0.000257374
-0.00188893
-0.00165328
-0.000439591
0.000759666
-0.000455489
0.00281759
-0.000155896
0.00212252
0.000638675
6.72232e-06
-0.000241626
-0.00189995
-0.00242721
-0.000138529
-0.000344785
0.00105982
-0.000701716
0.00146668
-0.000525105
0.000260015
-0.00180187
-0.00165463
-0.000423349
0.000724701
-0.000448556
0.00275631
-0.000196161
0.00200451
0.000660396
-0.000190581
-0.000282266
-0.00206147
-0.0026017
-0.000151298
-0.000340252
0.0010598
-0.000701722
0.00147297
-0.000563176
0.000258806
-0.00171465
-0.00165824
-0.000404431
0.000685757
-0.000437294
0.00268404
-0.000222679
0.00186703
0.000690008
-0.000394983
-0.000347722
-0.00219684
-0.00279457
-0.000164548
-0.00033563
0.0010598
-0.000700084
0.00147599
-0.000599535
0.000253603
-0.00162699
-0.00166447
-0.000382829
0.000642862
-0.00042358
0.0026017
-0.00023749
0.00171049
0.000723674
-0.000600618
-0.000443119
-0.00230207
-0.00299981
-0.000178248
-0.000331006
0.00105981
-0.000697085
0.0014755
-0.000633694
0.000244225
-0.00153857
-0.00167369
-0.000358698
0.000596336
-0.000409264
0.00251045
-0.000243327
0.00153727
0.000757361
-0.000802641
-0.000570062
-0.00237584
-0.00321033
-0.000192341
-0.00032649
0.00105979
-0.000693059
0.00147137
-0.000665097
0.000230374
-0.00144905
-0.0016863
-0.000332291
0.000546839
-0.000396268
0.0024115
-0.000242898
0.00135052
0.000786584
-0.000995932
-0.000727876
-0.00242085
-0.00341829
-0.000206745
-0.000322224
0.00105971
-0.000688303
0.00146346
-0.000693277
0.000211639
-0.00135813
-0.00170259
-0.000304158
0.000495349
-0.000386648
0.00230651
-0.000238944
0.00115246
0.000807467
-0.00117585
-0.000915847
-0.00244263
-0.0036147
-0.000221365
-0.000318382
0.00105953
-0.000683028
0.00145156
-0.000719154
0.000187574
-0.0012657
-0.00172244
-0.000275204
0.000443014
-0.000382781
0.00219758
-0.000234021
0.00094478
0.000816595
-0.00134031
-0.00113286
-0.00244693
-0.00378907
-0.000236089
-0.000315151
0.00105922
-0.000677377
0.00143542
-0.000738751
0.00015772
-0.00117176
-0.00174569
-0.00024636
0.000391724
-0.000387684
0.00208648
-0.000228909
0.000728588
0.00081015
-0.00148726
-0.00137665
-0.00244048
-0.00393004
-0.000250775
-0.000312738
0.0010587
-0.0006714
0.00141475
-0.000752793
0.00012162
-0.00107639
-0.00177226
-0.000218962
0.000344349
-0.000404084
0.0019738
-0.000223977
0.00050405
0.000785074
-0.00161256
-0.00164522
-0.00243256
-0.00402599
-0.000265248
-0.000311392
0.00105789
-0.000665018
0.00138914
-0.000760966
7.88856e-05
-0.000979875
-0.00180159
-0.000195252
0.000303724
-0.000433466
0.00185934
-0.000224573
0.000271864
0.000738476
-0.00171279
-0.00193468
-0.00243473
-0.0040677
-0.000279319
-0.000311341
0.00105668
-0.00065808
0.00135814
-0.000762785
2.9299e-05
-0.000882783
-0.00183254
-0.00017782
0.000272005
-0.00047623
0.00174262
-0.000215365
3.33782e-05
0.000666544
-0.00178524
-0.00223822
-0.00246171
-0.00405131
-0.000292803
-0.000312809
0.00105488
-0.00065036
0.00132123
-0.000757791
-2.72483e-05
-0.000785886
-0.00186342
-0.000169342
0.000251107
-0.000531668
0.00162126
-0.000199383
-0.00020984
0.000564183
-0.00182757
-0.00254677
-0.00252877
-0.00398024
-0.000305487
-0.000316077
0.00105227
-0.000641483
0.00127788
-0.000745692
-9.06231e-05
-0.0006902
-0.00189241
-0.000172717
0.000242651
-0.000597755
0.00149153
-0.000174776
-0.000454714
0.000425814
-0.00184039
-0.00284688
-0.00264667
-0.00386593
-0.000317134
-0.00032138
0.00104858
-0.000631003
0.00122746
-0.000726347
-0.000160199
-0.000597248
-0.00191748
-0.000190823
0.000246831
-0.000670944
0.00134907
-0.000140511
-0.000695708
0.000246583
-0.00182902
-0.00312186
-0.00281948
-0.00373028
-0.000327496
-0.000328862
0.00104336
-0.000618453
0.00116933
-0.000699777
-0.000235082
-0.000508759
-0.00193638
-0.000226214
0.000262751
-0.000746628
0.00118935
-9.77853e-05
-0.000925797
2.29677e-05
-0.00180383
-0.00335405
-0.0030427
-0.0036034
-0.000336351
-0.000338643
0.00103616
-0.000603318
0.00110301
-0.000666088
-0.000314076
-0.000427019
-0.00194653
-0.000280472
0.000288048
-0.000819749
0.00100866
-5.07196e-05
-0.00113686
-0.000243976
-0.00177844
-0.0035288
-0.00330353
-0.00351747
-0.000343497
-0.000350767
0.00102602
-0.000585139
0.00102827
-0.000625787
-0.000395517
-0.000354704
-0.00194541
-0.000354011
0.000318369
-0.000884963
0.00080462
-5.3667e-06
-0.00131919
-0.000547621
-0.00176949
-0.00363917
-0.00358189
-0.00349862
-0.000348733
-0.000365209
0.0010123
-0.000563474
0.000945178
-0.000579803
-0.0004773
-0.000294654
-0.00193124
-0.000446236
0.000348322
-0.000937128
0.000577917
2.93496e-05
-0.00146465
-0.000877329
-0.00179452
-0.00368906
-0.00385223
-0.00355723
-0.000351864
-0.000381896
0.000994244
-0.000537868
0.000853872
-0.000529215
-0.000556942
-0.000249994
-0.00190317
-0.000554966
0.000371412
-0.000971803
0.000332285
4.19598e-05
-0.00156889
-0.0012193
-0.00186565
-0.00369058
-0.0040889
-0.00368627
-0.000352753
-0.00040056
0.000970859
-0.000508049
0.000754831
-0.000475778
-0.000631933
-0.000222783
-0.00186167
-0.000676969
0.000380992
-0.00098609
7.08509e-05
2.17919e-05
-0.00163205
-0.00155823
-0.00198741
-0.00366161
-0.00427212
-0.00386501
-0.000351419
-0.000420744
0.000941172
-0.000473961
0.000649005
-0.000421714
-0.000717919
-0.000214413
-0.00180855
-0.000808018
0.000371063
-0.000980676
-0.000204774
-3.84443e-05
-0.00165926
-0.00187845
-0.00215783
-0.00362404
-0.0043937
-0.00406625
-0.000347847
-0.000442085
0.000904453
-0.000435641
0.000537625
-0.000369216
-0.000774863
-0.00022644
-0.00174626
-0.000942743
0.000336127
-0.000959209
-0.000533602
-0.000143141
-0.00166007
-0.00216464
-0.00236843
-0.00359919
-0.0044584
-0.0042603
-0.000342004
-0.000464297
0.000859954
-0.000393223
0.000422429
-0.000321178
-0.000818802
-0.000258542
-0.00167846
-0.0010759
0.000273019
-0.000924143
-0.000784046
-0.000292556
-0.00164766
-0.00240555
-0.0026069
-0.00360371
-0.00448017
-0.00442166
-0.00033407
-0.000486993
0.000807216
-0.000347092
0.000305433
-0.000280871
-0.00084832
-0.000309451
-0.00161018
-0.00120257
0.000180907
-0.000881946
-0.00101437
-0.000484031
-0.00163742
-0.00259695
-0.00285878
-0.00364461
-0.00447684
-0.00453875
-0.000324213
-0.000509784
0.0007461
-0.000297984
0.000188663
-0.000251376
-0.000862777
-0.000374214
-0.00154652
-0.00131954
6.02156e-05
-0.000841235
-0.00121815
-0.000710409
-0.00164376
-0.00273957
-0.00310776
-0.00372128
-0.00446632
-0.00461507
-0.000312697
-0.000532185
0.000676595
-0.000246987
7.46283e-05
-0.000235339
-0.000862052
-0.000446944
-0.00149261
-0.00142575
-8.59933e-05
-0.000809655
-0.0013914
-0.000962298
-0.00167784
-0.00283819
-0.00333906
-0.00383035
-0.00446156
-0.00466016
-0.0003
-0.000553487
0.000598893
-0.000195424
-3.37771e-05
-0.00023507
-0.000847448
-0.000523287
-0.00145248
-0.00152153
-0.000253467
-0.00079403
-0.00153321
-0.00122866
-0.00174715
-0.00290198
-0.00354107
-0.00396635
-0.00447058
-0.00468293
-0.000286757
-0.000572746
0.000513375
-0.000145392
-0.000133043
-0.000251751
-0.000822614
-0.000598036
-0.00142759
-0.00160807
-0.000438141
-0.000801311
-0.00165955
-0.00149566
-0.00185328
-0.00294434
-0.00370579
-0.00411962
-0.00450313
-0.0046913
-0.000273918
-0.000588738
0.000420591
-9.97549e-05
-0.00021964
-0.000285484
-0.000795255
-0.000667772
-0.00141785
-0.0016873
-0.000635332
-0.000836729
-0.00174419
-0.00174843
-0.00199119
-0.00298043
-0.00383177
-0.00427592
-0.00456585
-0.00469745
-0.000262411
-0.000600451
0.000321275
-6.13406e-05
-0.000291551
-0.000334946
-0.000768733
-0.000729442
-0.00142135
-0.00176155
-0.000840062
-0.000902202
-0.00180854
-0.00197752
-0.00215401
-0.00302273
-0.00392388
-0.00442037
-0.00465515
-0.00471814
-0.000253189
-0.000607224
0.000214453
-3.31735e-05
-0.000347873
-0.000395368
-0.000741415
-0.000784278
-0.00143488
-0.00183229
-0.00104787
-0.000997446
-0.00186007
-0.00217849
-0.00233395
-0.00307876
-0.00398994
-0.0045436
-0.00475964
-0.00476446
-0.000247199
-0.000608766
0.000109621
-2.12438e-05
-0.000389668
-0.000461888
-0.000741937
-0.000832734
-0.00145634
-0.00190054
-0.00125371
-0.00111795
-0.00190782
-0.00235097
-0.00252158
-0.0031512
-0.00403962
-0.0046452
-0.00486614
-0.00483278
-0.000244863
-0.00060527
6.62635e-06
-2.68342e-05
-0.000420933
-0.000530439
-0.000754944
-0.000880161
-0.00148542
-0.00196609
-0.00145278
-0.00125925
-0.0019602
-0.00249751
-0.00270828
-0.00324071
-0.00408098
-0.00472748
-0.00496621
-0.0049113
-0.000246259
-0.000597803
-9.15509e-05
-5.04829e-05
-0.000447389
-0.000598214
-0.000779403
-0.000930074
-0.00152187
-0.00202874
-0.00164115
-0.00141603
-0.00202199
-0.00262113
-0.00288842
-0.00334807
-0.00411928
-0.00479001
-0.00505952
-0.00499303
-0.000251216
-0.000588153
-0.000182335
-9.0886e-05
-0.000475225
-0.000663982
-0.00081344
-0.000982016
-0.00156458
-0.00208968
-0.00181598
-0.00158283
-0.00209487
-0.0027269
-0.00305815
-0.00347094
-0.00416248
-0.00483411
-0.00514481
-0.00507621
-0.000259249
-0.000578083
-0.000264421
-0.000145108
-0.000509346
-0.000727965
-0.000855664
-0.00103854
-0.00161178
-0.00215027
-0.0019777
-0.00175346
-0.00217864
-0.00281969
-0.00321355
-0.00360409
-0.00421942
-0.00486478
-0.00521393
-0.00516004
-0.000269765
-0.000568929
-0.000338006
-0.000208843
-0.000552193
-0.000793311
-0.000905557
-0.00109436
-0.00166094
-0.00221223
-0.00212878
-0.00192292
-0.00227109
-0.00290263
-0.00335338
-0.00374119
-0.00429211
-0.00489134
-0.00526297
-0.00524183
-0.000282234
-0.000561548
-0.000404178
-0.0002787
-0.000604615
-0.000864252
-0.000963213
-0.00114926
-0.00171184
-0.00227555
-0.00227025
-0.00208957
-0.00236971
-0.00297711
-0.00347712
-0.00387673
-0.00437732
-0.00492543
-0.00529647
-0.00531252
-0.000296186
-0.0005569
-0.000464413
-0.000352154
-0.000666061
-0.000943274
-0.00102975
-0.00120395
-0.00175831
-0.00233898
-0.0024069
-0.00225364
-0.00247394
-0.00304458
-0.00358253
-0.00400628
-0.00447197
-0.00497239
-0.00532245
-0.00536334
-0.00031123
-0.000555127
-0.000521502
-0.000427991
-0.000733904
-0.00103134
-0.00110775
-0.00125886
-0.00179859
-0.00240052
-0.00253911
-0.00241711
-0.00258358
-0.00310625
-0.00366847
-0.0041261
-0.00457252
-0.00503063
-0.00535273
-0.00539809
-0.000327221
-0.000556929
-0.000577532
-0.000505746
-0.000804839
-0.00112757
-0.00119969
-0.00131612
-0.00183098
-0.00245503
-0.00266715
-0.00258238
-0.00270067
-0.00316565
-0.00373501
-0.00422948
-0.00467302
-0.00509689
-0.00539388
-0.00542785
-0.000344236
-0.00056235
-0.000634494
-0.000586004
-0.000875657
-0.00122804
-0.00130691
-0.0013807
-0.00185613
-0.00249823
-0.00278714
-0.00274939
-0.00282961
-0.00322829
-0.00378434
-0.00431
-0.00476696
-0.00516772
-0.00544431
-0.00546416
-0.000363319
-0.000570559
-0.00069476
-0.000669967
-0.00094463
-0.001327
-0.00142908
-0.00145984
-0.00187719
-0.00252698
-0.00289257
-0.00291489
-0.00297148
-0.00330135
-0.00382362
-0.00436661
-0.00484681
-0.00523794
-0.00549864
-0.00551216
-0.000386088
-0.000583732
-0.000753408
-0.000757903
-0.00101196
-0.00141885
-0.00156254
-0.00155978
-0.00190128
-0.00254055
-0.00297883
-0.00307208
-0.00312315
-0.00339031
-0.00386254
-0.00440277
-0.00490575
-0.00530217
-0.00555126
-0.00556591
-0.000413162
-0.000601123
-0.000811924
-0.000850803
-0.00108004
-0.00149954
-0.00169852
-0.00168208
-0.00193937
-0.00254155
-0.00304121
-0.00321423
-0.0032797
-0.00349558
-0.00391086
-0.00442701
-0.00494012
-0.00535341
-0.00559918
-0.00561674
-0.000445112
-0.000623394
-0.000869534
-0.00094829
-0.0011527
-0.00156811
-0.00182753
-0.00182418
-0.00200043
-0.0025384
-0.00307814
-0.00333401
-0.00343369
-0.00361399
-0.00397259
-0.00445071
-0.00495459
-0.00538501
-0.00564066
-0.00566139
-0.00048259
-0.000651313
-0.000925433
-0.00104851
-0.00123373
-0.00162787
-0.00194187
-0.00197737
-0.00208791
-0.00254274
-0.00309302
-0.00342538
-0.00357573
-0.00374085
-0.0040471
-0.00448125
-0.00496118
-0.00539557
-0.00567037
-0.00569834
-0.00052583
-0.000685629
-0.0009798
-0.00114899
-0.00132458
-0.00168547
-0.00203797
-0.00212983
-0.00220165
-0.00256398
-0.00309334
-0.00348787
-0.00369661
-0.00386738
-0.00413334
-0.00452075
-0.00496968
-0.00539121
-0.005681
-0.00572485
-0.000574727
-0.000726952
-0.00103381
-0.00124743
-0.00142451
-0.00174746
-0.00211704
-0.00227001
-0.00233484
-0.00260967
-0.00308896
-0.00352292
-0.0037914
-0.00398346
-0.0042266
-0.00456955
-0.00498347
-0.00538232
-0.00567335
-0.00573753
-0.000629043
-0.000775919
-0.00108884
-0.00134205
-0.00153139
-0.00181818
-0.00218468
-0.00239128
-0.00247492
-0.00268125
-0.00309121
-0.00353476
-0.00385758
-0.00408163
-0.00431795
-0.00462579
-0.00500243
-0.0053759
-0.00565563
-0.00573369
-0.000688631
-0.000832633
-0.00114708
-0.00143189
-0.00164204
-0.00189991
-0.00224818
-0.00249293
-0.00260898
-0.0027734
-0.00311032
-0.00353348
-0.00389426
-0.00415625
-0.00439769
-0.00468314
-0.00502503
-0.00537161
-0.00563494
-0.00571586
-0.000753412
-0.000897357
-0.00121045
-0.00151775
-0.00175268
-0.00199205
-0.00231407
-0.00257815
-0.00272906
-0.00287515
-0.0031472
-0.00353105
-0.00390517
-0.00420222
-0.00445842
-0.00473275
-0.00504803
-0.00536709
-0.00561285
-0.00568898
-0.000823274
-0.000968034
-0.00128028
-0.00160216
-0.00186172
-0.00209263
-0.00238598
-0.00265284
-0.00283344
-0.00297659
-0.00319695
-0.00353305
-0.00389823
-0.00421773
-0.00449357
-0.00476409
-0.00506262
-0.00535964
-0.00558811
-0.00565688
-0.000898752
-0.00104572
-0.00135711
-0.00168609
-0.00196724
-0.00219906
-0.00246655
-0.0027232
-0.002922
-0.00307084
-0.00325441
-0.00354042
-0.0038815
-0.0042051
-0.00449728
-0.00477006
-0.00505602
-0.00533733
-0.00555059
-0.00561429
-0.000980375
-0.00113102
-0.00144131
-0.00177202
-0.00206984
-0.00230748
-0.00255546
-0.0027959
-0.00299896
-0.00315304
-0.00331196
-0.00354889
-0.00385421
-0.00416619
-0.00446688
-0.00474972
-0.00502891
-0.00529934
-0.00550123
-0.0055589
-0.00106775
-0.00121874
-0.00153177
-0.00186505
-0.00217322
-0.00241769
-0.00265138
-0.00287383
-0.00307139
-0.00322541
-0.00336715
-0.00355884
-0.00381379
-0.00409234
-0.00438088
-0.00467041
-0.00495438
-0.00522914
-0.00543859
-0.00550112
-0.00116192
-0.0013145
-0.00162881
-0.00196216
-0.00227627
-0.0025287
-0.0027541
-0.00295853
-0.00314414
-0.00328959
-0.00341422
-0.00357271
-0.00378067
-0.00400733
-0.00424786
-0.00450499
-0.00476489
-0.00502995
-0.0052674
-0.00538649
-0.00126349
-0.0014182
-0.0017318
-0.00206371
-0.00238187
-0.00264266
-0.0028666
-0.00305419
-0.00322242
-0.00335315
-0.0034476
-0.00355906
-0.0037264
-0.00392047
-0.00413589
-0.00437134
-0.00458217
-0.00475311
-0.00489571
-0.00498364
-0.00137026
-0.00152471
-0.00184039
-0.0021734
-0.00249299
-0.00275959
-0.00298852
-0.00317249
-0.00332349
-0.00344092
-0.0035003
-0.00350695
-0.00352642
-0.00358017
-0.0037063
-0.00396289
-0.00431216
-0.0046622
-0.00492937
-0.00506873
-0.0014823
-0.00164032
-0.00195931
-0.00228881
-0.00260248
-0.00286632
-0.00310148
-0.00330366
-0.00347017
-0.00362068
-0.00376164
-0.00381191
-0.00372649
-0.00356511
-0.00339869
-0.0032574
-0.00314404
-0.00306845
-0.00303469
-0.00303795
-0.00160435
-0.00176673
-0.00208704
-0.00241182
-0.00271144
-0.00296395
-0.0031943
-0.00339277
-0.00353522
-0.00354459
-0.00341996
-0.00325594
-0.00318603
-0.00324416
-0.00335341
-0.00349361
-0.00361287
-0.0036465
-0.00362438
-0.00360646
-0.00174299
-0.00189705
-0.00221711
-0.00254992
-0.00285276
-0.00307542
-0.00322563
-0.0032797
-0.00328083
-0.00330472
-0.00337758
-0.00346425
-0.00349639
-0.00344486
-0.00330824
-0.00310962
-0.00291179
-0.00275058
-0.00264711
-0.00266091
-0.00191048
-0.00203307
-0.0022924
-0.00254217
-0.00276071
-0.00292633
-0.00306417
-0.00317056
-0.00324859
-0.0033146
-0.00334909
-0.00333882
-0.00335407
-0.00343916
-0.00361611
-0.00385224
-0.00412268
-0.00443136
-0.00474677
-0.00503669
-0.00211598
-0.00225323
-0.002413
-0.00255201
-0.00270635
-0.00286999
-0.0030637
-0.00323462
-0.00333346
-0.00338794
-0.00344283
-0.00346927
-0.00347139
-0.00343189
-0.00334028
-0.00317395
-0.00300614
-0.00286845
-0.00278854
-0.00281921
-0.0022439
-0.0023721
-0.00249877
-0.00258442
-0.00270992
-0.0028635
-0.00302701
-0.00315548
-0.00325576
-0.00333156
-0.00339532
-0.00340383
-0.00336243
-0.0033459
-0.00335462
-0.00339656
-0.00344971
-0.00350656
-0.00359146
-0.00376083
3.49183e-05
-0.000967972
-0.00737782
-0.0127077
-0.0137424
-0.0123226
-0.0104792
-0.00897169
-0.00796756
-0.00749738
-0.00742979
-0.00734551
-0.00695893
-0.0064734
-0.00614897
-0.00598244
-0.00592958
-0.0059538
-0.00595133
-0.00591739
-0.00596881
-0.00608095
-0.00604697
-0.00577239
-0.00541958
-0.00518826
-0.00508809
-0.00502264
-0.00494917
-0.00486017
-0.00475368
-0.00466982
-0.00467755
-0.00478165
-0.00485929
-0.00481617
-0.00471743
-0.0046035
-0.00439705
-0.00414771
-0.00397768
-0.00386399
-0.00372303
-0.00357971
-0.00346186
-0.00334157
-0.00320059
-0.00305952
-0.0029135
-0.00277311
-0.00263514
-0.00249993
-0.00236525
-0.00223017
-0.00211918
-0.00199976
-0.00181146
-0.00158869
-0.00138105
-0.00116841
-0.000968176
-0.000798832
-0.00064633
-0.000450131
-0.000246647
-4.91761e-05
0.000163733
0.000389081
0.000600688
0.000835067
0.0010874
0.00131301
0.00150955
0.00170932
0.0019363
0.00218845
0.00245468
0.00272433
0.00297517
0.00323185
0.00347701
0.00375112
0.00402084
0.00430079
0.00457855
0.00485926
0.00515417
0.00544298
0.00576726
0.00607211
0.00641581
0.00672708
0.00710884
0.00746235
0.00787057
0.00828192
0.00872028
0.00924939
0.00990673
0.0107282
-0.000385347
-0.00106794
-0.00726777
-0.0125863
-0.0136754
-0.0122878
-0.0104571
-0.00895527
-0.00795405
-0.0074857
-0.00742049
-0.00733864
-0.00695343
-0.00646826
-0.00614386
-0.00597729
-0.00592461
-0.00594935
-0.00594741
-0.00591369
-0.00596531
-0.00607794
-0.00604442
-0.00576999
-0.00541714
-0.00518589
-0.00508596
-0.00502073
-0.00494745
-0.00485863
-0.00475225
-0.00466842
-0.00467616
-0.00478044
-0.00485832
-0.00481531
-0.00471657
-0.00460274
-0.00439638
-0.004147
-0.00397697
-0.00386338
-0.00372246
-0.00357915
-0.00346133
-0.00334108
-0.00320012
-0.00305906
-0.00291306
-0.00277268
-0.00263472
-0.00249953
-0.00236486
-0.00222979
-0.0021188
-0.00199943
-0.00181116
-0.00158838
-0.00138074
-0.00116811
-0.000967876
-0.000798535
-0.000646054
-0.000449872
-0.000246385
-4.89264e-05
0.00016397
0.000389315
0.000600913
0.000835273
0.00108761
0.00131322
0.00150975
0.0017095
0.00193647
0.00218862
0.00245483
0.00272449
0.00297532
0.003232
0.00347715
0.00375125
0.00402097
0.00430091
0.00457867
0.00485938
0.00515428
0.00544308
0.00576736
0.00607221
0.00641591
0.00672717
0.00710893
0.00746244
0.00787066
0.00828201
0.00872036
0.00924949
0.00990687
0.0107285
-0.000833699
-0.00111384
-0.00699361
-0.012327
-0.0135494
-0.0122352
-0.0104299
-0.0089379
-0.00794186
-0.00747552
-0.00741012
-0.00732857
-0.00694523
-0.00646258
-0.00614002
-0.00597382
-0.00592063
-0.00594517
-0.00594352
-0.00591027
-0.00596243
-0.0060756
-0.00604229
-0.00576771
-0.00541473
-0.00518365
-0.00508401
-0.00501898
-0.00494585
-0.00485718
-0.00475088
-0.00466707
-0.00467486
-0.00477936
-0.00485752
-0.00481459
-0.00471585
-0.00460213
-0.00439577
-0.0041463
-0.00397631
-0.00386284
-0.00372196
-0.00357864
-0.00346087
-0.00334066
-0.00319971
-0.00305866
-0.00291268
-0.00277231
-0.00263436
-0.00249917
-0.00236453
-0.00222945
-0.00211848
-0.00199917
-0.00181091
-0.0015881
-0.00138046
-0.00116784
-0.000967603
-0.000798274
-0.000645826
-0.000449653
-0.000246157
-4.87146e-05
0.000164174
0.00038952
0.000601104
0.000835447
0.0010878
0.00131341
0.00150992
0.00170965
0.00193662
0.00218876
0.00245497
0.00272463
0.00297545
0.00323212
0.00347727
0.00375136
0.00402108
0.00430102
0.00457878
0.00485948
0.00515438
0.00544318
0.00576746
0.0060723
0.006416
0.00672726
0.00710901
0.00746251
0.00787073
0.00828207
0.00872041
0.00924956
0.00990693
0.010729
-0.00122991
-0.00114314
-0.00664956
-0.0119889
-0.013376
-0.012162
-0.010392
-0.00891281
-0.00792578
-0.00746476
-0.00739798
-0.0073133
-0.00693116
-0.0064538
-0.00613631
-0.00597205
-0.00591786
-0.00594078
-0.00593882
-0.00590657
-0.00595979
-0.00607328
-0.00603967
-0.00576479
-0.00541191
-0.00518126
-0.00508193
-0.00501698
-0.00494388
-0.00485537
-0.00474924
-0.00466549
-0.00467334
-0.00477809
-0.00485659
-0.0048138
-0.00471509
-0.00460144
-0.00439505
-0.00414548
-0.00397557
-0.00386225
-0.00372139
-0.00357808
-0.00346038
-0.00334023
-0.00319927
-0.00305825
-0.00291228
-0.00277192
-0.00263399
-0.00249881
-0.00236418
-0.0022291
-0.00211816
-0.00199892
-0.00181067
-0.00158783
-0.00138018
-0.00116756
-0.000967318
-0.00079801
-0.000645604
-0.000449435
-0.000245924
-4.85034e-05
0.00016438
0.000389731
0.000601296
0.00083562
0.001088
0.00131362
0.0015101
0.0017098
0.00193676
0.0021889
0.00245511
0.00272478
0.00297559
0.00323225
0.00347738
0.00375148
0.0040212
0.00430112
0.00457889
0.00485957
0.00515448
0.00544327
0.00576755
0.00607239
0.00641609
0.00672733
0.00710909
0.00746259
0.0078708
0.00828214
0.00872045
0.0092496
0.00990692
0.0107296
-0.00161754
-0.00122211
-0.00629934
-0.0116192
-0.0131813
-0.0120789
-0.0103468
-0.00888002
-0.00790462
-0.00745261
-0.00738392
-0.00729268
-0.0069106
-0.00644054
-0.00613134
-0.00597142
-0.00591643
-0.00593632
-0.00593335
-0.00590286
-0.00595763
-0.00607069
-0.00603575
-0.00576044
-0.00540831
-0.00517863
-0.00507972
-0.0050146
-0.00494128
-0.00485288
-0.00474707
-0.00466351
-0.00467134
-0.00477626
-0.0048552
-0.00481275
-0.00471414
-0.00460049
-0.00439403
-0.00414444
-0.00397468
-0.00386151
-0.00372069
-0.00357742
-0.00345982
-0.00333972
-0.00319876
-0.00305777
-0.00291184
-0.00277149
-0.00263357
-0.0024984
-0.0023638
-0.00222872
-0.00211781
-0.00199864
-0.00181041
-0.00158753
-0.00137987
-0.00116724
-0.000967008
-0.000797731
-0.00064537
-0.000449201
-0.000245676
-4.82782e-05
0.000164603
0.000389961
0.000601501
0.000835806
0.00108822
0.00131385
0.00151029
0.00170996
0.00193692
0.00218906
0.00245527
0.00272494
0.00297575
0.00323239
0.00347751
0.0037516
0.00402132
0.00430124
0.004579
0.00485968
0.00515459
0.00544336
0.00576765
0.00607248
0.00641619
0.00672741
0.00710917
0.00746267
0.00787086
0.0082822
0.00872046
0.00924959
0.00990681
0.0107305
-0.00201421
-0.00136379
-0.00595172
-0.0112225
-0.0129684
-0.0119891
-0.0102977
-0.00884248
-0.00787937
-0.00743855
-0.00736846
-0.00726927
-0.00688632
-0.00642415
-0.00612473
-0.00597084
-0.0059156
-0.00593172
-0.0059276
-0.00589997
-0.0059568
-0.00606815
-0.00603018
-0.00575404
-0.00540339
-0.00517547
-0.0050773
-0.00501192
-0.00493806
-0.00484965
-0.00474438
-0.00466113
-0.00466869
-0.00477348
-0.00485299
-0.00481122
-0.00471282
-0.00459905
-0.00439254
-0.00414312
-0.00397357
-0.00386051
-0.00371976
-0.00357662
-0.00345914
-0.00333908
-0.00319814
-0.0030572
-0.00291132
-0.00277098
-0.00263308
-0.00249793
-0.00236338
-0.00222831
-0.00211742
-0.00199832
-0.00181012
-0.0015872
-0.00137952
-0.00116688
-0.000966673
-0.000797438
-0.000645118
-0.000448948
-0.000245414
-4.80372e-05
0.000164848
0.000390211
0.000601724
0.000836009
0.00108847
0.00131411
0.0015105
0.00171014
0.00193709
0.00218923
0.00245544
0.00272513
0.00297592
0.00323255
0.00347765
0.00375174
0.00402146
0.00430137
0.00457913
0.00485979
0.0051547
0.00544346
0.00576776
0.00607258
0.00641629
0.0067275
0.00710926
0.00746275
0.00787092
0.00828227
0.00872044
0.00924954
0.0099066
0.0107316
-0.00240607
-0.0015518
-0.00560047
-0.0107951
-0.0127364
-0.0118947
-0.0102478
-0.00880323
-0.00785129
-0.00742235
-0.00735189
-0.00724487
-0.00686089
-0.0064066
-0.00611715
-0.00596965
-0.00591433
-0.00592659
-0.00592194
-0.00589866
-0.00595814
-0.00606642
-0.00602338
-0.0057455
-0.00539673
-0.00517125
-0.00507424
-0.00500874
-0.00493423
-0.00484581
-0.00474142
-0.00465868
-0.00466553
-0.00476957
-0.00484963
-0.00480897
-0.0047109
-0.00459684
-0.00439038
-0.00414142
-0.00397218
-0.00385917
-0.00371854
-0.00357562
-0.00345829
-0.00333828
-0.00319736
-0.00305651
-0.0029107
-0.00277036
-0.00263245
-0.00249734
-0.00236289
-0.00222785
-0.00211697
-0.00199793
-0.00180978
-0.00158684
-0.00137911
-0.00116646
-0.000966311
-0.000797128
-0.000644843
-0.000448675
-0.000245141
-4.77809e-05
0.000165116
0.000390482
0.000601968
0.000836235
0.00108874
0.0013144
0.00151074
0.00171032
0.00193727
0.00218942
0.00245564
0.00272534
0.00297612
0.00323273
0.00347781
0.00375189
0.00402161
0.00430151
0.00457928
0.00485991
0.00515482
0.00544356
0.00576788
0.00607268
0.0064164
0.00672759
0.00710935
0.00746284
0.00787099
0.00828235
0.00872038
0.0092494
0.00990627
0.0107329
-0.00277279
-0.00177467
-0.00525166
-0.0103431
-0.0124879
-0.0117981
-0.0101994
-0.00876341
-0.00782063
-0.00740378
-0.00733424
-0.00722002
-0.00683502
-0.00638855
-0.00610897
-0.00596776
-0.00591232
-0.00592086
-0.00591654
-0.00589913
-0.00596205
-0.00606632
-0.00601634
-0.0057355
-0.00538841
-0.00516561
-0.00507005
-0.0050047
-0.00492967
-0.00484145
-0.00473845
-0.00465658
-0.00466229
-0.00476477
-0.00484515
-0.00480592
-0.00470819
-0.00459357
-0.00438731
-0.00413925
-0.00397043
-0.00385739
-0.00371694
-0.00357437
-0.00345722
-0.00333725
-0.00319638
-0.00305566
-0.00290995
-0.00276959
-0.00263162
-0.00249655
-0.00236226
-0.0022273
-0.00211642
-0.00199745
-0.00180939
-0.00158644
-0.00137862
-0.00116595
-0.000965904
-0.000796784
-0.000644524
-0.000448375
-0.000244862
-4.75109e-05
0.000165404
0.000390772
0.000602236
0.000836492
0.00108904
0.00131472
0.00151099
0.00171053
0.00193748
0.00218964
0.00245586
0.00272559
0.00297635
0.00323294
0.003478
0.00375207
0.00402179
0.00430167
0.00457944
0.00486005
0.00515496
0.00544368
0.00576801
0.00607279
0.00641652
0.00672768
0.00710945
0.00746294
0.00787104
0.00828244
0.00872028
0.00924917
0.00990579
0.0107344
-0.0030993
-0.0020295
-0.00492217
-0.00987521
-0.0122224
-0.0116975
-0.0101511
-0.00872261
-0.00778717
-0.00738268
-0.00731542
-0.0071947
-0.0068086
-0.00636988
-0.00610024
-0.00596543
-0.00590995
-0.00591493
-0.00591157
-0.00590121
-0.00596836
-0.00606824
-0.00601
-0.005725
-0.00537905
-0.00515876
-0.00506466
-0.00499957
-0.00492422
-0.00483657
-0.00473556
-0.00465506
-0.00465943
-0.00475964
-0.00484002
-0.00480234
-0.00470475
-0.00458909