/*--------------------------------*- C++ -*----------------------------------*\
| =========                 |                                                 |
| \\      /  F ield         | OpenFOAM: The Open Source CFD Toolbox           |
|  \\    /   O peration     | Version:  v1906                                 |
|   \\  /    A nd           | Web:      www.OpenFOAM.com                      |
|    \\/     M anipulation  |                                                 |
\*---------------------------------------------------------------------------*/
FoamFile
{
    version     2.0;
    format      ascii;
    class       volScalarField;
    location    "2.4";
    object      p;
}
// * * * * * * * * * * * * * * * * * * * * * * * * * * * * * * * * * * * * * //

dimensions      [0 2 -2 0 0 0 0];


internalField   nonuniform List<scalar> 
9600
(
-2.55045e-10
-0.000443072
-0.00127242
0.000249294
0.000882009
-0.00139461
-0.000172745
0.00151124
0.000160047
0.00104315
0.00199216
0.00224553
0.0023989
0.00314555
0.00456745
0.00591489
0.00759434
0.00950095
0.0130167
0.018481
-7.85601e-07
-0.000441908
-0.00126564
0.000238886
0.00086598
-0.00138814
-0.000162297
0.00150449
0.000169648
0.00102773
0.00198971
0.002247
0.00238744
0.00314651
0.00456948
0.0059072
0.00760955
0.00945968
0.0131893
0.0180671
-1.63662e-06
-0.000440211
-0.00125823
0.000223719
0.000849744
-0.00137799
-0.000154268
0.00149262
0.000183496
0.00100661
0.00199028
0.00225138
0.00236934
0.00315366
0.00456834
0.0059002
0.00761528
0.00941042
0.0132666
0.0174754
-2.73046e-06
-0.000439305
-0.00125003
0.000212206
0.000832172
-0.00136531
-0.00014783
0.00147509
0.000199326
0.00098301
0.00199426
0.00226182
0.00234576
0.00316343
0.00456636
0.00589115
0.00761655
0.00935943
0.0132596
0.0169587
-4.45172e-06
-0.000439124
-0.00123829
0.000203895
0.000811074
-0.00134823
-0.000141267
0.00145153
0.000219246
0.000957196
0.00200048
0.00227505
0.00231912
0.00317428
0.00456617
0.00587848
0.00761901
0.00929912
0.0132296
0.0164887
-6.88895e-06
-0.000439118
-0.00122252
0.000196812
0.000787563
-0.00132599
-0.000134248
0.00142387
0.000243811
0.000929237
0.00200836
0.00228942
0.0022935
0.00318552
0.00456849
0.00586334
0.00761943
0.00923363
0.0131692
0.0160431
-9.94987e-06
-0.000438942
-0.00120327
0.000190352
0.000763335
-0.00129923
-0.00012652
0.00139448
0.000272135
0.000900087
0.00201757
0.0023052
0.00227049
0.00319672
0.00457332
0.00584599
0.00761566
0.00916585
0.0130728
0.0156152
-1.34702e-05
-0.000438401
-0.00118124
0.000184287
0.000739484
-0.00126908
-0.000117843
0.00136487
0.000303452
0.000870736
0.00202758
0.00232217
0.00225008
0.00320743
0.00457984
0.00582704
0.00760607
0.00909618
0.0129383
0.0152025
-1.72541e-05
-0.000437422
-0.00115717
0.000178369
0.000716473
-0.00123665
-0.000108156
0.00133581
0.000337277
0.000841672
0.0020378
0.00233986
0.002232
0.00321707
0.00458712
0.00580745
0.00758866
0.00902395
0.0127674
0.0148022
-2.11411e-05
-0.000436079
-0.00113172
0.000172419
0.000694283
-0.00120288
-9.75371e-05
0.00130753
0.000373048
0.000813172
0.00204783
0.00235797
0.00221569
0.0032252
0.00459426
0.00578771
0.00756143
0.00894853
0.0125632
0.0144097
-2.5048e-05
-0.000434518
-0.00110528
0.000166308
0.00067264
-0.0011685
-8.61301e-05
0.00127992
0.000410117
0.000785508
0.0020574
0.00237627
0.00220034
0.00323185
0.00460004
0.00576788
0.00752311
0.008869
0.0123292
0.0140194
-2.89085e-05
-0.00043287
-0.00107803
0.000159918
0.000651252
-0.00113397
-7.40879e-05
0.00125276
0.000447842
0.00075892
0.00206615
0.00239455
0.00218509
0.00323733
0.0046031
0.00574803
0.00747333
0.00878322
0.0120694
0.013627
-3.27084e-05
-0.000431217
-0.00105005
0.000153166
0.000629936
-0.00109961
-6.15379e-05
0.00122583
0.000485673
0.000733628
0.00207355
0.00241279
0.00216929
0.00324182
0.00460258
0.00572797
0.00741212
0.00868803
0.0117885
0.0132305
-3.6426e-05
-0.000429609
-0.0010214
0.000146018
0.000608625
-0.00106556
-4.86103e-05
0.00119903
0.000523182
0.000709853
0.00207895
0.00243121
0.00215237
0.00324543
0.00459804
0.00570678
0.00734008
0.00858
0.011491
0.0128296
-4.0038e-05
-0.000428076
-0.00099211
0.000138464
0.000587327
-0.00103185
-3.54495e-05
0.00117237
0.000559999
0.000687849
0.00208177
0.00245016
0.00213377
0.00324836
0.00458926
0.00568272
0.00725887
0.00845617
0.0111793
0.012425
-4.35171e-05
-0.000426646
-0.000962216
0.000130504
0.000566091
-0.00099848
-2.2205e-05
0.00114594
0.000595745
0.000667954
0.00208141
0.00246994
0.00211324
0.00325056
0.00457631
0.00565322
0.00717067
0.00831508
0.0108545
0.0120182
-4.68307e-05
-0.000425344
-0.000931752
0.00012215
0.000544969
-0.000965366
-9.05539e-06
0.00111991
0.00063006
0.000650504
0.00207729
0.00249071
0.00209073
0.00325161
0.00455998
0.00561534
0.00707689
0.00815673
0.0105173
0.0116112
-4.99421e-05
-0.000424195
-0.000900754
0.000113422
0.000523994
-0.000932422
3.7621e-06
0.00109452
0.000662559
0.000635821
0.00206897
0.00251253
0.00206613
0.00325053
0.00454202
0.00556628
0.00697741
0.00798272
0.010167
0.0112059
-5.28145e-05
-0.000423224
-0.00086927
0.000104357
0.00050317
-0.000899525
1.59686e-05
0.00107005
0.000692822
0.000624196
0.00205615
0.00253537
0.00203966
0.0032456
0.00452448
0.00550418
0.00687075
0.00779624
0.00980263
0.0108025
-5.54054e-05
-0.000422457
-0.000837361
9.50138e-05
0.000482456
-0.000866516
2.72837e-05
0.00104674
0.000720452
0.000615893
0.00203865
0.00255873
0.00201196
0.00323491
0.00450871
0.00542855
0.00675461
0.00760109
0.00942415
0.0104002
-5.7666e-05
-0.000421903
-0.00080512
8.5487e-05
0.000461755
-0.000833209
3.74293e-05
0.00102479
0.000745106
0.00061103
0.00201644
0.00258174
0.00198405
0.00321661
0.00449499
0.00533981
0.00662579
0.00740103
0.00903236
0.00999562
-5.95607e-05
-0.000421539
-0.000772678
7.59001e-05
0.000440945
-0.000799415
4.61193e-05
0.00100441
0.000766539
0.000609415
0.00198979
0.00260367
0.00195707
0.00318881
0.00448274
0.00523956
0.0064806
0.00719879
0.0086295
0.0095845
-6.10868e-05
-0.000421322
-0.000740175
6.64167e-05
0.000419879
-0.000764971
5.31226e-05
0.00098568
0.000784607
0.000610715
0.00195938
0.00262335
0.00193193
0.00315031
0.00447063
0.00513038
0.0063159
0.00699517
0.00822054
0.00916222
-6.22395e-05
-0.000421182
-0.000707785
5.7249e-05
0.000398372
-0.000729732
5.8273e-05
0.0009685
0.000799396
0.000614373
0.001926
0.00263941
0.00190927
0.00310031
0.00445667
0.00501523
0.00612985
0.00678954
0.0078116
0.0087253
-6.3012e-05
-0.000420982
-0.000675758
4.85883e-05
0.00037627
-0.000693606
6.15065e-05
0.000952609
0.000811245
0.000619494
0.00189039
0.00265098
0.00188944
0.00303834
0.00443855
0.00489665
0.00592169
0.00658012
0.00740876
0.00827199
-6.3454e-05
-0.000420527
-0.000644362
4.05821e-05
0.000353485
-0.000656602
6.29453e-05
0.000937649
0.000820568
0.00062514
0.00185316
0.00265734
0.00187223
0.0029646
0.00441334
0.00477686
0.0056917
0.006364
0.00701841
0.00780242
-6.36594e-05
-0.000419586
-0.000613823
3.33914e-05
0.000329915
-0.000618787
6.28064e-05
0.000923035
0.000827966
0.00063057
0.00181461
0.00265787
0.00185726
0.00287937
0.00437875
0.00465831
0.00544147
0.00613709
0.0066468
0.00731928
-6.37433e-05
-0.00041786
-0.000584364
2.71579e-05
0.000305467
-0.000580373
6.14947e-05
0.000907878
0.000834083
0.00063536
0.00177464
0.0026522
0.00184418
0.00278274
0.0043301
0.00454348
0.00517413
0.00589434
0.00629865
0.00682993
-6.38438e-05
-0.000415045
-0.000556226
2.19441e-05
0.000280216
-0.000541825
5.96881e-05
0.00089147
0.000839228
0.000639222
0.00173294
0.00264002
0.0018323
0.00267512
0.00426552
0.0044337
0.00489477
0.00563097
0.00597524
0.00634714
-6.41242e-05
-0.000410816
-0.000529593
1.76611e-05
0.000254362
-0.000503704
5.82321e-05
0.000873417
0.00084338
0.000641995
0.0016891
0.00262076
0.00182097
0.00255741
0.00418224
0.00432901
0.00460977
0.0053409
0.00567271
0.00588622
-6.4785e-05
-0.000404836
-0.000504542
1.41047e-05
0.000228306
-0.000466732
5.7783e-05
0.000853431
0.000845935
0.000643595
0.00164276
0.00259395
0.00180966
0.00243073
0.00407799
0.00422822
0.00432585
0.00502297
0.00538163
0.00546178
-6.60102e-05
-0.000396837
-0.000481093
1.1034e-05
0.000202767
-0.000431774
5.84914e-05
0.000831594
0.000846286
0.000643687
0.00159331
0.0025593
0.00179779
0.0022961
0.00395138
0.00412919
0.00404961
0.00468035
0.00508866
0.00508201
-6.79527e-05
-0.0003866
-0.000459145
7.9312e-06
0.000178524
-0.000399343
6.02754e-05
0.000808596
0.000843874
0.000641754
0.00154001
0.00251601
0.0017848
0.00215492
0.00380142
0.0040291
0.00378588
0.00431887
0.00478215
0.0047431
-7.07759e-05
-0.000374006
-0.000438394
3.98897e-06
0.000156289
-0.000369628
6.25417e-05
0.000785337
0.000838365
0.000637012
0.00148218
0.00246316
0.00177
0.00200918
0.00362821
0.0039248
0.00353764
0.00394589
0.0044557
0.00443395
-7.44995e-05
-0.000359144
-0.000418231
-1.57885e-06
0.000136383
-0.000342291
6.40529e-05
0.000762094
0.000830011
0.000628565
0.00141876
0.00240007
0.00175293
0.00186128
0.00343255
0.0038132
0.00330706
0.00356785
0.00410786
0.00413946
-7.91876e-05
-0.000342339
-0.000397625
-9.16794e-06
0.00011846
-0.000316466
6.39966e-05
0.000738554
0.000819486
0.000615726
0.00134849
0.00232587
0.0017333
0.00171403
0.00321545
0.00369052
0.00309567
0.00319035
0.00373994
0.00384699
-8.47902e-05
-0.000324194
-0.000375265
-1.87238e-05
0.000101196
-0.000291384
6.22898e-05
0.000714159
0.000806948
0.000598079
0.00127049
0.00223985
0.00171064
0.0015706
0.00297893
0.00355192
0.00290351
0.00281902
0.00335355
0.00354864
-9.09901e-05
-0.000305511
-0.000350367
-2.97745e-05
8.30187e-05
-0.000266655
5.90359e-05
0.000687637
0.000792188
0.000575874
0.00118459
0.00214203
0.00168467
0.0014338
0.00272553
0.003392
0.00272926
0.00246062
0.00295
0.00323902
-9.74994e-05
-0.000287082
-0.00032273
-4.12861e-05
6.24737e-05
-0.000242562
5.43324e-05
0.000657289
0.0007748
0.000550621
0.00109217
0.00203265
0.00165404
0.00130547
0.00245846
0.00320603
0.00256966
0.00212332
0.00253206
0.00291264
-0.000103944
-0.000269616
-0.000291993
-5.1712e-05
3.86499e-05
-0.000220767
4.80229e-05
0.000622007
0.000754153
0.000524138
0.000995516
0.00191189
0.00161616
0.00118642
0.00218217
0.0029908
0.00241813
0.00181449
0.00210628
0.00256373
-0.000109628
-0.000253625
-0.000259207
-5.93866e-05
1.14574e-05
-0.000203636
3.97317e-05
0.000581419
0.000729511
0.00049772
0.000897237
0.00178044
0.00156784
0.0010759
0.0019021
0.00274595
0.00226587
0.00153824
0.00168336
0.00218851
-0.000113938
-0.0002394
-0.000225909
-6.2884e-05
-1.84296e-05
-0.000193401
2.84978e-05
0.000535022
0.000699393
0.000472298
0.000800521
0.00163931
0.00150614
0.000972688
0.00162363
0.0024739
0.00210464
0.00129414
0.00127523
0.00178796
-0.000116445
-0.000226957
-0.000193347
-6.11801e-05
-4.98558e-05
-0.000191826
1.29656e-05
0.000481779
0.000659991
0.000448322
0.000709025
0.00149067
0.00142889
0.000874811
0.00135131
0.00217808
0.00192774
0.00107812
0.000892353
0.00136938
-0.000117164
-0.000215797
-0.000163546
-5.3891e-05
-8.80637e-05
-0.000199668
-9.03181e-06
0.000419874
0.000610413
0.000425716
0.000625019
0.00133786
0.00133517
0.000779115
0.00108939
0.0018631
0.00172963
0.000884169
0.000542556
0.000944425
-0.000116094
-0.000205623
-0.000137795
-4.17615e-05
-0.000112937
-0.000216771
-3.91319e-05
0.000349907
0.000553205
0.00040292
0.000548406
0.00118316
0.00122504
0.000681898
0.000840592
0.00153548
0.00150628
0.000704374
0.000230481
0.000526068
-0.000112395
-0.000196361
-0.000117211
-2.77705e-05
-0.000138766
-0.000243736
-7.33248e-05
0.000281622
0.000489418
0.000372028
0.000473189
0.00102722
0.00109994
0.000580116
0.000605633
0.00120233
0.00125618
0.000528848
-4.29104e-05
0.000127084
-0.000106159
-0.000187647
-0.000103388
-1.5597e-05
-0.000162438
-0.000275846
-0.000109739
0.000217652
0.000419647
0.00032854
0.000393802
0.00087026
0.000962638
0.000472706
0.000384337
0.000870018
0.000981429
0.000347567
-0.000281812
-0.000242107
-9.84449e-05
-0.000178887
-9.69895e-05
-7.38954e-06
-0.000179891
-0.000309912
-0.00015068
0.000155563
0.000345231
0.000272164
0.000308742
0.000712793
0.00081548
0.000359122
0.00017591
0.000543736
0.000686727
0.000153071
-0.000494474
-0.000574792
-8.89284e-05
-0.000169775
-9.93463e-05
-4.47339e-06
-0.000192427
-0.000344301
-0.000197796
9.20752e-05
0.000269097
0.000206291
0.000217829
0.000554533
0.000659868
0.000238325
-2.15287e-05
0.000227508
0.000377734
-5.84338e-05
-0.000690693
-0.000868511
-7.85614e-05
-0.000159928
-0.000105072
-8.36461e-06
-0.00020102
-0.000377295
-0.000251303
2.48335e-05
0.000191944
0.000134565
0.000121171
0.000393388
0.000495528
0.00010929
-0.000209803
-7.48254e-05
6.12636e-05
-0.000287558
-0.000880045
-0.00112626
-6.79475e-05
-0.00014894
-0.000115225
-2.06124e-05
-0.000207464
-0.000407223
-0.000310155
-4.76455e-05
0.000113653
5.85719e-05
1.92021e-05
0.000228805
0.000321907
-2.83707e-05
-0.000389876
-0.000360808
-0.000256173
-0.000532649
-0.00107044
-0.00135603
-5.76356e-05
-0.000136809
-0.000128498
-4.19164e-05
-0.000196091
-0.000433041
-0.000372377
-0.000127082
3.22893e-05
-2.08395e-05
-8.58976e-05
6.26165e-05
0.000139626
-0.000175845
-0.000563953
-0.000630311
-0.000569878
-0.000790113
-0.00126607
-0.00156705
-4.84075e-05
-0.000124006
-0.000143379
-7.26912e-05
-0.000210643
-0.000455318
-0.000435441
-0.000213733
-5.47391e-05
-0.000103576
-0.000192449
-0.000103928
-4.95766e-05
-0.000334249
-0.000735093
-0.000883234
-0.000875262
-0.00105548
-0.00146803
-0.00176698
-4.09587e-05
-0.000111546
-0.000158408
-0.000111412
-0.000231428
-0.000474805
-0.000497112
-0.000306621
-0.000150179
-0.000190665
-0.000299287
-0.000269134
-0.000243428
-0.000502604
-0.000905881
-0.0011206
-0.0011688
-0.00132556
-0.00167656
-0.00196069
-3.57246e-05
-0.000100603
-0.000172462
-0.000155753
-0.000260278
-0.000493706
-0.000555864
-0.000403948
-0.000255135
-0.000284604
-0.000406308
-0.000429986
-0.000439642
-0.000679787
-0.0010781
-0.00134554
-0.0014488
-0.0015971
-0.00189138
-0.00214948
-3.30306e-05
-9.24552e-05
-0.000185168
-0.000202954
-0.000298164
-0.000515362
-0.000611067
-0.000505002
-0.000368737
-0.000388318
-0.000515566
-0.000584613
-0.000634669
-0.000864754
-0.00125272
-0.00156019
-0.00171429
-0.00186562
-0.002112
-0.00233438
-3.31008e-05
-8.80207e-05
-0.000196838
-0.000250775
-0.000344905
-0.00054322
-0.000663013
-0.000602969
-0.000489537
-0.00050235
-0.000629989
-0.000734768
-0.000823904
-0.00105369
-0.00143037
-0.00176582
-0.00196552
-0.00212771
-0.00233787
-0.00251891
-3.5868e-05
-8.78346e-05
-0.000208716
-0.000297786
-0.00039927
-0.000579602
-0.000713396
-0.000697782
-0.000614734
-0.000625759
-0.000751158
-0.000882894
-0.00100646
-0.00124142
-0.00160977
-0.00196433
-0.00220322
-0.00238106
-0.00256632
-0.00270652
-4.13378e-05
-9.22588e-05
-0.000222367
-0.000343213
-0.00045928
-0.000625881
-0.000766092
-0.000788862
-0.000740111
-0.000757128
-0.000879692
-0.00103023
-0.00118416
-0.00142585
-0.00178756
-0.00215651
-0.00242799
-0.00262379
-0.00279363
-0.00289817
-4.96248e-05
-0.000101443
-0.000239207
-0.000387109
-0.000522672
-0.000682293
-0.00082376
-0.000876429
-0.000862328
-0.000893483
-0.00101606
-0.00117789
-0.00135672
-0.00160747
-0.00196174
-0.00234045
-0.00264006
-0.00285479
-0.00301707
-0.00309294
-6.07177e-05
-0.000115345
-0.000260386
-0.000430373
-0.000587515
-0.000747705
-0.000888458
-0.000962576
-0.000980667
-0.0010302
-0.00115798
-0.00132851
-0.0015242
-0.00178498
-0.00213292
-0.00251478
-0.00283831
-0.00307255
-0.0032336
-0.00328855
-7.51292e-05
-0.000133809
-0.000286596
-0.000474314
-0.000652631
-0.000819944
-0.000961229
-0.00105054
-0.001096
-0.00116436
-0.00130109
-0.00148159
-0.00168919
-0.00195657
-0.00230086
-0.002681
-0.00302154
-0.0032753
-0.00343971
-0.00348176
-9.33093e-05
-0.00015654
-0.000317968
-0.00052074
-0.000717949
-0.000896434
-0.0010416
-0.00114232
-0.00120901
-0.00129571
-0.00144197
-0.00163274
-0.00185254
-0.00212281
-0.00246309
-0.00284025
-0.00319018
-0.00346136
-0.00363238
-0.00366829
-0.000115733
-0.000183443
-0.0003543
-0.000571029
-0.000784228
-0.00097514
-0.00112831
-0.00123901
-0.00132116
-0.00142379
-0.0015799
-0.0017791
-0.00201053
-0.00228479
-0.00261842
-0.00299112
-0.00334555
-0.00362974
-0.00380918
-0.00384315
-0.000142834
-0.000214836
-0.000395031
-0.000625497
-0.000852736
-0.00105572
-0.00121937
-0.00134059
-0.00143448
-0.00154824
-0.00171322
-0.00191978
-0.00215921
-0.00243901
-0.00276697
-0.0031316
-0.00348767
-0.00378091
-0.00396884
-0.00400412
-0.000174938
-0.00025105
-0.000440029
-0.000684089
-0.000924846
-0.00113897
-0.00131301
-0.00144542
-0.00154997
-0.00167064
-0.00184073
-0.00205343
-0.00229768
-0.00258049
-0.00290568
-0.00326056
-0.00361443
-0.00391463
-0.0041104
-0.00414929
-0.000212225
-0.000292468
-0.00048942
-0.000746762
-0.00100103
-0.00122558
-0.00140952
-0.00155248
-0.00166654
-0.00179201
-0.00196253
-0.00217769
-0.0024253
-0.0027073
-0.00302968
-0.0033765
-0.00372393
-0.00402863
-0.004232
-0.00427614
-0.000254742
-0.00033926
-0.000543603
-0.000813633
-0.00108136
-0.001316
-0.00150914
-0.00166173
-0.00178372
-0.00191206
-0.00207953
-0.002291
-0.00253866
-0.00281779
-0.00313404
-0.00347445
-0.00381366
-0.00411879
-0.00432986
-0.00438102
-0.00030267
-0.000391527
-0.000602886
-0.000884831
-0.00116601
-0.00141077
-0.00161228
-0.00177317
-0.00190161
-0.00203069
-0.00219232
-0.00239418
-0.00263475
-0.00290783
-0.00321431
-0.00354648
-0.0038778
-0.00417927
-0.00439684
-0.00445708
-0.000356047
-0.000449409
-0.000667505
-0.000960193
-0.00125509
-0.00151075
-0.00171999
-0.0018876
-0.00202092
-0.00214848
-0.00230109
-0.00248822
-0.0027126
-0.002972
-0.00326314
-0.00358251
-0.00390631
-0.00420337
-0.00442555
-0.00449679
-0.00041517
-0.000512938
-0.000737498
-0.00103957
-0.00134861
-0.0016168
-0.0018337
-0.00200617
-0.00214264
-0.00226694
-0.00240745
-0.00257507
-0.00277412
-0.00300626
-0.00326983
-0.00356461
-0.00387683
-0.00417328
-0.00440471
-0.00449425
-0.000480324
-0.000582921
-0.000812044
-0.00112323
-0.00144709
-0.00172887
-0.00195518
-0.00213232
-0.00226906
-0.00238729
-0.00251191
-0.00265448
-0.00282161
-0.00301411
-0.00323281
-0.00348063
-0.00375404
-0.00403312
-0.0042736
-0.00440197
-0.000549689
-0.000656482
-0.000892439
-0.00121389
-0.00155207
-0.00184697
-0.00208421
-0.00227069
-0.00241006
-0.00251752
-0.00261737
-0.00272248
-0.00284735
-0.00299432
-0.00316438
-0.00335819
-0.00357189
-0.00379239
-0.00397944
-0.0040742
-0.000622333
-0.00073274
-0.000979503
-0.001312
-0.00166266
-0.00197086
-0.00222127
-0.00242187
-0.00257562
-0.00268689
-0.00276037
-0.00279316
-0.00279963
-0.00280396
-0.0028413
-0.002953
-0.00315836
-0.0034456
-0.00375836
-0.00400299
-0.00070038
-0.000818128
-0.00107105
-0.00141016
-0.00177095
-0.00209399
-0.00236309
-0.00258635
-0.00276363
-0.00290438
-0.00303755
-0.00315516
-0.00319002
-0.00304784
-0.00272526
-0.00237038
-0.00207999
-0.00188541
-0.00179526
-0.00183974
-0.000784246
-0.000913099
-0.00117239
-0.00151265
-0.00187563
-0.00220522
-0.00248544
-0.00273107
-0.002935
-0.00306642
-0.00305794
-0.00287859
-0.0026375
-0.00244126
-0.00231565
-0.00224839
-0.00220962
-0.00217467
-0.00215583
-0.00220356
-0.000870408
-0.000994281
-0.00127319
-0.0016406
-0.00203834
-0.00241182
-0.00271792
-0.00291005
-0.00293204
-0.00283141
-0.00271629
-0.00262743
-0.00256511
-0.00249926
-0.00237328
-0.00218443
-0.00195325
-0.00172401
-0.00155995
-0.00154643
-0.000988832
-0.00111382
-0.00132777
-0.00162669
-0.00197928
-0.0023141
-0.00256416
-0.0027206
-0.00279755
-0.00282071
-0.00284951
-0.00289863
-0.00295815
-0.0030376
-0.00307965
-0.00301632
-0.00279815
-0.00240976
-0.00195005
-0.00161588
-0.00107994
-0.00124106
-0.00149086
-0.00179364
-0.00211086
-0.00239691
-0.00260555
-0.00273905
-0.00281204
-0.00281466
-0.00276593
-0.00269635
-0.00258028
-0.0024299
-0.00225756
-0.00206042
-0.00186248
-0.00169101
-0.00159838
-0.00165874
-0.00108224
-0.00122598
-0.00150697
-0.00188019
-0.00225545
-0.0025535
-0.00271647
-0.0027596
-0.00274225
-0.00269514
-0.00263677
-0.00261215
-0.00260129
-0.00257052
-0.00251697
-0.00242427
-0.0022952
-0.00215547
-0.00206169
-0.00209968
0.0287328
0.0190749
0.00754394
-0.000218523
-0.00283735
-0.00277534
-0.00262336
-0.00287441
-0.00319624
-0.0034083
-0.00353699
-0.00362829
-0.00375523
-0.00402511
-0.00442728
-0.00478732
-0.00499477
-0.00515385
-0.00539211
-0.00570716
-0.0060528
-0.00637726
-0.00664216
-0.00689649
-0.00721273
-0.00756417
-0.00787153
-0.00811343
-0.00833247
-0.00857172
-0.00882513
-0.0090642
-0.00929235
-0.00954198
-0.00982217
-0.0101089
-0.0103978
-0.010709
-0.0110369
-0.0113442
-0.0116232
-0.0119079
-0.0122109
-0.0125031
-0.0127793
-0.0130721
-0.0133938
-0.0137211
-0.0140449
-0.0143842
-0.0147415
-0.0150844
-0.015418
-0.0157719
-0.0161248
-0.0164673
-0.0168257
-0.0171948
-0.0175663
-0.0179543
-0.0183534
-0.0187519
-0.0191549
-0.0195609
-0.0199687
-0.0203871
-0.0208185
-0.0212546
-0.0216954
-0.0221411
-0.0225914
-0.0230514
-0.0235217
-0.0239983
-0.0244812
-0.0249684
-0.0254638
-0.0259643
-0.0264773
-0.0269994
-0.0275285
-0.0280641
-0.0286072
-0.0291595
-0.029724
-0.030296
-0.0308804
-0.031471
-0.0320734
-0.0326835
-0.0333061
-0.033939
-0.0345836
-0.0352391
-0.0359054
-0.0365844
-0.0372844
-0.037981
-0.0386825
-0.0394092
0.0271381
0.0188699
0.00762308
-7.92038e-05
-0.00274742
-0.00273033
-0.0025973
-0.00285861
-0.00318567
-0.00340015
-0.0035301
-0.00362202
-0.00374912
-0.00401932
-0.00442229
-0.00478323
-0.00499116
-0.00515042
-0.00538892
-0.00570427
-0.00605025
-0.00637506
-0.00664016
-0.00689454
-0.00721087
-0.00756251
-0.00787007
-0.00811207
-0.00833115
-0.00857045
-0.00882397
-0.00906314
-0.00929134
-0.00954099
-0.00982124
-0.0101081
-0.0103969
-0.0107082
-0.0110362
-0.0113435
-0.0116225
-0.0119072
-0.0122103
-0.0125026
-0.0127787
-0.0130715
-0.0133933
-0.0137206
-0.0140445
-0.0143838
-0.014741
-0.015084
-0.0154176
-0.0157715
-0.0161244
-0.0164669
-0.0168254
-0.0171945
-0.017566
-0.017954
-0.0183531
-0.0187516
-0.0191546
-0.0195606
-0.0199684
-0.0203869
-0.0208183
-0.0212544
-0.0216952
-0.0221409
-0.0225913
-0.0230512
-0.0235215
-0.0239981
-0.024481
-0.0249682
-0.0254637
-0.0259642
-0.0264772
-0.0269993
-0.0275284
-0.028064
-0.0286071
-0.0291593
-0.0297239
-0.0302959
-0.0308803
-0.0314709
-0.0320732
-0.0326834
-0.033306
-0.033939
-0.0345835
-0.0352391
-0.0359053
-0.0365844
-0.0372843
-0.0379809
-0.0386824
-0.0394091
0.0259003
0.0187347
0.00780861
0.00017693
-0.0026025
-0.0026757
-0.00256726
-0.00283545
-0.00316867
-0.00338804
-0.00352141
-0.00361559
-0.0037438
-0.00401431
-0.00441751
-0.00477892
-0.00498733
-0.00514701
-0.00538589
-0.00570152
-0.00604777
-0.00637292
-0.00663827
-0.00689275
-0.00720924
-0.00756107
-0.00786878
-0.00811085
-0.00832996
-0.00856932
-0.00882294
-0.00906218
-0.00929042
-0.00954011
-0.00982042
-0.0101073
-0.0103962
-0.0107075
-0.0110356
-0.0113429
-0.0116219
-0.0119066
-0.0122098
-0.0125021
-0.0127782
-0.013071
-0.0133929
-0.0137202
-0.0140441
-0.0143834
-0.0147407
-0.0150836
-0.0154173
-0.0157712
-0.0161241
-0.0164666
-0.0168251
-0.0171943
-0.0175658
-0.0179538
-0.0183529
-0.0187514
-0.0191544
-0.0195604
-0.0199682
-0.0203867
-0.0208181
-0.0212542
-0.021695
-0.0221407
-0.0225911
-0.023051
-0.0235213
-0.023998
-0.0244808
-0.0249681
-0.0254635
-0.0259641
-0.0264771
-0.0269992
-0.0275283
-0.0280639
-0.028607
-0.0291592
-0.0297238
-0.0302958
-0.0308802
-0.0314708
-0.0320732
-0.0326834
-0.0333059
-0.0339389
-0.0345835
-0.035239
-0.0359053
-0.0365843
-0.0372842
-0.0379808
-0.0386824
-0.0394092
0.0247527
0.018558
0.00801982
0.000487026
-0.00241085
-0.0026001
-0.00252155
-0.00279666
-0.00313892
-0.00336697
-0.00350704
-0.00360652
-0.0037382
-0.00400958
-0.00441201
-0.00477296
-0.0049821
-0.005143
-0.0053826
-0.00569821
-0.00604435
-0.00636983
-0.00663576
-0.0068907
-0.00720743
-0.0075594
-0.00786724
-0.00810948
-0.00832868
-0.00856808
-0.00882175
-0.00906108
-0.00928939
-0.00953914
-0.00981951
-0.0101065
-0.0103954
-0.0107068
-0.0110349
-0.0113423
-0.0116213
-0.011906
-0.0122092
-0.0125015
-0.0127777
-0.0130705
-0.0133924
-0.0137198
-0.0140436
-0.014383
-0.0147403
-0.0150833
-0.0154169
-0.0157708
-0.0161238
-0.0164663
-0.0168248
-0.017194
-0.0175655
-0.0179535
-0.0183527
-0.0187512
-0.0191542
-0.0195602
-0.019968
-0.0203865
-0.0208179
-0.0212541
-0.0216948
-0.0221405
-0.0225909
-0.0230509
-0.0235212
-0.0239978
-0.0244807
-0.0249679
-0.0254634
-0.0259639
-0.0264769
-0.0269991
-0.0275282
-0.0280638
-0.0286069
-0.0291591
-0.0297237
-0.0302957
-0.0308801
-0.0314707
-0.0320731
-0.0326833
-0.0333058
-0.0339388
-0.0345834
-0.0352389
-0.0359052
-0.0365842
-0.0372841
-0.0379808
-0.0386824
-0.0394094
0.023598
0.0183059
0.00822548
0.000812915
-0.00219982
-0.00251425
-0.00246733
-0.00274578
-0.00309664
-0.00333556
-0.00348496
-0.00359286
-0.00373112
-0.00400465
-0.00440526
-0.00476449
-0.00497469
-0.00513812
-0.00537917
-0.00569439
-0.00603956
-0.006365
-0.00663193
-0.00688792
-0.00720504
-0.007557
-0.00786504
-0.00810772
-0.0083272
-0.00856661
-0.00882024
-0.00905967
-0.00928812
-0.00953794
-0.00981835
-0.0101054
-0.0103945
-0.0107059
-0.0110341
-0.0113416
-0.0116206
-0.0119053
-0.0122086
-0.0125009
-0.0127771
-0.0130699
-0.0133918
-0.0137192
-0.0140431
-0.0143825
-0.0147399
-0.0150829
-0.0154165
-0.0157705
-0.0161235
-0.016466
-0.0168245
-0.0171937
-0.0175652
-0.0179532
-0.0183524
-0.0187509
-0.0191539
-0.01956
-0.0199678
-0.0203862
-0.0208177
-0.0212539
-0.0216946
-0.0221404
-0.0225907
-0.0230507
-0.023521
-0.0239977
-0.0244806
-0.0249678
-0.0254632
-0.0259638
-0.0264768
-0.0269989
-0.027528
-0.0280636
-0.0286067
-0.029159
-0.0297236
-0.0302956
-0.03088
-0.0314706
-0.032073
-0.0326832
-0.0333057
-0.0339387
-0.0345833
-0.0352388
-0.0359051
-0.0365842
-0.0372841
-0.0379807
-0.0386823
-0.0394096
0.0224451
0.017993
0.00842504
0.00114505
-0.00197868
-0.00242462
-0.00241257
-0.00269092
-0.0030477
-0.00329715
-0.00345675
-0.00357494
-0.00372211
-0.00399894
-0.00439702
-0.00475353
-0.00496511
-0.00513237
-0.00537576
-0.00569036
-0.00603363
-0.0063584
-0.0066266
-0.00688417
-0.00720169
-0.00755337
-0.00786169
-0.00810529
-0.00832545
-0.00856486
-0.00881835
-0.00905793
-0.00928664
-0.00953649
-0.00981681
-0.010104
-0.0103933
-0.0107049
-0.0110332
-0.0113407
-0.0116198
-0.0119046
-0.0122078
-0.0125002
-0.0127764
-0.0130692
-0.0133911
-0.0137186
-0.0140426
-0.014382
-0.0147394
-0.0150824
-0.0154161
-0.01577
-0.016123
-0.0164655
-0.0168241
-0.0171933
-0.0175648
-0.0179529
-0.0183521
-0.0187506
-0.0191537
-0.0195597
-0.0199675
-0.020386
-0.0208175
-0.0212536
-0.0216944
-0.0221402
-0.0225905
-0.0230505
-0.0235208
-0.0239975
-0.0244804
-0.0249676
-0.0254631
-0.0259636
-0.0264767
-0.0269988
-0.0275279
-0.0280635
-0.0286066
-0.0291589
-0.0297235
-0.0302955
-0.0308799
-0.0314705
-0.0320729
-0.0326831
-0.0333056
-0.0339386
-0.0345832
-0.0352388
-0.035905
-0.0365841
-0.037284
-0.0379807
-0.0386823
-0.0394099
0.0213137
0.0176315
0.00861314
0.00147804
-0.00174932
-0.00233155
-0.0023591
-0.00263545
-0.0029955
-0.00325464
-0.00342461
-0.00355397
-0.00371129
-0.00399214
-0.00438742
-0.00474072
-0.00495395
-0.00512594
-0.00537236
-0.00568631
-0.00602703
-0.00635059
-0.00662017
-0.00687959
-0.00719728
-0.00754817
-0.00785677
-0.00810186
-0.00832321
-0.00856274
-0.00881601
-0.00905587
-0.00928504
-0.00953486
-0.00981489
-0.0101021
-0.0103918
-0.0107036
-0.0110319
-0.0113396
-0.0116189
-0.0119038
-0.0122069
-0.0124993
-0.0127755
-0.0130684
-0.0133903
-0.0137178
-0.0140419
-0.0143813
-0.0147388
-0.0150819
-0.0154155
-0.0157695
-0.0161226
-0.0164651
-0.0168236
-0.0171929
-0.0175644
-0.0179525
-0.0183517
-0.0187503
-0.0191533
-0.0195594
-0.0199672
-0.0203857
-0.0208172
-0.0212534
-0.0216942
-0.0221399
-0.0225903
-0.0230503
-0.0235206
-0.0239973
-0.0244802
-0.0249674
-0.0254629
-0.0259635
-0.0264765
-0.0269986
-0.0275278
-0.0280634
-0.0286065
-0.0291587
-0.0297234
-0.0302954
-0.0308798
-0.0314704
-0.0320728
-0.032683
-0.0333055
-0.0339385
-0.0345831
-0.0352387
-0.0359049
-0.036584
-0.0372839
-0.0379806
-0.0386823
-0.0394103
0.0202179
0.0172227
0.00877971
0.00180803
-0.00151044
-0.00223247
-0.00230616
-0.00258007
-0.00294115
-0.00320925
-0.00338973
-0.00353069
-0.00369884
-0.00398427
-0.00437681
-0.00472674
-0.00494182
-0.00511902
-0.00536883
-0.00568219
-0.0060201
-0.00634224
-0.00661331
-0.00687465
-0.00719204
-0.00754149
-0.0078502
-0.00809722
-0.00832027
-0.00856008
-0.00881315
-0.00905349
-0.0092834
-0.00953325
-0.00981273
-0.0100998
-0.0103898
-0.0107019
-0.0110301
-0.011338
-0.0116177
-0.0119028
-0.0122059
-0.0124982
-0.0127746
-0.0130675
-0.0133893
-0.0137168
-0.014041
-0.0143805
-0.014738
-0.0150812
-0.0154149
-0.015769
-0.016122
-0.0164645
-0.0168231
-0.0171923
-0.0175639
-0.017952
-0.0183513
-0.0187499
-0.0191529
-0.019559
-0.0199668
-0.0203853
-0.0208169
-0.0212531
-0.0216939
-0.0221396
-0.02259
-0.02305
-0.0235204
-0.0239971
-0.02448
-0.0249672
-0.0254627
-0.0259633
-0.0264763
-0.0269985
-0.0275276
-0.0280632
-0.0286063
-0.0291586
-0.0297232
-0.0302952
-0.0308797
-0.0314703
-0.0320726
-0.0326828
-0.0333054
-0.0339384
-0.034583
-0.0352386
-0.0359048
-0.0365839
-0.0372838
-0.0379805
-0.0386822
-0.0394108
0.0191653
0.0167662
0.00891779
0.00213445
-0.00125931
-0.00212445
-0.00225292
-0.00252554
-0.00288557
-0.00316165
-0.0033526
-0.00350541
-0.00368494
-0.00397552
-0.00436551
-0.00471201
-0.00492898
-0.00511161
-0.00536504
-0.00567787
-0.00601294
-0.00633369
-0.00660642
-0.00686971
-0.0071864
-0.00753376
-0.00784226
-0.00809142
-0.00831653
-0.0085568
-0.00880971
-0.00905073
-0.00928172
-0.00953174
-0.00981058
-0.0100973
-0.0103877
-0.0106997
-0.0110278
-0.0113358
-0.0116162
-0.0119016
-0.0122046
-0.012497
-0.0127737
-0.0130666
-0.0133881
-0.0137156
-0.0140399
-0.0143796
-0.014737
-0.0150803
-0.0154142
-0.0157683
-0.0161213
-0.0164639
-0.0168225
-0.0171917
-0.0175633
-0.0179514
-0.0183507
-0.0187494
-0.0191525
-0.0195586
-0.0199664
-0.0203849
-0.0208165
-0.0212527
-0.0216935
-0.0221393
-0.0225897
-0.0230497
-0.0235201
-0.0239968
-0.0244797
-0.024967
-0.0254625
-0.025963
-0.0264761
-0.0269983
-0.0275274
-0.028063
-0.0286061
-0.0291584
-0.029723
-0.030295
-0.0308795
-0.0314701
-0.0320725
-0.0326827
-0.0333052
-0.0339383
-0.0345829
-0.0352384
-0.0359047
-0.0365837
-0.0372836
-0.0379804
-0.0386822
-0.0394115
0.0181598
0.0162666
0.00902455
0.00245698
-0.000994983
-0.00200611
-0.00219956
-0.00247323
-0.00282984
-0.0031122
-0.00331322
-0.00347812