/*--------------------------------*- C++ -*----------------------------------*\
| =========                 |                                                 |
| \\      /  F ield         | OpenFOAM: The Open Source CFD Toolbox           |
|  \\    /   O peration     | Version:  v1812                                 |
|   \\  /    A nd           | Web:      www.OpenFOAM.com                      |
|    \\/     M anipulation  |                                                 |
\*---------------------------------------------------------------------------*/
FoamFile
{
    version     2.0;
    format      ascii;
    class       volVectorField;
    location    "2.4";
    object      U;
}
// * * * * * * * * * * * * * * * * * * * * * * * * * * * * * * * * * * * * * //

dimensions      [0 1 -1 0 0 0 0];


internalField   nonuniform List<vector> 
9600
(
(0.841588 -0.00057286 0)
(1.14104 -0.00373901 0)
(0.894927 0.00307342 0)
(1.16559 0.00741183 0)
(0.810467 0.00116433 0)
(1.07281 -0.00709815 0)
(0.919472 -0.00899834 0)
(1.12213 -0.0124787 0)
(0.892086 0.00579787 0)
(1.15557 0.00280703 0)
(0.852007 0.0101667 0)
(1.11771 0.0130291 0)
(0.85608 0.00322795 0)
(1.07152 0.00162155 0)
(0.881997 -0.00487713 0)
(1.06205 -0.00411344 0)
(0.889568 -0.00603533 0)
(1.07115 -0.011902 0)
(0.871093 -0.00153082 0)
(1.08644 -0.0182993 0)
(0.85251 -0.000526872 0)
(1.12961 -0.00394784 0)
(0.903268 0.0026217 0)
(1.15251 0.00823007 0)
(0.836587 0.00197387 0)
(1.05583 -0.00802038 0)
(0.930868 -0.00989279 0)
(1.10693 -0.0119326 0)
(0.904988 0.0051327 0)
(1.13516 0.00363968 0)
(0.876791 0.0104476 0)
(1.08381 0.0131855 0)
(0.902854 0.00399296 0)
(1.0287 0.00119257 0)
(0.936778 -0.00467282 0)
(1.00918 -0.00440264 0)
(0.959755 -0.0060014 0)
(0.997797 -0.0121184 0)
(0.968301 -0.000995207 0)
(0.980623 -0.0197131 0)
(0.873076 -0.000481688 0)
(1.10814 -0.00418327 0)
(0.92013 0.00230496 0)
(1.12772 0.00900243 0)
(0.877073 0.00262271 0)
(1.03244 -0.00876574 0)
(0.949226 -0.0105426 0)
(1.08166 -0.0115176 0)
(0.931058 0.00457587 0)
(1.09982 0.00424367 0)
(0.918558 0.0110134 0)
(1.03815 0.013007 0)
(0.950388 0.00475414 0)
(0.995428 0.000651411 0)
(0.970044 -0.00439358 0)
(0.986531 -0.00484861 0)
(0.981499 -0.0059478 0)
(0.985152 -0.0119083 0)
(0.982231 -0.00167595 0)
(0.985064 -0.0158325 0)
(0.900042 -0.000415862 0)
(1.08043 -0.00439651 0)
(0.941411 0.00209719 0)
(1.09677 0.00941066 0)
(0.919908 0.00331024 0)
(1.01092 -0.0092549 0)
(0.967852 -0.0111078 0)
(1.054 -0.0113253 0)
(0.959907 0.00434742 0)
(1.06365 0.00448353 0)
(0.956365 0.0117751 0)
(1.00746 0.0126391 0)
(0.978115 0.00528452 0)
(0.986648 0.000426248 0)
(0.981817 -0.00429797 0)
(0.985976 -0.0050891 0)
(0.986312 -0.00586424 0)
(0.987253 -0.0120502 0)
(0.984869 -0.00151893 0)
(0.987458 -0.0144214 0)
(0.928706 -0.000322775 0)
(1.0522 -0.00459692 0)
(0.961656 0.00190599 0)
(1.06626 0.00959641 0)
(0.95612 0.0039843 0)
(0.997291 -0.00955667 0)
(0.981122 -0.0116041 0)
(1.03099 -0.0112663 0)
(0.981555 0.0042589 0)
(1.03687 0.00456609 0)
(0.980066 0.0124655 0)
(0.996187 0.0124231 0)
(0.991509 0.00554337 0)
(0.990072 0.000390105 0)
(0.988095 -0.00423275 0)
(0.989358 -0.00525283 0)
(0.990734 -0.00581728 0)
(0.988999 -0.011982 0)
(0.988067 -0.00156124 0)
(0.988016 -0.0133177 0)
(0.954464 -0.000217641 0)
(1.02865 -0.00476742 0)
(0.976874 0.00174894 0)
(1.04135 0.00964308 0)
(0.981823 0.00453843 0)
(0.99275 -0.0096689 0)
(0.988106 -0.011974 0)
(1.01498 -0.0113033 0)
(0.993035 0.00419857 0)
(1.021 0.00463137 0)
(0.99158 0.0129325 0)
(0.995786 0.012334 0)
(0.999029 0.0056214 0)
(0.995781 0.000418746 0)
(0.993677 -0.00411234 0)
(0.992771 -0.00539171 0)
(0.994392 -0.00572916 0)
(0.990894 -0.0117909 0)
(0.989992 -0.00172239 0)
(0.989023 -0.0120715 0)
(0.974346 -0.000118523 0)
(1.01243 -0.0048774 0)
(0.985894 0.00162434 0)
(1.0241 0.00957671 0)
(0.99766 0.00492927 0)
(0.994541 -0.00961184 0)
(0.991208 -0.0121957 0)
(1.00463 -0.0113938 0)
(0.99668 0.00413438 0)
(1.01254 0.00467923 0)
(0.996417 0.01318 0)
(0.99872 0.0122506 0)
(1.00432 0.00563127 0)
(1.0008 0.000473388 0)
(0.998331 -0.00394968 0)
(0.996064 -0.00545104 0)
(0.996896 -0.00562261 0)
(0.992784 -0.0115017 0)
(0.990994 -0.00191278 0)
(0.989789 -0.010732 0)
(0.987619 -3.78906e-05 0)
(1.00325 -0.00491704 0)
(0.989956 0.00151478 0)
(1.01363 0.00942584 0)
(1.00635 0.00516384 0)
(0.99893 -0.00944151 0)
(0.993034 -0.0122684 0)
(0.997837 -0.0114828 0)
(0.996087 0.00404124 0)
(1.00765 0.00467832 0)
(0.998413 0.0132617 0)
(1.00175 0.0121303 0)
(1.00815 0.00562094 0)
(1.00465 0.000536669 0)
(1.00181 -0.00374981 0)
(0.998882 -0.00543158 0)
(0.998746 -0.00550977 0)
(0.994319 -0.0111092 0)
(0.991697 -0.00208451 0)
(0.990207 -0.00938079 0)
(0.995317 1.94908e-05 0)
(0.99907 -0.00489691 0)
(0.991261 0.00141722 0)
(1.00776 0.00921617 0)
(1.01057 0.00527165 0)
(1.00328 -0.00921473 0)
(0.994823 -0.0122046 0)
(0.993331 -0.0115286 0)
(0.993923 0.00391582 0)
(1.00405 0.00461847 0)
(0.999123 0.0132145 0)
(1.00391 0.0119737 0)
(1.01061 0.0055914 0)
(1.00725 0.000614973 0)
(1.00418 -0.00352653 0)
(1.00097 -0.00535528 0)
(1.00014 -0.00538748 0)
(0.9955 -0.0106157 0)
(0.992272 -0.00223036 0)
(0.990499 -0.00807091 0)
(0.999224 5.61455e-05 0)
(0.997639 -0.00483561 0)
(0.991627 0.00133582 0)
(1.00447 0.00896759 0)
(1.01223 0.00528796 0)
(1.00647 -0.0089706 0)
(0.996674 -0.0120303 0)
(0.990534 -0.0115113 0)
(0.991648 0.00377575 0)
(1.00095 0.00450598 0)
(0.998997 0.0130596 0)
(1.005 0.011784 0)
(1.01184 0.00553947 0)
(1.00865 0.000707943 0)
(1.0056 -0.00330797 0)
(1.00231 -0.00523026 0)
(1.00109 -0.00525445 0)
(0.996384 -0.0100438 0)
(0.992744 -0.00235659 0)
(0.990783 -0.00682456 0)
(1.00099 7.8253e-05 0)
(0.997388 -0.00475177 0)
(0.99196 0.00127318 0)
(1.00247 0.00869696 0)
(1.01246 0.00524369 0)
(1.00835 -0.00873143 0)
(0.998315 -0.0117798 0)
(0.989065 -0.011428 0)
(0.989885 0.00363908 0)
(0.99835 0.00436 0)
(0.998298 0.0128173 0)
(1.00514 0.0115655 0)
(1.01209 0.00546838 0)
(1.00912 0.000810812 0)
(1.00625 -0.00311429 0)
(1.00304 -0.00505258 0)
(1.00162 -0.00512881 0)
(0.997003 -0.0094214 0)
(0.993132 -0.00245681 0)
(0.991076 -0.00565977 0)
(1.00172 9.14176e-05 0)
(0.997519 -0.00465854 0)
(0.992457 0.00122804 0)
(1.0011 0.00841952 0)
(1.01197 0.00516157 0)
(1.00921 -0.00850668 0)
(0.999557 -0.0114844 0)
(0.988526 -0.0112884 0)
(0.98878 0.00351612 0)
(0.996403 0.00420207 0)
(0.997355 0.0125091 0)
(1.00464 0.0113302 0)
(1.01172 0.00537382 0)
(1.00897 0.00092482 0)
(1.00637 -0.00294911 0)
(1.00332 -0.00483254 0)
(1.00183 -0.00501981 0)
(0.9974 -0.00877568 0)
(0.993454 -0.0025052 0)
(0.991369 -0.00460102 0)
(1.00201 9.92665e-05 0)
(0.997723 -0.00456326 0)
(0.99302 0.00119863 0)
(1.00013 0.00814458 0)
(1.01122 0.00505505 0)
(1.00942 -0.00829777 0)
(1.00038 -0.0111662 0)
(0.988538 -0.0111043 0)
(0.988238 0.00340978 0)
(0.995131 0.004048 0)
(0.996461 0.0121546 0)
(1.00385 0.0110908 0)
(1.01106 0.00524859 0)
(1.00851 0.00104671 0)
(1.0062 -0.0028079 0)
(1.00332 -0.00459524 0)
(1.00184 -0.00490863 0)
(0.997634 -0.00813086 0)
(0.993729 -0.00248173 0)
(0.991655 -0.00366529 0)
(1.00213 0.000103733 0)
(0.997896 -0.00446849 0)
(0.99354 0.00118235 0)
(0.999455 0.00787462 0)
(1.01047 0.00493439 0)
(1.00928 -0.00810151 0)
(1.00088 -0.0108388 0)
(0.988812 -0.0108854 0)
(0.988084 0.00331444 0)
(0.994411 0.00390812 0)
(0.995785 0.0117687 0)
(1.00302 0.0108525 0)
(1.01037 0.00509212 0)
(1.00797 0.00117937 0)
(1.00591 -0.00269278 0)
(1.0032 -0.00434451 0)
(1.00175 -0.00478296 0)
(0.99777 -0.00750908 0)
(0.993977 -0.00238542 0)
(0.991932 -0.00284523 0)
(1.00218 0.000106069 0)
(0.998012 -0.00437457 0)
(0.993975 0.00117568 0)
(0.999025 0.00760862 0)
(1.00984 0.00480575 0)
(1.00899 -0.00791289 0)
(1.00114 -0.0105102 0)
(0.989168 -0.01064 0)
(0.988164 0.00322271 0)
(0.994068 0.00378918 0)
(0.995371 0.0113557 0)
(1.00231 0.0106224 0)
(1.00975 0.00490322 0)
(1.00745 0.00132321 0)
(1.00562 -0.00260184 0)
(1.00304 -0.00408605 0)
(1.00162 -0.00462445 0)
(0.997865 -0.00693644 0)
(0.99422 -0.00222756 0)
(0.992203 -0.00212422 0)
(1.00221 0.000107203 0)
(0.998073 -0.00428122 0)
(0.994331 0.00117523 0)
(0.998784 0.00734418 0)
(1.00937 0.00467234 0)
(1.00865 -0.007727 0)
(1.00127 -0.010184 0)
(0.989521 -0.0103735 0)
(0.988376 0.00312904 0)
(0.993961 0.00369087 0)
(0.995192 0.0109196 0)
(1.00175 0.0104046 0)
(1.00926 0.00468848 0)
(1.00703 0.00146525 0)
(1.00537 -0.00251682 0)
(1.0029 -0.00384083 0)
(1.0015 -0.00441276 0)
(0.997953 -0.00641931 0)
(0.994475 -0.00202707 0)
(0.992475 -0.00148977 0)
(1.00222 0.000107781 0)
(0.998097 -0.00418793 0)
(0.994629 0.0011781 0)
(0.998673 0.0070791 0)
(1.009 0.00453575 0)
(1.00831 -0.00753976 0)
(1.00132 -0.00986159 0)
(0.989844 -0.0100881 0)
(0.988661 0.00302695 0)
(0.993997 0.00361105 0)
(0.995191 0.0104631 0)
(1.00135 0.0101971 0)
(1.00888 0.00445965 0)
(1.00668 0.00160799 0)
(1.00515 -0.0024198 0)
(1.00279 -0.00362075 0)
(1.00139 -0.00414426 0)
(0.998051 -0.00594144 0)
(0.994751 -0.00180332 0)
(0.992751 -0.000916557 0)
(1.00221 0.000108209 0)
(0.998109 -0.00409415 0)
(0.994884 0.00118202 0)
(0.998645 0.00681255 0)
(1.0087 0.00439586 0)
(1.008 -0.00734733 0)
(1.00133 -0.00954507 0)
(0.990148 -0.00978272 0)
(0.988985 0.00290874 0)
(0.994124 0.00355231 0)
(0.995307 0.00998243 0)
(1.00106 0.00999956 0)
(1.00857 0.00421513 0)
(1.0064 0.00174994 0)
(1.00495 -0.00229394 0)
(1.0027 -0.00344012 0)
(1.0013 -0.00382163 0)
(0.998164 -0.00548448 0)
(0.995048 -0.00158374 0)
(0.993036 -0.000375057 0)
(1.00218 0.000108509 0)
(0.99813 -0.00399919 0)
(0.995103 0.00118576 0)
(0.998671 0.00654454 0)
(1.00842 0.00425232 0)
(1.00771 -0.00714756 0)
(1.00131 -0.00923542 0)
(0.990451 -0.00945887 0)
(0.989326 0.00277308 0)
(0.994309 0.00351111 0)
(0.995483 0.00948305 0)
(1.00084 0.00980621 0)
(1.00828 0.00396286 0)
(1.00615 0.00186901 0)
(1.00475 -0.00212581 0)
(1.00263 -0.00330052 0)
(1.00121 -0.00346187 0)
(0.998287 -0.00503158 0)
(0.995362 -0.00138907 0)
(0.993332 0.000131999 0)
(1.00212 0.000108831 0)
(0.998177 -0.00390342 0)
(0.995287 0.00118815 0)
(0.998735 0.00627534 0)
(1.00813 0.00410416 0)
(1.00745 -0.00693784 0)
(1.00126 -0.00893436 0)
(0.99077 -0.00911781 0)
(0.989668 0.00262125 0)
(0.994531 0.00348409 0)
(0.995678 0.00896711 0)
(1.00067 0.00961416 0)
(1.008 0.00372929 0)
(1.00594 0.00195946 0)
(1.00453 -0.00190846 0)
(1.00259 -0.00318767 0)
(1.00113 -0.0030875 0)
(0.998417 -0.00456278 0)
(0.995687 -0.00123069 0)
(0.993639 0.000609807 0)
(1.00202 0.000109149 0)
(0.998255 -0.00380648 0)
(0.995439 0.0011879 0)
(0.998832 0.00600724 0)
(1.00782 0.00394885 0)
(1.00721 -0.00671514 0)
(1.0012 -0.00864444 0)
(0.991112 -0.00875765 0)
(0.990002 0.00245031 0)
(0.994777 0.00346971 0)
(0.995871 0.0084428 0)
(1.00051 0.00941795 0)
(1.0077 0.00351161 0)
(1.00574 0.00201072 0)
(1.00428 -0.00164618 0)
(1.00255 -0.00308987 0)
(1.00105 -0.00271964 0)
(0.998546 -0.00406325 0)
(0.996019 -0.00111245 0)
(0.99396 0.0010613 0)
(1.0019 0.000109124 0)
(0.998362 -0.0037061 0)
(0.995561 0.00118253 0)
(0.998952 0.00574329 0)
(1.00749 0.00378553 0)
(1.00699 -0.00647922 0)
(1.00112 -0.00836539 0)
(0.991477 -0.00837958 0)
(0.990324 0.00226228 0)
(0.995037 0.00346266 0)
(0.996053 0.00792045 0)
(1.00037 0.00920545 0)
(1.00738 0.00331476 0)
(1.00555 0.00201617 0)
(1.00402 -0.00134867 0)
(1.00253 -0.0029924 0)
(1.00098 -0.00237819 0)
(0.99867 -0.00352999 0)
(0.996352 -0.00101351 0)
(0.9943 0.00145134 0)
(1.00175 0.000108083 0)
(0.99849 -0.00360094 0)
(0.995665 0.00117157 0)
(0.999086 0.0054839 0)
(1.00715 0.00361179 0)
(1.00678 -0.00622867 0)
(1.00102 -0.00809808 0)
(0.991858 -0.00798845 0)
(0.990637 0.00206537 0)
(0.995303 0.00345757 0)
(0.996227 0.00740471 0)
(1.00024 0.00896786 0)
(1.00704 0.00315947 0)
(1.00538 0.00198168 0)
(1.00374 -0.00102274 0)
(1.00251 -0.00287544 0)
(1.00093 -0.00207757 0)
(0.998789 -0.00296842 0)
(0.996682 -0.000913229 0)
(0.994661 0.00175473 0)
(1.0016 0.000106671 0)
(0.998628 -0.00349256 0)
(0.995761 0.00115331 0)
(0.999222 0.0052311 0)
(1.00681 0.00342639 0)
(1.00656 -0.00596358 0)
(1.00093 -0.00784335 0)
(0.992245 -0.00758433 0)
(0.990948 0.00186286 0)
(0.995566 0.00344591 0)
(0.996396 0.00690986 0)
(1.00012 0.00870509 0)
(1.00669 0.00303996 0)
(1.00522 0.00191026 0)
(1.00346 -0.000676303 0)
(1.00249 -0.00273252 0)
(1.00091 -0.00181601 0)
(0.9989 -0.00240018 0)
(0.997003 -0.000796048 0)
(0.995044 0.00196896 0)
(1.00145 0.000104338 0)
(0.998763 -0.00337889 0)
(0.995862 0.00112362 0)
(0.999348 0.00498949 0)
(1.00647 0.0032297 0)
(1.00635 -0.00568473 0)
(1.00083 -0.00759798 0)
(0.99263 -0.00717468 0)
(0.991262 0.0016619 0)
(0.995818 0.00342096 0)
(0.996567 0.00644293 0)
(0.999994 0.00841599 0)
(1.00634 0.0029522 0)
(1.00507 0.0018143 0)
(1.00318 -0.00032981 0)
(1.00246 -0.00255346 0)
(1.00091 -0.00159463 0)
(0.999005 -0.00183797 0)
(0.997311 -0.00064245 0)
(0.99545 0.00209683 0)
(1.00132 0.000100254 0)
(0.998886 -0.00325764 0)
(0.995978 0.001083 0)
(0.999456 0.00475787 0)
(1.00613 0.00302407 0)
(1.00612 -0.00539665 0)
(1.00075 -0.00735676 0)
(0.993006 -0.00676855 0)
(0.991587 0.00146781 0)
(0.996055 0.00337719 0)
(0.996741 0.0060041 0)
(0.999869 0.0081016 0)
(1.00599 0.00289345 0)
(1.00493 0.00170408 0)
(1.0029 4.16634e-06 0)
(1.00241 -0.00232831 0)
(1.00095 -0.00141202 0)
(0.999108 -0.00129212 0)
(0.997602 -0.000442269 0)
(0.995876 0.00214106 0)
(1.00121 9.47761e-05 0)
(0.998992 -0.00312843 0)
(0.996115 0.00102961 0)
(0.999541 0.00453628 0)
(1.00581 0.00280612 0)
(1.00588 -0.00509797 0)
(1.00069 -0.00712323 0)
(0.993371 -0.00636428 0)
(0.991926 0.00128987 0)
(0.996276 0.00331111 0)
(0.996922 0.0055924 0)
(0.999745 0.00777165 0)
(1.00564 0.00285759 0)
(1.00479 0.0015837 0)
(1.00264 0.000325075 0)
(1.00235 -0.00205368 0)
(1.00102 -0.00126807 0)
(0.999213 -0.000783054 0)
(0.997869 -0.000183284 0)
(0.996319 0.00211565 0)
(1.00111 8.75483e-05 0)
(0.999081 -0.00299063 0)
(0.996272 0.000962613 0)
(0.999606 0.00432581 0)
(1.00551 0.00257916 0)
(1.00562 -0.00479383 0)
(1.00064 -0.00688803 0)
(0.993724 -0.00597348 0)
(0.992278 0.00113668 0)
(0.996483 0.00322324 0)
(0.99711 0.00520801 0)
(0.999622 0.00742944 0)
(1.00529 0.00283938 0)
(1.00465 0.00146243 0)
(1.0024 0.000625444 0)
(1.00225 -0.00173209 0)
(1.00112 -0.00114779 0)
(0.99933 -0.000332045 0)
(0.998107 0.000139028 0)
(0.996766 0.00205139 0)
(1.00103 7.8375e-05 0)
(0.999154 -0.00284569 0)
(0.996447 0.000884955 0)
(0.999656 0.00412606 0)
(1.00522 0.00234849 0)
(1.00536 -0.00449242 0)
(1.0006 -0.00664194 0)
(0.994067 -0.00560592 0)
(0.99264 0.00100268 0)
(0.99668 0.00311085 0)
(0.997303 0.00484697 0)
(0.999505 0.00707585 0)
(1.00495 0.00283588 0)
(1.00452 0.00134676 0)
(1.00218 0.00089575 0)
(1.00214 -0.00136927 0)
(1.00123 -0.00103213 0)
(0.999466 3.96842e-05 0)
(0.998313 0.000509583 0)
(0.997202 0.00198678 0)
(1.00097 6.76216e-05 0)
(0.999216 -0.00269181 0)
(0.996632 0.000795733 0)
(0.999696 0.00393386 0)
(1.00493 0.00212147 0)
(1.00509 -0.00419578 0)
(1.00057 -0.00638385 0)
(0.994402 -0.00526544 0)
(0.993009 0.000887609 0)
(0.99687 0.00298783 0)
(0.997499 0.00450329 0)
(0.999399 0.00671981 0)
(1.00461 0.00284693 0)
(1.0044 0.00123944 0)
(1.00199 0.00112838 0)
(1.00199 -0.000972909 0)
(1.00135 -0.000908266 0)
(0.999627 0.000334157 0)
(0.998493 0.000906883 0)
(0.997604 0.00197648 0)
(1.00091 5.52292e-05 0)
(0.999268 -0.00253019 0)
(0.996822 0.000697717 0)
(0.999732 0.00374661 0)
(1.00466 0.00189821 0)
(1.00481 -0.00391917 0)
(1.00054 -0.00610827 0)
(0.994728 -0.00495022 0)
(0.993379 0.00079289 0)
(0.997055 0.00286174 0)
(0.997698 0.0041852 0)
(0.999306 0.00636917 0)
(1.00428 0.00286772 0)
(1.00429 0.00114987 0)
(1.00182 0.00132541 0)
(1.00183 -0.000556071 0)
(1.00146 -0.000758265 0)
(0.999816 0.000556215 0)
(0.998655 0.00129449 0)
(0.997953 0.00207053 0)
(1.00085 4.13091e-05 0)
(0.999314 -0.00236518 0)
(0.997012 0.000594986 0)
(0.999765 0.00356165 0)
(1.0044 0.00168545 0)
(1.00453 -0.00366937 0)
(1.00051 -0.00581633 0)
(0.995049 -0.00465657 0)
(0.993748 0.000706487 0)
(0.997237 0.0027252 0)
(0.997897 0.00388645 0)
(0.999227 0.00602544 0)
(1.00395 0.00289638 0)
(1.00419 0.00108031 0)
(1.00169 0.00148831 0)
(1.00165 -0.000129608 0)
(1.00156 -0.000578074 0)
(1.00003 0.000720811 0)
(0.998819 0.00163664 0)
(0.998241 0.00226655 0)
(1.0008 2.65659e-05 0)
(0.999354 -0.00219744 0)
(0.997199 0.000489528 0)
(0.999796 0.00337172 0)
(1.00414 0.00149577 0)
(1.00426 -0.00344514 0)
(1.00048 -0.00550975 0)
(0.995362 -0.00438282 0)
(0.994112 0.000616809 0)
(0.997414 0.00258562 0)
(0.998094 0.0035984 0)
(0.999166 0.00568861 0)
(1.00362 0.00293345 0)
(1.00409 0.00102906 0)
(1.00159 0.00161052 0)
(1.00146 0.000292612 0)
(1.00163 -0.000367041 0)
(1.00027 0.000853757 0)
(0.998997 0.00191035 0)
(0.998473 0.00251615 0)
(1.00075 1.13997e-05 0)
(0.999391 -0.00203027 0)
(0.997382 0.000387884 0)
(0.999825 0.00316984 0)
(1.00388 0.00133396 0)
(1.00399 -0.00324999 0)
(1.00045 -0.00519189 0)
(0.995666 -0.00411473 0)
(0.994472 0.000531094 0)
(0.997587 0.00244692 0)
(0.998288 0.00333409 0)
(0.999122 0.00536625 0)
(1.00329 0.00297841 0)
(1.00399 0.00100883 0)
(1.00153 0.00169734 0)
(1.00127 0.000697537 0)
(1.00167 -0.000130865 0)
(1.00052 0.000960265 0)
(0.999199 0.00211611 0)
(0.998665 0.00276283 0)
(1.0007 -3.2199e-06 0)
(0.999424 -0.0018677 0)
(0.997559 0.000297198 0)
(0.999854 0.00294945 0)
(1.00363 0.00119882 0)
(1.00373 -0.00307464 0)
(1.00042 -0.00488079 0)
(0.995961 -0.00384331 0)
(0.994824 0.000452939 0)
(0.997755 0.00230595 0)
(0.998478 0.00309262 0)
(0.999096 0.0050637 0)
(1.00297 0.00303104 0)
(1.00389 0.00101234 0)
(1.0015 0.00174723 0)
(1.00108 0.00107963 0)
(1.00168 0.000128581 0)
(1.00077 0.00104735 0)
(0.999426 0.00227491 0)
(0.998839 0.00297624 0)
(1.00065 -1.72684e-05 0)
(0.999454 -0.00170996 0)
(0.997729 0.000224174 0)
(0.999882 0.00270619 0)
(1.00338 0.00107999 0)
(1.00348 -0.00290458 0)
(1.0004 -0.00458286 0)
(0.996248 -0.00358049 0)
(0.995168 0.000378855 0)
(0.997918 0.00216009 0)
(0.998664 0.00286608 0)
(0.999089 0.0047736 0)
(1.00266 0.00308416 0)
(1.00378 0.00104098 0)
(1.0015 0.00176005 0)
(1.00091 0.00142635 0)
(1.00166 0.000412743 0)
(1.00102 0.00112198 0)
(0.999677 0.00239666 0)
(0.99901 0.00314888 0)
(1.0006 -2.88952e-05 0)
(0.99948 -0.00156406 0)
(0.99789 0.000175657 0)
(0.99991 0.00244271 0)
(1.00314 0.000972803 0)
(1.00322 -0.0027305 0)
(1.00037 -0.00429652 0)
(0.996526 -0.00332178 0)
(0.995502 0.000318819 0)
(0.998079 0.00201857 0)
(0.998847 0.00265876 0)
(0.999102 0.00449709 0)
(1.00235 0.00313144 0)
(1.00366 0.00109027 0)
(1.00154 0.00173449 0)
(1.00076 0.00172136 0)
(1.00159 0.000716574 0)
(1.00125 0.00118865 0)
(0.999951 0.00248144 0)
(0.999186 0.003291 0)
(1.00056 -3.765e-05 0)
(0.999505 -0.00143422 0)
(0.998043 0.000149753 0)
(0.999936 0.00217225 0)
(1.0029 0.000870317 0)
(1.00297 -0.00254133 0)
(1.00035 -0.00402189 0)
(0.996796 -0.00306096 0)
(0.995826 0.000288307 0)
(0.998236 0.0018964 0)
(0.999028 0.00247077 0)
(0.999134 0.0042299 0)
(1.00205 0.0031639 0)
(1.00352 0.00115516 0)
(1.0016 0.00168306 0)
(1.00064 0.00196106 0)
(1.0015 0.00103997 0)
(1.00146 0.00125866 0)
(1.00025 0.002521 0)
(0.999374 0.00340653 0)
(1.00051 -4.40122e-05 0)
(0.999529 -0.00131958 0)
(0.998186 0.000142291 0)
(0.99996 0.00190092 0)
(1.00267 0.000754939 0)
(1.00273 -0.00234776 0)
(1.00033 -0.00374978 0)
(0.99706 -0.00280246 0)
(0.996139 0.000288013 0)
(0.998387 0.00179375 0)
(0.999203 0.00229671 0)
(0.999184 0.00395674 0)
(1.00177 0.00317984 0)
(1.00337 0.00123819 0)
(1.00167 0.00161935 0)
(1.00055 0.00214047 0)
(1.00138 0.00137125 0)
(1.00164 0.00135037 0)
(1.00056 0.0025145 0)
(0.999583 0.00349161 0)
(1.00047 -4.70709e-05 0)
(0.999554 -0.0012252 0)
(0.998318 0.00014816 0)
(0.999979 0.00164108 0)
(1.00246 0.000620944 0)
(1.0025 -0.00215908 0)
(1.00031 -0.0034726 0)
(0.997318 -0.00255115 0)
(0.996442 0.000307346 0)
(0.998529 0.00171134 0)
(0.999368 0.00213178 0)
(0.999251 0.00367728 0)
(1.00151 0.00316936 0)
(1.0032 0.00133687 0)
(1.00176 0.00155303 0)
(1.00052 0.00225638 0)
(1.00125 0.00169134 0)
(1.00177 0.0014821 0)
(1.00088 0.00247695 0)
(0.999822 0.00353489 0)
(1.00043 -4.61218e-05 0)
(0.999579 -0.00115122 0)
(0.998441 0.00015922 0)
(0.999993 0.00140868 0)
(1.00226 0.000472324 0)
(1.00228 -0.00197869 0)
(1.00029 -0.00318654 0)
(0.997571 -0.00230749 0)
(0.996735 0.000342129 0)
(0.998661 0.00165312 0)
(0.999523 0.00198259 0)
(0.999334 0.00339827 0)
(1.00127 0.00313402 0)
(1.00302 0.00145246 0)
(1.00186 0.00150198 0)
(1.00054 0.00231682 0)
(1.00112 0.00197885 0)
(1.00185 0.00164989 0)
(1.0012 0.00242841 0)
(1.00009 0.0035211 0)
(1.00039 -4.29025e-05 0)
(0.999607 -0.00109214 0)
(0.998558 0.000170751 0)
(1 0.00120509 0)
(1.00208 0.000314278 0)
(1.00208 -0.00182102 0)
(1.00028 -0.00289837 0)
(0.997819 -0.00207095 0)
(0.997021 0.000396998 0)
(0.998785 0.00162316 0)
(0.999664 0.00185754 0)
(0.999432 0.00312287 0)
(1.00106 0.00308141 0)
(1.00282 0.00157382 0)
(1.00195 0.00146827 0)
(1.0006 0.00233158 0)
(1.00101 0.00222035 0)
(1.00188 0.00183909 0)
(1.00149 0.00239428 0)
(1.0004 0.00345553 0)
(1.00035 -3.57288e-05 0)
(0.999637 -0.00104403 0)
(0.998669 0.00017187 0)
(1 0.00103928 0)
(1.00191 0.000149029 0)
(1.00189 -0.00168733 0)
(1.00027 -0.0026185 0)
(0.998062 -0.0018472 0)
(0.997302 0.000465145 0)
(0.9989 0.00162144 0)
(0.999789 0.0017619 0)
(0.999543 0.00286126 0)
(1.00088 0.00300065 0)
(1.00262 0.0016948 0)
(1.00203 0.00145507 0)
(1.0007 0.0023082 0)
(1.00092 0.00241562 0)
(1.00187 0.00203735 0)
(1.00175 0.00238639 0)
(1.00073 0.00335354 0)
(1.00031 -3.32667e-05 0)
(0.999668 -0.00099065 0)
(0.998778 0.000152381 0)
(1 0.000913552 0)
(1.00175 -1.52773e-05 0)
(1.00173 -0.00157026 0)
(1.00026 -0.00236729 0)
(0.9983 -0.00160591 0)
(0.997579 0.000543864 0)
(0.999008 0.00163685 0)
(0.999897 0.0016992 0)
(0.999664 0.00262817 0)
(1.00074 0.00290433 0)
(1.00242 0.00181266 0)
(1.00209 0.00147247 0)
(1.00083 0.00226079 0)
(1.00087 0.00256294 0)
(1.00183 0.00223936 0)
(1.00195 0.00240947 0)
(1.00107 0.0032424 0)
(1.00028 -2.60413e-05 0)
(0.999701 -0.000949597 0)
(0.998884 0.000131831 0)
(0.99999 0.000811229 0)
(1.0016 -0.000128375 0)
(1.00159 -0.00145981 0)
(1.00027 -0.00209235 0)
(0.998533 -0.00139256 0)
(0.997848 0.000569325 0)
(0.999112 0.00161546 0)
(0.999991 0.00164218 0)
(0.999794 0.00241481 0)
(1.00065 0.00278936 0)
(1.00223 0.00191162 0)
(1.00213 0.00151338 0)
(1.00099 0.00220001 0)
(1.00085 0.00265134 0)
(1.00177 0.00242976 0)
(1.0021 0.00245768 0)
(1.00139 0.00313127 0)
(1.00024 -1.61076e-05 0)
(0.999735 -0.00091667 0)
(0.998991 0.000108004 0)
(0.999979 0.000738253 0)
(1.00146 -0.000172121 0)
(1.00148 -0.00133336 0)
(1.00028 -0.00180208 0)
(0.998753 -0.00123385 0)
(0.998114 0.000517251 0)
(0.999218 0.00153889 0)
(1.00007 0.00158438 0)
(0.999922 0.00223356 0)
(1.00058 0.00266747 0)
(1.00205 0.00198738 0)
(1.00216 0.00156556 0)
(1.00116 0.00213793 0)
(1.00089 0.00268364 0)
(1.00171 0.00259173 0)
(1.0022 0.00252951 0)
(1.00169 0.00303244 0)
(1.00021 -1.37308e-05 0)
(0.99977 -0.000868433 0)
(0.999099 6.65549e-05 0)
(0.999972 0.000690233 0)
(1.00133 -0.00017434 0)
(1.00138 -0.00121222 0)
(1.0003 -0.00156038 0)
(0.99896 -0.00106145 0)
(0.998371 0.000465515 0)
(0.999332 0.00145784 0)
(1.00015 0.00154495 0)
(1.00005 0.00209315 0)
(1.00055 0.00255583 0)
(1.00189 0.00205005 0)
(1.00216 0.00162926 0)
(1.00134 0.00208748 0)
(1.00097 0.00267747 0)
(1.00167 0.00271538 0)
(1.00226 0.00262059 0)
(1.00195 0.0029645 0)
(1.00019 -9.29094e-06 0)
(0.999805 -0.0008182 0)
(0.999207 2.00325e-05 0)
(0.99997 0.000648463 0)
(1.0012 -0.000156175 0)
(1.00129 -0.00110943 0)
(1.00033 -0.00135086 0)
(0.999152 -0.000887911 0)
(0.998617 0.000438596 0)
(0.999454 0.00138279 0)
(1.00022 0.00151229 0)
(1.00017 0.00197454 0)
(1.00054 0.00244591 0)
(1.00175 0.00209158 0)
(1.00216 0.00169429 0)
(1.00151 0.0020463 0)
(1.00109 0.00264211 0)
(1.00165 0.00279343 0)
(1.00228 0.00270841 0)
(1.00216 0.00292635 0)
(1.00016 -8.0064e-06 0)
(0.999838 -0.000761539 0)
(0.999317 -2.93765e-05 0)
(0.999975 0.000608834 0)
(1.00109 -0.000120406 0)
(1.00122 -0.00100997 0)
(1.00037 -0.00116846 0)
(0.999335 -0.000717047 0)
(0.998853 0.000441948 0)
(0.999582 0.00131109 0)
(1.0003 0.00146925 0)
(1.0003 0.0018677 0)
(1.00056 0.00233758 0)
(1.00164 0.00211348 0)
(1.00214 0.00175921 0)
(1.00168 0.00202009 0)
(1.00124 0.00258802 0)
(1.00166 0.00283284 0)
(1.00229 0.0027798 0)
(1.00233 0.00291507 0)
(1.00014 -8.96715e-06 0)
(0.999869 -0.000696526 0)
(0.999426 -8.37276e-05 0)
(0.999989 0.000561809 0)
(1.00098 -6.86126e-05 0)
(1.00116 -0.000901212 0)
(1.00042 -0.00100392 0)
(0.999513 -0.000551635 0)
(0.999074 0.000458626 0)
(0.99971 0.00124085 0)
(1.00037 0.0014174 0)
(1.00042 0.00176975 0)
(1.0006 0.0022377 0)
(1.00155 0.00212955 0)
(1.00212 0.00182395 0)
(1.00183 0.00200982 0)
(1.00141 0.0025214 0)
(1.00171 0.00283319 0)
(1.0023 0.00282332 0)
(1.00244 0.00291238 0)
(1.00012 -1.13467e-05 0)
(0.999897 -0.000626587 0)
(0.999533 -0.000137122 0)
(1.00001 0.000505617 0)
(1.00088 -7.09705e-06 0)
(1.00111 -0.000782958 0)
(1.00047 -0.000860724 0)
(0.999684 -0.000406909 0)
(0.999281 0.000485945 0)
(0.999838 0.00118531 0)
(1.00045 0.00137459 0)
(1.00055 0.00168323 0)
(1.00066 0.00213944 0)
(1.00149 0.0021335 0)
(1.00209 0.00187813 0)
(1.00196 0.00200552 0)
(1.00159 0.00245248 0)
(1.00179 0.00280351 0)
(1.00232 0.00284223 0)
(1.00252 0.00290908 0)
(1.0001 -1.48372e-05 0)
(0.999921 -0.000552281 0)
(0.999634 -0.000179883 0)
(1.00005 0.000439753 0)
(1.00079 5.74799e-05 0)
(1.00105 -0.000655415 0)
(1.00053 -0.000731471 0)
(0.999853 -0.000283488 0)
(0.999478 0.0005233 0)
(0.999962 0.00114757 0)
(1.00053 0.00133786 0)
(1.00067 0.00160511 0)
(1.00075 0.00203741 0)
(1.00146 0.00211899 0)
(1.00207 0.00192404 0)
(1.00208 0.00200935 0)
(1.00177 0.00239076 0)
(1.00189 0.00275658 0)
(1.00234 0.00283934 0)
(1.00259 0.00289604 0)
(1.00008 -1.87848e-05 0)
(0.999941 -0.000475912 0)
(0.999728 -0.000205843 0)
(1.00009 0.000367211 0)
(1.00072 0.000119582 0)
(1.00101 -0.000519584 0)
(1.00059 -0.000607229 0)
(1.00002 -0.000181277 0)
(0.999667 0.000556812 0)
(1.00008 0.00112358 0)
(1.00061 0.00130724 0)
(1.00079 0.00154167 0)
(1.00084 0.00194335 0)
(1.00145 0.00209104 0)
(1.00205 0.00195877 0)
(1.00217 0.00201773 0)
(1.00195 0.00232973 0)
(1.00201 0.00269087 0)
(1.00239 0.00281156 0)
(1.00264 0.0028645 0)
(1.00007 -2.19369e-05 0)
(0.999958 -0.000400549 0)
(0.999812 -0.000210379 0)
(1.00015 0.0002905 0)
(1.00066 0.000167289 0)
(1.00096 -0.000382739 0)
(1.00065 -0.000487177 0)
(1.00018 -9.62837e-05 0)
(0.999849 0.000584201 0)
(1.0002 0.00111245 0)
(1.00068 0.0012899 0)
(1.0009 0.00148906 0)
(1.00095 0.00185342 0)
(1.00147 0.00205015 0)
(1.00204 0.00197243 0)
(1.00226 0.0020222 0)
(1.00212 0.00227338 0)
(1.00215 0.00261376 0)
(1.00244 0.00277073 0)
(1.0027 0.0028239 0)
(1.00005 -2.30617e-05 0)
(0.999972 -0.000330099 0)
(0.999884 -0.000195429 0)
(1.0002 0.000216684 0)
(1.00062 0.000196699 0)
(1.00092 -0.000248832 0)
(1.0007 -0.000364699 0)
(1.00033 -2.48168e-05 0)
(1.00003 0.000600078 0)
(1.00032 0.00110078 0)
(1.00075 0.00128533 0)
(1.00101 0.00145087 0)
(1.00107 0.00176704 0)
(1.0015 0.00200054 0)
(1.00204 0.00197335 0)
(1.00233 0.00202007 0)
(1.00227 0.00222726 0)
(1.0023 0.00253117 0)
(1.00251 0.00271514 0)
(1.00274 0.00277602 0)
(1.00004 -2.18587e-05 0)
(0.999984 -0.000267674 0)
(0.999945 -0.000164341 0)
(1.00026 0.00015472 0)
(1.00059 0.000209359 0)
(1.00088 -0.00012516 0)
(1.00074 -0.0002378 0)
(1.00048 4.14562e-05 0)
(1.0002 0.000607211 0)
(1.00044 0.00108331 0)
(1.00081 0.00128209 0)
(1.0011 0.00143148 0)
(1.00118 0.00169343 0)
(1.00156 0.00194005 0)
(1.00206 0.00196467 0)
(1.0024 0.00200892 0)
(1.00241 0.00218174 0)
(1.00245 0.0024465 0)
(1.0026 0.00263826 0)
(1.00278 0.00272098 0)
(1.00003 -1.731e-05 0)
(0.999996 -0.000214984 0)
(0.999994 -0.000123919 0)
(1.00031 0.000109674 0)
(1.00058 0.000210603 0)
(1.00085 -1.50018e-05 0)
(1.00078 -0.000110284 0)
(1.0006 0.000109445 0)
(1.00036 0.000610953 0)
(1.00056 0.0010644 0)
(1.00088 0.0012744 0)
(1.00118 0.00142234 0)
(1.00129 0.00164162 0)
(1.00163 0.00187464 0)
(1.00208 0.00193834 0)
(1.00245 0.00198915 0)
(1.00253 0.00212935 0)
(1.00259 0.00236324 0)
(1.0027 0.00254588 0)
(1.00283 0.00265486 0)
(1.00002 -1.00119e-05 0)
(1.00001 -0.000171678 0)
(1.00003 -7.975e-05 0)
(1.00035 8.48945e-05 0)
(1.00058 0.000205731 0)
(1.00084 7.82153e-05 0)
(1.00081 1.2801e-05 0)
(1.00072 0.000183819 0)
(1.00052 0.000616078 0)
(1.00068 0.00104056 0)
(1.00095 0.00126383 0)
(1.00126 0.00141106 0)
(1.00139 0.00160236 0)
(1.0017 0.00181909 0)
(1.00211 0.00189892 0)
(1.0025 0.00196263 0)
(1.00264 0.00207667 0)
(1.00272 0.00228115 0)
(1.0028 0.00244928 0)
(1.00288 0.00257084 0)
(1.00002 -6.16874e-07 0)
(1.00002 -0.000136002 0)
(1.00007 -3.54836e-05 0)
(1.00039 8.05676e-05 0)
(1.0006 0.000201736 0)
(1.00083 0.0001527 0)
(1.00083 0.000130596 0)
(1.00081 0.000267797 0)
(1.00066 0.00062909 0)
(1.0008 0.00101308 0)
(1.00103 0.00124913 0)
(1.00133 0.0014009 0)
(1.00148 0.00156397 0)
(1.00177 0.00177021 0)
(1.00215 0.0018582 0)
(1.00255 0.00192456 0)
(1.00273 0.00202259 0)
(1.00284 0.00219609 0)
(1.0029 0.00235055 0)
(1.00294 0.00247222 0)
(1.00001 1.00005e-05 0)
(1.00003 -0.000104986 0)
(1.00009 5.96742e-06 0)
(1.00043 9.24326e-05 0)
(1.00061 0.000204909 0)
(1.00084 0.000210767 0)
(1.00086 0.00023662 0)
(1.00089 0.000354765 0)
(1.00078 0.000651613 0)
(1.00091 0.000990626 0)
(1.00111 0.00122426 0)
(1.00139 0.00139148 0)
(1.00156 0.0015328 0)
(1.00184 0.00171866 0)
(1.00219 0.0018193 0)
(1.00259 0.00188111 0)
(1.00281 0.00196211 0)
(1.00294 0.00211024 0)
(1.003 0.00224656 0)
(1.00301 0.00236598 0)
(1 2.10946e-05 0)
(1.00004 -7.70071e-05 0)
(1.00012 4.29032e-05 0)
(1.00045 0.000116634 0)
(1.00063 0.0002182 0)
(1.00086 0.000257768 0)
(1.00089 0.000324182 0)
(1.00096 0.000436958 0)
(1.00089 0.000683977 0)
(1.00102 0.000979211 0)
(1.00119 0.00119535 0)
(1.00146 0.00136968 0)
(1.00163 0.00150843 0)
(1.00191 0.0016688 0)
(1.00223 0.0017731 0)
(1.00263 0.00184121 0)
(1.00288 0.00189867 0)
(1.00304 0.00202606 0)
(1.00309 0.00214053 0)
(1.00308 0.00225298 0)
(1 3.18084e-05 0)
(1.00006 -4.93175e-05 0)
(1.00014 7.43169e-05 0)
(1.00048 0.000147769 0)
(1.00065 0.000242472 0)
(1.00089 0.000299059 0)
(1.00092 0.000395699 0)
(1.00103 0.00051342 0)
(1.00098 0.000724307 0)