/*--------------------------------*- C++ -*----------------------------------*\
| =========                 |                                                 |
| \\      /  F ield         | OpenFOAM: The Open Source CFD Toolbox           |
|  \\    /   O peration     | Version:  v1812                                 |
|   \\  /    A nd           | Web:      www.OpenFOAM.com                      |
|    \\/     M anipulation  |                                                 |
\*---------------------------------------------------------------------------*/
FoamFile
{
    version     2.0;
    format      ascii;
    class       volScalarField;
    location    "1";
    object      p;
}
// * * * * * * * * * * * * * * * * * * * * * * * * * * * * * * * * * * * * * //

dimensions      [0 2 -2 0 0 0 0];


internalField   nonuniform List<scalar> 
9600
(
3.27379e-11
0.00317957
0.0032152
0.00272629
0.00290571
0.00228766
0.00254446
0.00279194
0.00312322
0.00388104
0.00290001
0.00280675
0.00296256
0.00345591
0.00367533
0.0046308
0.00502363
0.00690829
0.00851122
0.0128184
2.06234e-06
0.0031754
0.00321527
0.00272692
0.00290477
0.00229172
0.00255226
0.00278412
0.00312771
0.00385233
0.00290198
0.00280687
0.0029625
0.003459
0.00368041
0.00462253
0.00503949
0.00688839
0.00853793
0.0124522
4.44147e-06
0.0031703
0.00321665
0.00272804
0.00290431
0.00229634
0.00255882
0.00277231
0.0031305
0.00382219
0.00290891
0.00281141
0.00296164
0.00346615
0.00368477
0.00461337
0.00506051
0.00685513
0.00854487
0.0119788
7.25606e-06
0.00316526
0.00321931
0.00272965
0.0029026
0.00229947
0.00256479
0.00275741
0.00313079
0.00379122
0.00291735
0.00282193
0.00295765
0.00347442
0.00368892
0.0046013
0.00508304
0.00681046
0.00852618
0.0115353
1.11459e-05
0.00316001
0.00322331
0.00273129
0.00289851
0.0023019
0.00257166
0.00273917
0.0031307
0.00375533
0.00292673
0.00283502
0.00295239
0.00348241
0.00369369
0.00458584
0.00510553
0.00675785
0.0084865
0.0111238
1.63321e-05
0.00315437
0.00322862
0.00273241
0.00289184
0.00230446
0.00257956
0.00271881
0.00313137
0.0037219
0.00293747
0.00284866
0.00294788
0.00348888
0.00369957
0.00456717
0.00512672
0.00669973
0.0084271
0.0107379
2.26874e-05
0.00314822
0.00323505
0.00273289
0.00288286
0.00230754
0.00258832
0.00269787
0.00313306
0.00368762
0.00294951
0.00286174
0.00294377
0.00349313
0.00370621
0.00454569
0.00514513
0.00663831
0.00834685
0.0103741
2.99115e-05
0.00314149
0.00324248
0.00273286
0.00287203
0.0023113
0.00259775
0.00267745
0.00313573
0.00365248
0.00296258
0.00287348
0.00293989
0.00349503
0.00371296
0.00452251
0.00515897
0.00657443
0.00824566
0.01003
3.772e-05
0.00313417
0.00325082
0.00273254
0.00285984
0.00231572
0.00260766
0.00265808
0.00313919
0.00361649
0.00297634
0.00288359
0.00293624
0.00349471
0.00371931
0.00449887
0.00516626
0.00650814
0.0081247
0.00970136
4.59434e-05
0.0031263
0.00326001
0.00273213
0.00284673
0.00232067
0.00261783
0.00263982
0.00314318
0.00357977
0.00299046
0.00289221
0.00293272
0.00349264
0.00372465
0.00447553
0.0051655
0.00643941
0.00798528
0.009383
5.45297e-05
0.00311789
0.00326999
0.00273172
0.00283297
0.00232595
0.00262818
0.00262243
0.00314749
0.00354257
0.00300455
0.00289959
0.00292913
0.00348967
0.00372792
0.00445281
0.005156
0.00636767
0.00782907
0.00906975
6.35035e-05
0.00310895
0.00328066
0.00273134
0.00281873
0.00233137
0.00263868
0.00260556
0.00315192
0.00350519
0.0030182
0.00290604
0.00292515
0.00348659
0.00372799
0.00443096
0.00513754
0.00629122
0.00765891
0.0087582
7.29262e-05
0.00309945
0.00329195
0.00273095
0.00280415
0.00233677
0.00264931
0.00258886
0.00315624
0.00346795
0.00303092
0.00291196
0.00292035
0.003484
0.00372419
0.00441004
0.00511003
0.00620741
0.00747838
0.00846023
8.28755e-05
0.00308934
0.00330377
0.00273052
0.00278933
0.00234203
0.00266006
0.00257206
0.00316026
0.00343119
0.00304226
0.00291782
0.00291406
0.0034825
0.0037161
0.00438929
0.00507423
0.00611293
0.00729109
0.00814744
9.34411e-05
0.00307855
0.00331607
0.00273
0.00277438
0.00234705
0.00267145
0.00255502
0.00316376
0.00339528
0.00305172
0.00292418
0.00290561
0.00348251
0.00370352
0.00436713
0.00503207
0.00600502
0.00709928
0.00783526
0.000104721
0.00306697
0.00332883
0.00272935
0.00275936
0.00235174
0.0026824
0.00253772
0.00316647
0.00336063
0.0030588
0.00293155
0.00289459
0.00348401
0.0036867
0.00434134
0.00498584
0.00588253
0.00690291
0.0075261
0.000116823
0.00305448
0.00334202
0.00272853
0.00274437
0.00235605
0.00269333
0.00252022
0.00316813
0.00332768
0.0030629
0.00294034
0.00288067
0.00348671
0.00366644
0.00430915
0.00493737
0.0057457
0.00670068
0.00722373
0.000129866
0.00304095
0.00335566
0.00272751
0.00272949
0.00235996
0.00270415
0.00250269
0.00316841
0.00329693
0.00306341
0.00295083
0.00286349
0.00349002
0.00364426
0.00426741
0.0048875
0.005596
0.00648997
0.00693183
0.000143985
0.0030262
0.00336973
0.00272626
0.00271479
0.00236343
0.00271476
0.00248537
0.00316691
0.00326895
0.00305986
0.00296308
0.00284227
0.00349258
0.00362226
0.00421364
0.00483549
0.00543678
0.00626767
0.00665167
0.000159326
0.00301007
0.00338425
0.00272475
0.00270035
0.0023665
0.00272496
0.00246854
0.00316318
0.00324425
0.00305193
0.00297695
0.00281017
0.00349212
0.00360225
0.00414689
0.00477934
0.00527224
0.00603145
0.00638307
0.00017605
0.00299235
0.0033992
0.00272296
0.00268624
0.0023692
0.00273454
0.00245256
0.00315672
0.00322325
0.00303932
0.0029921
0.0027845
0.00348623
0.00358514
0.00406718
0.00471607
0.00510657
0.0057808
0.00612467
0.00019434
0.00297282
0.00341458
0.0027209
0.00267324
0.0023716
0.00274327
0.00243791
0.00314699
0.00320617
0.00302212
0.00300786
0.00275951
0.00347266
0.00357114
0.00397564
0.00464188
0.00494401
0.0055175
0.00587153
0.000214399
0.00295124
0.00343036
0.00271855
0.00265983
0.00237391
0.00275079
0.00242508
0.00313357
0.00319296
0.00300069
0.00302307
0.00273621
0.00344966
0.00355977
0.00387449
0.00455309
0.00478753
0.00524504
0.00561663
0.000236439
0.00292738
0.00344648
0.002716
0.00264643
0.00237632
0.00275665
0.00241451
0.00311618
0.00318346
0.00297568
0.00303604
0.00271633
0.00341649
0.0035494
0.00376681
0.00444707
0.0046379
0.00496844
0.00535347
0.000260679
0.00290099
0.00346284
0.00271334
0.00263298
0.00237915
0.00276038
0.00240651
0.00309471
0.00317729
0.0029482
0.00304481
0.00270055
0.00337281
0.00353741
0.00365562
0.00432243
0.0044942
0.00469419
0.00507773
0.000287354
0.00287184
0.00347932
0.00271068
0.00261941
0.0023829
0.0027614
0.00240123
0.00306928
0.00317365
0.00291969
0.00304767
0.00268874
0.00331895
0.00352098
0.00354355
0.00417913
0.00435416
0.00442896
0.00478789
0.000316714
0.0028397
0.00349574
0.00270823
0.00260537
0.00238803
0.00275939
0.0023987
0.0030403
0.00317139
0.0028915
0.0030436
0.00268042
0.00325602
0.00349761
0.0034329
0.00401832
0.0042144
0.00417704
0.00448508
0.000349036
0.00280436
0.0035118
0.0027063
0.00259045
0.00239499
0.00275414
0.00239867
0.00300843
0.00316931
0.0028647
0.00303198
0.00267416
0.00318515
0.00346502
0.00332544
0.00384212
0.00407096
0.00394562
0.00417375
0.000384582
0.00276567
0.00352715
0.00270525
0.00257422
0.00240424
0.00274548
0.00240051
0.00297464
0.00316623
0.00284002
0.00301227
0.00266854
0.00310758
0.00342102
0.00322267
0.00365434
0.00391935
0.00373629
0.00386178
0.000423598
0.00272357
0.0035413
0.00270546
0.00255625
0.00241603
0.00273335
0.00240347
0.0029401
0.00316095
0.00281772
0.0029845
0.00266209
0.00302456
0.00336417
0.00312555
0.00345985
0.00375463
0.00354822
0.00356047
0.00046632
0.00267806
0.00355367
0.00270746
0.00253625
0.00243041
0.00271184
0.0024066
0.00290606
0.00315235
0.00279735
0.0029493
0.00265346
0.00293697
0.0032943
0.00303413
0.00326275
0.00358871
0.00337754
0.00328187
0.000512974
0.0026292
0.00356358
0.00271176
0.00251396
0.00244736
0.00269518
0.00240873
0.00287371
0.00313976
0.00277774
0.00290748
0.00263574
0.00284539
0.003212
0.00294768
0.00306659
0.00339071
0.00321722
0.00303398
0.000563773
0.00257725
0.00357021
0.00271877
0.00248927
0.00246653
0.00267768
0.00240864
0.00284393
0.00312278
0.00275713
0.00285984
0.002612
0.00275081
0.00311753
0.00286483
0.00287596
0.00317635
0.00305683
0.00281772
0.000618887
0.00252259
0.0035728
0.00272887
0.00246218
0.0024874
0.0026603
0.00240515
0.00281703
0.0031015
0.00273338
0.00280699
0.00258308
0.00265423
0.00301056
0.00278323
0.00269524
0.00295005
0.0028875
0.00262798
0.000678405
0.00246571
0.00356978
0.0027423
0.00243264
0.00250927
0.00264436
0.00239958
0.00279277
0.00307689
0.00270409
0.00274895
0.00255079
0.00255684
0.00289075
0.00270019
0.00252788
0.00271709
0.00270419
0.0024567
0.000742368
0.00240717
0.00356062
0.00275919
0.00240141
0.00253113
0.00263137
0.00238574
0.00277023
0.00305051
0.00266768
0.00268515
0.00251635
0.00246054
0.00275835
0.00261187
0.00237552
0.00248376
0.0025047
0.00229464
0.000810787
0.00234758
0.00354443
0.00277967
0.00236852
0.00255184
0.0026228
0.00236479
0.0027477
0.00302453
0.00262397
0.00261342
0.00248005
0.00236848
0.00261427
0.00251409
0.00223796
0.00225669
0.00228918
0.00213296
0.000883552
0.00228772
0.00352038
0.00280371
0.00233445
0.00257002
0.00261989
0.00233315
0.00272265
0.00300091
0.0025738
0.00253117
0.00244132
0.00228377
0.00245964
0.00240124
0.00211285
0.00204276
0.00206149
0.00196359
0.000960479
0.0022284
0.00348773
0.00283124
0.00229978
0.00258392
0.00262365
0.00229903
0.00269187
0.00298077
0.00252039
0.00243719
0.00239713
0.00220871
0.00230422
0.00227119
0.00199382
0.00184893
0.00183024
0.00178033
0.00104131
0.0021705
0.00344577
0.0028622
0.00226541
0.00259138
0.00263464
0.00226071
0.00265168
0.00296427
0.00246924
0.00233124
0.00234199
0.00214576
0.00215123
0.00212254
0.00187425
0.00167806
0.00160682
0.00158119
0.00112559
0.00211512
0.0033939
0.00289623
0.00223255
0.00258983
0.00265285
0.00222111
0.00259836
0.00294972
0.00242609
0.0022144
0.00227068
0.00209205
0.00200748
0.00195818
0.00174451
0.00152551
0.00140166
0.00137175
0.00121266
0.00206346
0.00333185
0.00293274
0.00220279
0.00257665
0.00267721
0.00218435
0.00252994
0.00293288
0.00239517
0.00209119
0.00217906
0.00204214
0.00187877
0.00178458
0.00159814
0.00138288
0.00122082
0.00116501
0.0013016
0.00201689
0.00325792
0.00297048
0.00217846
0.00254942
0.00270572
0.00215537
0.00244622
0.00290708
0.00237849
0.00196906
0.00206488
0.00198849
0.00176796
0.00161008
0.00143534
0.00123951
0.00106139
0.000973672
0.00139129
0.00197689
0.00317602
0.00300751
0.00216235
0.00250641
0.00273454
0.0021392
0.00234896
0.00286531
0.0023753
0.00185661
0.00192903
0.00192276
0.0016745
0.00144309
0.00126019
0.00108796
0.000915849
0.00080349
0.00148051
0.00194481
0.00308555
0.00304105
0.00215764
0.00244778
0.00275536
0.0021388
0.00224418
0.00280299
0.0023807
0.00176154
0.00177645
0.00183676
0.00159361
0.00129114
0.00107873
0.000926131
0.000776816
0.000654074
0.00156803
0.00192182
0.00298801
0.00306759
0.00216681
0.00237629
0.00276063
0.00215468
0.00214082
0.00271866
0.0023863
0.00168762
0.00161592
0.00172655
0.00151751
0.00115823
0.000897979
0.000753418
0.000638084
0.000522701
0.00165229
0.00190885
0.00288566
0.00308304
0.00219088
0.00229718
0.00274342
0.00218352
0.0020477
0.00261354
0.00238286
0.00163514
0.00145774
0.00159324
0.00143717
0.00104425
0.00072586
0.000570827
0.000492954
0.000405741
0.00173245
0.00190632
0.00278155
0.00308329
0.00222962
0.00221826
0.00269898
0.00221526
0.00197265
0.00249306
0.00236308
0.00160087
0.0013101
0.00144053
0.00134539
0.000945853
0.000569975
0.000384001
0.000334364
0.000295642
0.0018077
0.00191404
0.00267922
0.00306558
0.00228023
0.00214728
0.00262617
0.00224008
0.0019184
0.00236624
0.00232343
0.00157779
0.0011783
0.00127495
0.00123821
0.000857133
0.000434271
0.000203279
0.000160454
0.000179718
0.00187729
0.00193134
0.00258217
0.00302849
0.0023367
0.00209021
0.00252905
0.00224737
0.00188387
0.00224301
0.00226462
0.00155799
0.0010643
0.00110389
0.00111419
0.000771382
0.000317849
3.79718e-05
-2.08563e-05
4.59221e-05
0.00194062
0.00195708
0.00249372
0.00297201
0.00239026
0.00205108
0.00241823
0.00222953
0.00185981
0.00212974
0.00219142
0.00153684
0.000967638
0.000933263
0.000973655
0.000683222
0.000217706
-0.000108014
-0.000196474
-0.000107393
0.0019974
0.00198958
0.00241653
0.00289804
0.00243106
0.00203109
0.00230549
0.00218421
0.00183355
0.00202752
0.00211151
0.00151374
0.000886824
0.000767479
0.00081824
0.000588
0.000130974
-0.000234982
-0.000357649
-0.000268852
0.0020476
0.00202664
0.00235233
0.00281017
0.00245394
0.00202793
0.0022016
0.0021135
0.00179411
0.001934
0.00202988
0.00148955
0.000821468
0.000611317
0.000650838
0.000480894
5.38204e-05
-0.000343042
-0.000502623
-0.000424766
0.00209154
0.00206552
0.0023021
0.00271352
0.00245588
0.00203465
0.00211367
0.00202821
0.00173661
0.00183958
0.00194763
0.00146574
0.000772206
0.000469725
0.000475829
0.000357383
-2.04476e-05
-0.000431634
-0.00063145
-0.000568828
0.00212994
0.0021035
0.00226538
0.00261462
0.00243518
0.00204198
0.00204284
0.00194124
0.00166162
0.0017344
0.00186127
0.00144323
0.000739795
0.000347469
0.000300347
0.000215837
-0.000101035
-0.000503128
-0.000741405
-0.000701025
0.00216339
0.00213855
0.00224039
0.00251924
0.00239325
0.00204176
0.00198755
0.00186089
0.00157694
0.00161512
0.00176154
0.00142025
0.000724954
0.00024934
0.000132289
6.00117e-05
-0.000196361
-0.000564686
-0.000828877
-0.000820685
0.00219252
0.00216914
0.00222435
0.00243052
0.00233359
0.00202927
0.00193996
0.00179075
0.00149399
0.00148361
0.00164048
0.0013877
0.000726014
0.000179489
-2.06219e-05
-0.000102076
-0.000309566
-0.000628022
-0.000894691
-0.00092297
0.00221794
0.00219423
0.00221358
0.00235124
0.00226104
0.00199857
0.00189423
0.00173174
0.00142025
0.00134898
0.00149798
0.00133319
0.000736479
0.000140822
-0.000149973
-0.000262272
-0.000437143
-0.000703413
-0.000947088
-0.0010026
0.00223981
0.00221351
0.00220433
0.00228217
0.00218332
0.00195045
0.0018442
0.00168003
0.00135844
0.00122345
0.00133863
0.00124882
0.000741411
0.000129692
-0.000247158
-0.000411726
-0.000571481
-0.000794065
-0.000998899
-0.0010603
0.00225826
0.00222705
0.00219346
0.00222224
0.00210601
0.00188795
0.00178475
0.00162995
0.00130859
0.00111444
0.00117365
0.00113526
0.000726577
0.000136875
-0.000308399
-0.000539662
-0.000704171
-0.00089574
-0.00106015
-0.00110477
0.00227316
0.00223512
0.00217889
0.00216893
0.00203252
0.00181663
0.0017145
0.00157557
0.0012676
0.00102486
0.00101721
0.000998641
0.000683419
0.000146161
-0.000338742
-0.000636862
-0.000825998
-0.000999836
-0.00113264
-0.00114783
0.00228382
0.00223857
0.00216019
0.00211816
0.00196463
0.00174219
0.00163381
0.00151241
0.00122914
0.000953711
0.000878296
0.000850449
0.00061137
0.000144331
-0.000347006
-0.000701398
-0.000927461
-0.00109817
-0.00121036
-0.00119684
0.00228963
0.00223775
0.0021375
0.00206736
0.00190221
0.00166886
0.00154545
0.00143877
0.0011873
0.000897859
0.000761298
0.000705484
0.000517125
0.000123289
-0.000346492
-0.000737359
-0.00100294
-0.00118265
-0.00128435
-0.0012508
0.0022902
0.00223248
0.00211127
0.00201566
0.00184272
0.00159906
0.00145392
0.00135487
0.00113805
0.000851016
0.000665876
0.000573685
0.000410787
8.15691e-05
-0.000347478
-0.000750471
-0.0010513
-0.00124809
-0.00134714
-0.00130226
0.00228505
0.00222257
0.00208225
0.00196188
0.00178326
0.00153272
0.00136397
0.00126263
0.00107841
0.000806527
0.00058894
0.000460135
0.000305376
2.60808e-05
-0.000356402
-0.000749345
-0.00107375
-0.00129115
-0.00139335
-0.00134403
0.00227394
0.00220764
0.00205096
0.00190646
0.00172198
0.00146844
0.00127756
0.00116549
0.00100783
0.000759831
0.000526669
0.000365755
0.000209073
-3.3977e-05
-0.00037259
-0.000740648
-0.00107177
-0.00130899
-0.00141937
-0.00137026
0.00225678
0.0021873
0.00201742
0.00184955
0.00165796
0.00140429
0.00119435
0.00106677
0.000927564
0.00070722
0.000473914
0.000289941
0.000125908
-8.94781e-05
-0.000388337
-0.000726162
-0.00104794
-0.00129874
-0.00142085
-0.00137539
0.00223363
0.00216149
0.00198127
0.00179153
0.00159053
0.00133822
0.00111331
0.0009682
0.000839699
0.000646401
0.000424439
0.000230732
5.91863e-05
-0.000135125
-0.000395789
-0.000701616
-0.00100353
-0.00125681
-0.00139099
-0.00135202
0.00220471
0.00213018
0.00194179
0.00173246
0.00152013
0.00126816
0.00103232
0.000869755
0.000745645
0.00057686
0.000373733
0.000182698
9.60165e-06
-0.000166767
-0.000388626
-0.00065851
-0.000934033
-0.00117701
-0.0013194
-0.00128997
0.00217025
0.0020934
0.00189868
0.00167175
0.00144702
0.00119376
0.000949357
0.000770171
0.000644209
0.000496201
0.000318409
0.000141091
-2.40375e-05
-0.000180399
-0.000361538
-0.000586635
-0.000826934
-0.0010463
-0.00118793
-0.00117086
0.00213083
0.00205132
0.00185129
0.00160947
0.00137104
0.00111435
0.000863
0.000668003
0.000533793
0.000399299
0.000250167
9.90047e-05
-4.49544e-05
-0.00017214
-0.000306511
-0.000477038
-0.000665648
-0.000842496
-0.000964397
-0.000954011
0.00208715
0.00200434
0.00179877
0.00154524
0.00129295
0.00102967
0.000770923
0.000560689
0.000413535
0.000282897
0.000155296
3.70536e-05
-6.70338e-05
-0.000144657
-0.000212437
-0.000304708
-0.000424579
-0.000543161
-0.000621896
-0.000596519
0.00204024
0.00195217
0.00174221
0.0014783
0.00121225
0.000939682
0.000672243
0.000445941
0.00028173
0.000145725
2.68636e-05
-7.1471e-05
-0.000139674
-0.000146229
-9.30454e-05
-2.28594e-05
2.71907e-05
3.94486e-05
2.00352e-05
2.48782e-05
0.00199014
0.00189589
0.00168242
0.00140987
0.00112903
0.000842996
0.000565309
0.000322815
0.000138323
-1.09461e-05
-0.000133844
-0.000230323
-0.000299681
-0.000313149
-0.000216666
3.32881e-05
0.000463675
0.00102281
0.00156049
0.00192671
0.00193644
0.00183754
0.00162024
0.00133999
0.00104494
0.000740322
0.000447209
0.00018776
-1.48849e-05
-0.000180148
-0.000309479
-0.000383482
-0.000366806
-0.000193233
0.000208528
0.000807137
0.00144757
0.0019956
0.00235946
0.0024752
0.00188065
0.00177818
0.00155586
0.00126901
0.00096139
0.000638459
0.000319679
3.47769e-05
-0.000181374
-0.000331349
-0.000403181
-0.000371517
-0.000200267
0.000168709
0.00070397
0.00129373
0.00182294
0.00222986
0.00248311
0.00253754
0.00182647
0.00171855
0.00148983
0.00119459
0.000877335
0.000548903
0.000216577
-0.000108782
-0.000372785
-0.000527832
-0.000509519
-0.00025831
0.000183612
0.000714862
0.00126473
0.00178485
0.00222723
0.00255412
0.00273629
0.00272593
0.0017758
0.00166311
0.00142772
0.00111827
0.000783893
0.000445649
0.000143837
-8.62612e-05
-0.000223729
-0.000275045
-0.000264396
-0.000193483
-3.24989e-05
0.000259853
0.000732221
0.0013696
0.00204034
0.00259124
0.00292318
0.00298148
0.00173088
0.00161398
0.00137217
0.0010656
0.00073192
0.000375978
2.81932e-05
-0.000282521
-0.000475653
-0.000485491
-0.00029509
6.62485e-05
0.000545597
0.00106253
0.00156267
0.00201747
0.00239918
0.00267803
0.00281637
0.00276395
0.0016959
0.00157046
0.00131523
0.000994281
0.000647537
0.000290751
-2.73374e-05
-0.000268941
-0.000395829
-0.000382962
-0.00022445
7.84409e-05
0.000497286
0.000965279
0.0014249
0.00185172
0.00222996
0.00252587
0.00269108
0.00266608
0.0187041
0.0119091
0.00312211
-0.00348151
-0.00552701
-0.00471884
-0.0036377
-0.00308766
-0.00279127
-0.00243673
-0.00212366
-0.00195466
-0.0018458
-0.00183742
-0.00196161
-0.00203983
-0.00200446
-0.00198122
-0.00201624
-0.00206537
-0.00210653
-0.00213789
-0.00217745
-0.00223746
-0.00230311
-0.0023687
-0.00242674
-0.00246366
-0.00249438
-0.00253685
-0.00258147
-0.00260841
-0.00262069
-0.0026435
-0.00268059
-0.00270917
-0.00273015
-0.0027588
-0.00278689
-0.00280625
-0.00282393
-0.00285017
-0.00288071
-0.00291061
-0.00294724
-0.00299499
-0.00304472
-0.00308913
-0.00313472
-0.00318724
-0.00324827
-0.0033053
-0.00335611
-0.00341241
-0.00346383
-0.00349855
-0.00352929
-0.0035685
-0.00361758
-0.00366839
-0.00372326
-0.00378375
-0.0038433
-0.00389643
-0.00393561
-0.00397208
-0.0040133
-0.00407637
-0.00414858
-0.00421328
-0.00427386
-0.00432996
-0.00438192
-0.00443068
-0.00447951
-0.00452911
-0.00458014
-0.00461418
-0.00464964
-0.0046863
-0.00471855
-0.00474916
-0.00476662
-0.00477782
-0.00480509
-0.00482751
-0.00483006
-0.00483241
-0.00484552
-0.00485676
-0.00486667
-0.0048752
-0.00488249
-0.00488413
-0.00488751
-0.00489907
-0.00490925
-0.00491335
-0.00496653
-0.00502542
0.0177109
0.0117186
0.00319613
-0.00332877
-0.00543078
-0.00467411
-0.0036118
-0.00307104
-0.00277977
-0.00242755
-0.00211566
-0.00194766
-0.00183932
-0.0018313
-0.00195632
-0.00203533
-0.00200032
-0.00197737
-0.00201279
-0.00206228
-0.00210375
-0.00213537
-0.00217513
-0.00223535
-0.00230119
-0.00236694
-0.00242515
-0.0024622
-0.00249301
-0.00253557
-0.00258031
-0.00260734
-0.00261967
-0.00264252
-0.00267968
-0.00270831
-0.00272932
-0.002758
-0.00278614
-0.00280553
-0.00282323
-0.0028495
-0.00288007
-0.00290999
-0.00294664
-0.00299442
-0.00304418
-0.00308861
-0.00313422
-0.00318676
-0.00324781
-0.00330486
-0.0033557
-0.00341201
-0.00346345
-0.00349819
-0.00352894
-0.00356816
-0.00361725
-0.00366807
-0.00372296
-0.00378346
-0.00384302
-0.00389617
-0.00393537
-0.00397185
-0.00401307
-0.00407615
-0.00414837
-0.00421309
-0.00427367
-0.00432979
-0.00438176
-0.00443053
-0.00447937
-0.00452898
-0.00458001
-0.00461407
-0.00464953
-0.0046862
-0.00471845
-0.00474907
-0.00476655
-0.00477775
-0.00480503
-0.00482745
-0.00483001
-0.00483236
-0.00484548
-0.00485672
-0.00486663
-0.00487517
-0.00488246
-0.0048841
-0.00488748
-0.00489905
-0.00490923
-0.00491334
-0.00496652
-0.00502544
0.0168261
0.011539
0.0033562
-0.00304575
-0.00526262
-0.00461091
-0.00358106
-0.00304893
-0.00276302
-0.0024148
-0.00210596
-0.00194032
-0.00183326
-0.00182574
-0.00195127
-0.00203078
-0.00199615
-0.00197365
-0.0020095
-0.00205929
-0.00210103
-0.00213292
-0.00217291
-0.00223336
-0.00229939
-0.00236531
-0.00242369
-0.00246086
-0.00249175
-0.00253441
-0.00257926
-0.00260637
-0.00261876
-0.00264165
-0.00267888
-0.00270756
-0.00272859
-0.00275731
-0.0027855
-0.0028049
-0.00282262
-0.00284891
-0.00287951
-0.00290945
-0.00294611
-0.00299392
-0.00304371
-0.00308815
-0.00313378
-0.00318634
-0.00324741
-0.00330449
-0.00335533
-0.00341167
-0.00346313
-0.00349788
-0.00352863
-0.00356787
-0.00361696
-0.0036678
-0.00372269
-0.00378321
-0.00384279
-0.00389595
-0.00393515
-0.00397164
-0.00401287
-0.00407596
-0.0041482
-0.00421292
-0.00427352
-0.00432964
-0.00438162
-0.00443039
-0.00447925
-0.00452886
-0.00457991
-0.00461397
-0.00464944
-0.00468612
-0.00471837
-0.004749
-0.00476648
-0.00477768
-0.00480497
-0.0048274
-0.00482996
-0.00483231
-0.00484544
-0.00485668
-0.0048666
-0.00487514
-0.00488244
-0.00488408
-0.00488746
-0.00489903
-0.00490921
-0.00491332
-0.00496651
-0.00502546
0.0159982
0.011343
0.00355685
-0.00268905
-0.00502946
-0.0045174
-0.00353298
-0.00301252
-0.00273482
-0.00239437
-0.00209173
-0.00193062
-0.00182643
-0.00181995
-0.00194536
-0.00202486
-0.00199089
-0.00196928
-0.00200564
-0.00205559
-0.00209754
-0.00212976
-0.00217012
-0.00223089
-0.00229714
-0.00236327
-0.00242189
-0.00245924
-0.00249028
-0.00253305
-0.00257801
-0.00260524
-0.00261771
-0.00264069
-0.00267801
-0.00270675
-0.00272781
-0.00275659
-0.00278482
-0.00280425
-0.00282198
-0.0028483
-0.00287892
-0.00290888
-0.00294557
-0.00299341
-0.00304322
-0.00308768
-0.00313332
-0.00318589
-0.003247
-0.00330411
-0.00335496
-0.00341131
-0.0034628
-0.00349756
-0.00352832
-0.00356756
-0.00361667
-0.00366752
-0.00372242
-0.00378296
-0.00384255
-0.00389573
-0.00393494
-0.00397142
-0.00401265
-0.00407575
-0.00414801
-0.00421275
-0.00427335
-0.00432949
-0.00438147
-0.00443026
-0.00447912
-0.00452874
-0.0045798
-0.00461387
-0.00464934
-0.00468603
-0.00471829
-0.00474893
-0.00476641
-0.00477761
-0.00480491
-0.00482735
-0.00482991
-0.00483226
-0.00484539
-0.00485664
-0.00486656
-0.00487511
-0.00488241
-0.00488406
-0.00488743
-0.00489901
-0.00490919
-0.0049133
-0.00496648
-0.0050255
0.0151825
0.0111143
0.00376419
-0.00230938
-0.0047682
-0.00440772
-0.00347495
-0.00296505
-0.00269553
-0.00236552
-0.00207182
-0.00191728
-0.00181793
-0.00181336
-0.00193789
-0.00201671
-0.00198386
-0.00196388
-0.00200096
-0.0020509
-0.00209291
-0.00212551
-0.00216635
-0.00222749
-0.00229397
-0.00236033
-0.00241929
-0.00245703
-0.00248832
-0.00253122
-0.00257629
-0.00260369
-0.00261636
-0.00263948
-0.00267691
-0.00270574
-0.00272689
-0.00275576
-0.00278405
-0.00280353
-0.00282129
-0.00284761
-0.00287825
-0.00290824
-0.00294496
-0.00299283
-0.00304267
-0.00308713
-0.00313278
-0.00318538
-0.00324652
-0.00330368
-0.00335455
-0.00341092
-0.00346243
-0.0034972
-0.00352797
-0.00356722
-0.00361634
-0.0036672
-0.00372212
-0.00378268
-0.00384229
-0.00389548
-0.00393469
-0.00397117
-0.0040124
-0.00407552
-0.00414781
-0.00421255
-0.00427317
-0.00432931
-0.00438131
-0.0044301
-0.00447897
-0.0045286
-0.00457967
-0.00461375
-0.00464922
-0.00468592
-0.00471819
-0.00474884
-0.00476633
-0.00477753
-0.00480483
-0.0048273
-0.00482986
-0.00483221
-0.00484534
-0.0048566
-0.00486652
-0.00487507
-0.00488238
-0.00488403
-0.0048874
-0.00489898
-0.00490917
-0.00491326
-0.00496643
-0.00502557
0.0143821
0.0108551
0.00396293
-0.00192625
-0.0044934
-0.0042905
-0.00341466
-0.00291332
-0.00265004
-0.00233111
-0.00204776
-0.00190098
-0.00180779
-0.00180574
-0.00192869
-0.00200624
-0.00197497
-0.00195731
-0.00199536
-0.00204522
-0.0020872
-0.00212022
-0.00216161
-0.00222309
-0.00228968
-0.00235617
-0.00241555
-0.00245391
-0.00248568
-0.00252873
-0.00257388
-0.00260155
-0.00261455
-0.00263788
-0.00267544
-0.00270442
-0.00272574
-0.00275474
-0.00278313
-0.0028027
-0.00282052
-0.00284685
-0.00287749
-0.00290752
-0.00294429
-0.00299218
-0.00304202
-0.00308649
-0.00313215
-0.00318477
-0.00324596
-0.00330317
-0.00335408
-0.00341046
-0.00346199
-0.00349677
-0.00352757
-0.00356684
-0.00361597
-0.00366683
-0.00372178
-0.00378238
-0.00384199
-0.00389519
-0.00393439
-0.00397088
-0.00401211
-0.00407525
-0.00414756
-0.00421232
-0.00427294
-0.00432909
-0.0043811
-0.0044299
-0.00447878
-0.00452843
-0.00457951
-0.0046136
-0.00464908
-0.0046858
-0.00471807
-0.00474874
-0.00476623
-0.00477743
-0.00480475
-0.00482722
-0.00482978
-0.00483213
-0.00484528
-0.00485654
-0.00486647
-0.00487503
-0.00488233
-0.00488398
-0.00488736
-0.00489894
-0.00490913
-0.00491322
-0.00496636
-0.00502564
0.0136069
0.0105684
0.00414497
-0.00154598
-0.00420729
-0.00416615
-0.00335372
-0.00286011
-0.00260096
-0.00229306
-0.00202092
-0.00188268
-0.00179637
-0.00179711
-0.00191809
-0.00199404
-0.0019646
-0.00194969
-0.00198891
-0.00203868
-0.00208062
-0.00211418
-0.00215622
-0.00221795
-0.00228443
-0.00235081
-0.00241054
-0.00244972
-0.00248219
-0.00252543
-0.00257064
-0.00259869
-0.00261219
-0.00263579
-0.00267346
-0.00270266
-0.00272423
-0.00275342
-0.00278197
-0.00280172
-0.00281965
-0.00284598
-0.00287662
-0.00290671
-0.00294355
-0.00299146
-0.00304127
-0.00308573
-0.0031314
-0.00318402
-0.00324526
-0.00330257
-0.00335354
-0.00340993
-0.00346145
-0.00349627
-0.00352712
-0.00356641
-0.00361553
-0.00366641
-0.0037214
-0.00378204
-0.00384166
-0.00389485
-0.00393404
-0.00397052
-0.00401176
-0.00407492
-0.00414726
-0.00421203
-0.00427266
-0.00432881
-0.00438084
-0.00442966
-0.00447855
-0.0045282
-0.0045793
-0.00461341
-0.00464891
-0.00468563
-0.00471791
-0.0047486
-0.0047661
-0.00477729
-0.00480463
-0.00482712
-0.00482968
-0.00483204
-0.00484519
-0.00485646
-0.0048664
-0.00487497
-0.00488228
-0.00488393
-0.00488731
-0.00489889
-0.00490908
-0.00491314
-0.00496625
-0.00502572
0.0128639
0.0102564
0.00430514
-0.00117086
-0.00390888
-0.00403247
-0.00329166
-0.00280643
-0.00254945
-0.00225219
-0.00199194
-0.00186287
-0.00178386
-0.00178762
-0.00190655
-0.00198076
-0.00195322
-0.00194126
-0.00198178
-0.00203147
-0.00207342
-0.00210768
-0.0021505
-0.00221245
-0.0022786
-0.00234457
-0.00240446
-0.00244451
-0.0024778
-0.00252125
-0.00256653
-0.00259509
-0.00260928
-0.0026332
-0.00267095
-0.00270037
-0.00272228
-0.00275169
-0.00278046
-0.0028005
-0.00281863
-0.00284498
-0.00287561
-0.00290579
-0.00294275
-0.00299065
-0.00304041
-0.00308484
-0.00313049
-0.00318309
-0.00324438
-0.00330183
-0.0033529
-0.00340929
-0.0034608
-0.00349567
-0.0035266
-0.00356591
-0.003615
-0.0036659
-0.00372096
-0.00378166
-0.0038413
-0.00389446
-0.00393362
-0.00397009
-0.00401134
-0.00407453
-0.00414689
-0.00421166
-0.00427229
-0.00432846
-0.0043805
-0.00442934
-0.00447825
-0.0045279
-0.00457902
-0.00461315
-0.00464867
-0.00468541
-0.00471769
-0.00474841
-0.00476592
-0.00477712
-0.00480448
-0.00482698
-0.00482954
-0.00483191
-0.00484508
-0.00485635
-0.0048663
-0.00487488
-0.00488219
-0.00488386
-0.00488723
-0.00489882
-0.00490901
-0.00491304
-0.00496609
-0.0050258
0.0121568
0.00992222
0.00444093
-0.000801742
-0.00359727
-0.00388783
-0.00322845
-0.00275369
-0.00249683
-0.00220923
-0.0019612
-0.00184176
-0.00177039
-0.0017775
-0.00189444
-0.0019668
-0.00194114
-0.00193221
-0.00197411
-0.00202375
-0.00206576
-0.00210084
-0.00214458
-0.00220679
-0.00227253
-0.00233787
-0.0023977
-0.00243855
-0.00247268
-0.00251631
-0.00256164
-0.00259082
-0.00260588
-0.00263019
-0.00266797
-0.00269761
-0.00271988
-0.00274953
-0.00277855
-0.00279898
-0.00281742
-0.00284382
-0.00287445
-0.00290477
-0.00294187
-0.00298977
-0.00303947
-0.00308386
-0.00312946
-0.00318198
-0.00324329
-0.0033009
-0.00335212
-0.00340852
-0.00346001
-0.00349497
-0.00352602
-0.00356534
-0.00361436
-0.00366526
-0.00372043
-0.00378123
-0.00384089
-0.00389401
-0.00393313
-0.00396958
-0.00401084
-0.00407404
-0.00414642
-0.00421119
-0.00427183
-0.00432799
-0.00438006
-0.00442893
-0.00447785
-0.0045275
-0.00457862
-0.0046128
-0.00464837
-0.00468511
-0.00471741
-0.00474815
-0.00476567
-0.00477689
-0.00480427
-0.00482679
-0.00482936
-0.00483175
-0.00484492
-0.00485621
-0.00486617
-0.00487476
-0.00488208
-0.00488375
-0.00488713
-0.00489873
-0.00490891
-0.00491291
-0.00496588
-0.00502587
0.0114879
0.00957118
0.00455171
-0.000440363
-0.00327384
-0.00373202
-0.00316469
-0.00270342
-0.00244438
-0.00216467
-0.00192872
-0.00181932
-0.00175605
-0.00176686
-0.00188193
-0.0019523
-0.00192845
-0.00192264
-0.001966
-0.00201564
-0.00205772
-0.00209368
-0.00213843
-0.00220096
-0.00226628
-0.00233091
-0.00239056
-0.00243212
-0.00246702
-0.00251078
-0.00255613
-0.00258602
-0.00260207
-0.00262683
-0.00266463
-0.00269448
-0.00271711
-0.00274697
-0.00277623
-0.00279712
-0.00281596
-0.00284248
-0.00287314
-0.00290364
-0.00294091
-0.00298882