/*--------------------------------*- C++ -*----------------------------------*\
| =========                 |                                                 |
| \\      /  F ield         | OpenFOAM: The Open Source CFD Toolbox           |
|  \\    /   O peration     | Version:  v1812                                 |
|   \\  /    A nd           | Web:      www.OpenFOAM.com                      |
|    \\/     M anipulation  |                                                 |
\*---------------------------------------------------------------------------*/
FoamFile
{
    version     2.0;
    format      ascii;
    class       surfaceScalarField;
    location    "1";
    object      phi;
}
// * * * * * * * * * * * * * * * * * * * * * * * * * * * * * * * * * * * * * //

dimensions      [0 3 -1 0 0 0 0];
oriented        oriented;


internalField   nonuniform List<scalar> 
19000
(
1.18508e-06
-4.29851e-07
1.16268e-06
-8.32193e-08
1.16623e-06
-1.99254e-07
1.16926e-06
4.38567e-07
1.17032e-06
-8.14775e-08
1.1966e-06
-2.40933e-07
1.21818e-06
8.39567e-08
1.19673e-06
-1.17009e-07
1.21197e-06
3.81127e-07
1.16782e-06
-7.36309e-08
1.18072e-06
2.45158e-07
1.16877e-06
2.11147e-07
1.171e-06
-4.53989e-08
1.17671e-06
-6.97944e-08
1.18206e-06
-2.32295e-07
1.17875e-06
-1.65693e-07
1.19148e-06
-2.41849e-07
1.19041e-06
-1.25872e-07
1.19754e-06
-1.14582e-07
-5.86391e-08
1.16776e-06
1.24216e-06
-4.47745e-07
1.22091e-06
-6.19763e-08
1.22507e-06
-2.03409e-07
1.23231e-06
4.31327e-07
1.23101e-06
-8.01748e-08
1.25649e-06
-2.66415e-07
1.27607e-06
6.43722e-08
1.25787e-06
-9.88101e-08
1.26603e-06
3.72968e-07
1.22961e-06
-3.72128e-08
1.23187e-06
2.42903e-07
1.23479e-06
2.08225e-07
1.2255e-06
-3.61038e-08
1.2411e-06
-8.53997e-08
1.23441e-06
-2.25607e-07
1.24588e-06
-1.7716e-07
1.24016e-06
-2.3613e-07
1.26015e-06
-1.45862e-07
1.24288e-06
-9.73119e-08
-6.6146e-08
1.25039e-06
1.29873e-06
-4.63694e-07
1.28513e-06
-4.83701e-08
1.28792e-06
-2.062e-07
1.30069e-06
4.1855e-07
1.2949e-06
-7.43837e-08
1.31979e-06
-2.91304e-07
1.33606e-06
4.81008e-08
1.32441e-06
-8.71623e-08
1.32447e-06
3.72914e-07
1.29955e-06
-1.2298e-08
1.29096e-06
2.51492e-07
1.30259e-06
1.96599e-07
1.28722e-06
-2.07308e-08
1.30095e-06
-9.91289e-08
1.29179e-06
-2.16452e-07
1.30234e-06
-1.87709e-07
1.29693e-06
-2.30717e-07
1.31115e-06
-1.60083e-07
1.30433e-06
-9.04985e-08
-6.07988e-08
1.29899e-06
1.35526e-06
-4.74849e-07
1.35101e-06
-4.4121e-08
1.35322e-06
-2.0841e-07
1.36963e-06
4.02135e-07
1.35934e-06
-6.40912e-08
1.38285e-06
-3.14808e-07
1.39663e-06
3.43149e-08
1.3921e-06
-8.26321e-08
1.38758e-06
3.77441e-07
1.37132e-06
3.9606e-09
1.36e-06
2.62807e-07
1.36939e-06
1.87209e-07
1.35518e-06
-6.52235e-09
1.35966e-06
-1.03602e-07
1.3528e-06
-2.09594e-07
1.35868e-06
-1.93591e-07
1.35624e-06
-2.28277e-07
1.36588e-06
-1.69717e-07
1.36445e-06
-8.90763e-08
-5.48518e-08
1.35851e-06
1.41294e-06
-4.79437e-07
1.41639e-06
-4.75673e-08
1.41975e-06
-2.11771e-07
1.43661e-06
3.8527e-07
1.42365e-06
-5.11295e-08
1.44405e-06
-3.35207e-07
1.45673e-06
2.16338e-08
1.4576e-06
-8.34946e-08
1.45288e-06
3.82161e-07
1.44116e-06
1.56766e-08
1.43336e-06
2.70609e-07
1.43672e-06
1.83847e-07
1.42443e-06
5.77043e-09
1.42178e-06
-1.00952e-07
1.41486e-06
-2.02675e-07
1.41863e-06
-1.97365e-07
1.41641e-06
-2.26058e-07
1.42418e-06
-1.7749e-07
1.42459e-06
-8.94783e-08
-5.03056e-08
1.42004e-06
1.47387e-06
-4.77626e-07
1.48141e-06
-5.51103e-08
1.48711e-06
-2.17473e-07
1.50201e-06
3.70374e-07
1.48877e-06
-3.78965e-08
1.50456e-06
-3.50993e-07
1.5164e-06
9.79328e-09
1.52042e-06
-8.7516e-08
1.51781e-06
3.8477e-07
1.50852e-06
2.49655e-08
1.50547e-06
2.73663e-07
1.50462e-06
1.84693e-07
1.4932e-06
1.71978e-08
1.48737e-06
-9.51249e-08
1.47919e-06
-1.94494e-07
1.48153e-06
-1.99704e-07
1.47895e-06
-2.23479e-07
1.48443e-06
-1.82972e-07
1.48592e-06
-9.09723e-08
-4.60544e-08
1.48167e-06
1.53982e-06
-4.71233e-07
1.54794e-06
-6.32305e-08
1.55559e-06
-2.25116e-07
1.56789e-06
3.58075e-07
1.55617e-06
-2.61777e-08
1.56674e-06
-3.6156e-07
1.57683e-06
-2.97829e-10
1.58206e-06
-9.27465e-08
1.58185e-06
3.84982e-07
1.57447e-06
3.23361e-08
1.57505e-06
2.73083e-07
1.57296e-06
1.86783e-07
1.56271e-06
2.74517e-08
1.55626e-06
-8.86795e-08
1.54751e-06
-1.85737e-07
1.54817e-06
-2.00369e-07
1.54517e-06
-2.20477e-07
1.5477e-06
-1.855e-07
1.54936e-06
-9.26311e-08
-4.13187e-08
1.54462e-06
1.61151e-06
-4.62619e-07
1.61803e-06
-6.97466e-08
1.62592e-06
-2.33007e-07
1.63637e-06
3.47626e-07
1.62705e-06
-1.68532e-08
1.63262e-06
-3.67137e-07
1.63991e-06
-7.58895e-09
1.64482e-06
-9.76546e-08
1.64648e-06
3.83321e-07
1.64095e-06
3.78638e-08
1.64399e-06
2.70052e-07
1.64273e-06
1.88039e-07
1.63467e-06
3.55139e-08
1.62893e-06
-8.29413e-08
1.62055e-06
-1.77356e-07
1.61951e-06
-1.99331e-07
1.61593e-06
-2.16894e-07
1.61527e-06
-1.84837e-07
1.61621e-06
-9.35734e-08
-3.56166e-08
1.61051e-06
1.68859e-06
-4.53636e-07
1.69282e-06
-7.39745e-08
1.69909e-06
-2.39279e-07
1.70881e-06
3.37911e-07
1.70209e-06
-1.01329e-08
1.70337e-06
-3.68419e-07
1.70746e-06
-1.16835e-08
1.71104e-06
-1.01229e-07
1.71404e-06
3.80323e-07
1.71017e-06
4.17249e-08
1.7149e-06
2.65322e-07
1.71546e-06
1.87489e-07
1.71022e-06
4.07462e-08
1.70569e-06
-7.84036e-08
1.69829e-06
-1.69966e-07
1.69567e-06
-1.96708e-07
1.69148e-06
-2.12697e-07
1.68775e-06
-1.81111e-07
1.68744e-06
-9.32588e-08
-2.8824e-08
1.68064e-06
1.7703e-06
-4.45211e-07
1.77254e-06
-7.6214e-08
1.77606e-06
-2.42802e-07
1.78583e-06
3.28135e-07
1.78151e-06
-5.80583e-09
1.77939e-06
-3.663e-07
1.78064e-06
-1.29327e-08
1.78247e-06
-1.03062e-07
1.7865e-06
3.7629e-07
1.78399e-06
4.42409e-08
1.78991e-06
2.59403e-07
1.79238e-06
1.85014e-07
1.78996e-06
4.31681e-08
1.78651e-06
-7.49518e-08
1.78038e-06
-1.63838e-07
1.7763e-06
-1.92631e-07
1.7716e-06
-2.07997e-07
1.76526e-06
-1.74774e-07
1.76345e-06
-9.14476e-08
-2.1197e-08
1.75583e-06
1.85604e-06
-4.37499e-07
1.85697e-06
-7.71473e-08
1.85753e-06
-2.43364e-07
1.8677e-06
3.17962e-07
1.86529e-06
-3.38911e-09
1.8607e-06
-3.61709e-07
1.85988e-06
-1.21123e-08
1.86009e-06
-1.03275e-07
1.86504e-06
3.71335e-07
1.86349e-06
4.57945e-08
1.8702e-06
2.52698e-07
1.87418e-06
1.81032e-07
1.87412e-06
4.32306e-08
1.87128e-06
-7.21156e-08
1.86644e-06
-1.58996e-07
1.86104e-06
-1.87236e-07
1.85597e-06
-2.02925e-07
1.84771e-06
-1.66516e-07
1.84433e-06
-8.80613e-08
-1.32825e-08
1.83641e-06
1.9456e-06
-4.30259e-07
1.94591e-06
-7.74592e-08
1.9439e-06
-2.41353e-07
1.95452e-06
3.07343e-07
1.95339e-06
-2.26116e-09
1.94717e-06
-3.55488e-07
1.94511e-06
-1.00537e-08
1.94413e-06
-1.02299e-07
1.94999e-06
3.65482e-07
1.94902e-06
4.676e-08
1.95623e-06
2.45495e-07
1.96106e-06
1.76197e-07
1.96279e-06
4.15018e-08
1.96e-06
-6.93246e-08
1.95631e-06
-1.55304e-07
1.94977e-06
-1.80701e-07
1.94437e-06
-1.97529e-07
1.93498e-06
-1.5712e-07
1.93002e-06
-8.3108e-08
-5.71833e-09
1.92246e-06
2.03908e-06
-4.23149e-07
2.03931e-06
-7.76919e-08
2.0353e-06
-2.3734e-07
2.04632e-06
2.96319e-07
2.04587e-06
-1.8058e-09
2.03869e-06
-3.4831e-07
2.03605e-06
-7.40968e-09
2.03439e-06
-1.00638e-07
2.04112e-06
3.58746e-07
2.04041e-06
4.74674e-08
2.04799e-06
2.37921e-07
2.05302e-06
1.71167e-07
2.05606e-06
3.84609e-08
2.05283e-06
-6.60977e-08
2.05006e-06
-1.5253e-07
2.04262e-06
-1.73263e-07
2.0368e-06
-1.91705e-07
2.02703e-06
-1.47353e-07
2.02059e-06
-7.66753e-08
1.01118e-09
2.01386e-06
2.13673e-06
-4.15878e-07
2.13727e-06
-7.82295e-08
2.13175e-06
-2.31823e-07
2.14315e-06
2.84921e-07
2.14287e-06
-1.52256e-09
2.13521e-06
-3.40655e-07
2.13238e-06
-4.58288e-09
2.13045e-06
-9.87048e-08
2.13804e-06
3.51153e-07
2.13732e-06
4.81878e-08
2.14529e-06
2.29951e-07
2.15e-06
1.66465e-07
2.15402e-06
3.44315e-08
2.15007e-06
-6.21425e-08
2.14792e-06
-1.50379e-07
2.13988e-06
-1.65227e-07
2.1334e-06
-1.85217e-07
2.1239e-06
-1.37858e-07
2.11621e-06
-6.8982e-08
6.74577e-09
2.11047e-06
2.23885e-06
-4.08241e-07
2.23995e-06
-7.93246e-08
2.23326e-06
-2.25136e-07
2.24504e-06
2.73145e-07
2.24459e-06
-1.07132e-09
2.23676e-06
-3.3283e-07
2.23394e-06
-1.76337e-09
2.23198e-06
-9.67462e-08
2.24041e-06
3.4273e-07
2.23946e-06
4.91341e-08
2.24795e-06
2.21458e-07
2.25199e-06
1.62432e-07
2.2568e-06
2.96141e-08
2.25204e-06
-5.73793e-08
2.25017e-06
-1.48514e-07
2.24191e-06
-1.56963e-07
2.23445e-06
-1.77753e-07
2.22569e-06
-1.29098e-07
2.2171e-06
-6.03972e-08
1.16686e-08
2.21218e-06
2.34574e-06
-4.00109e-07
2.34755e-06
-8.11333e-08
2.33988e-06
-2.17468e-07
2.35207e-06
2.60954e-07
2.35126e-06
-2.60552e-10
2.34344e-06
-3.2501e-07
2.34069e-06
9.91253e-10
2.33879e-06
-9.48477e-08
2.34803e-06
3.33494e-07
2.34669e-06
5.04701e-08
2.35586e-06
2.12289e-07
2.35906e-06
1.59236e-07
2.36452e-06
2.41486e-08
2.35906e-06
-5.19171e-08
2.35711e-06
-1.46567e-07
2.34902e-06
-1.48869e-07
2.34027e-06
-1.69011e-07
2.33249e-06
-1.21316e-07
2.32346e-06
-5.13688e-08
1.61534e-08
2.31898e-06
2.45769e-06
-3.91402e-07
2.4603e-06
-8.37451e-08
2.45174e-06
-2.08908e-07
2.46439e-06
2.48301e-07
2.46314e-06
9.91696e-10
2.45542e-06
-3.17284e-07
2.45273e-06
3.67908e-09
2.45085e-06
-9.29745e-08
2.4609e-06
3.23451e-07
2.45905e-06
5.23213e-08
2.46902e-06
2.02314e-07
2.47134e-06
1.56911e-07
2.47732e-06
1.81778e-08
2.47141e-06
-4.60157e-08
2.46899e-06
-1.44145e-07
2.46146e-06
-1.41341e-07
2.45129e-06
-1.58832e-07
2.44441e-06
-1.14444e-07
2.43546e-06
-4.24106e-08
2.06011e-08
2.43101e-06
2.57496e-06
-3.8207e-07
2.57843e-06
-8.7209e-08
2.56901e-06
-1.99494e-07
2.58217e-06
2.35142e-07
2.58046e-06
2.69867e-09
2.57286e-06
-3.09684e-07
2.57024e-06
6.30095e-09
2.56829e-06
-9.10221e-08
2.57915e-06
3.12591e-07
2.57669e-06
5.47818e-08
2.58753e-06
1.91469e-07
2.58906e-06
1.55382e-07
2.59535e-06
1.18933e-08
2.58937e-06
-4.00361e-08
2.58609e-06
-1.40862e-07
2.57943e-06
-1.34684e-07
2.56792e-06
-1.47325e-07
2.56156e-06
-1.08084e-07
2.55323e-06
-3.40808e-08
2.53154e-08
2.54852e-06
2.69784e-06
-3.72085e-07
2.70218e-06
-9.15501e-08
2.69193e-06
-1.89239e-07
2.70562e-06
2.21451e-07
2.70349e-06
4.83449e-09
2.696e-06
-3.02198e-07
2.69347e-06
8.83105e-09
2.6913e-06
-8.88546e-08
2.70301e-06
3.00888e-07
2.69987e-06
5.79153e-08
2.71158e-06
1.79764e-07
2.71248e-06
1.54479e-07
2.71882e-06
5.55421e-09
2.71316e-06
-3.43798e-08
2.70868e-06
-1.36375e-07
2.70305e-06
-1.29062e-07
2.69054e-06
-1.34812e-07
2.68413e-06
-1.01672e-07
2.67693e-06
-2.68805e-08
3.04181e-08
2.67182e-06
2.82661e-06
-3.61429e-07
2.83184e-06
-9.67806e-08
2.82076e-06
-1.78153e-07
2.83498e-06
2.0723e-07
2.83246e-06
7.34964e-09
2.82505e-06
-2.94788e-07
2.82268e-06
1.12039e-08
2.82015e-06
-8.63249e-08
2.83273e-06
2.88304e-07
2.8289e-06
6.17502e-08
2.84137e-06
1.6729e-07
2.84189e-06
1.53961e-07
2.84796e-06
-5.18385e-10
2.84303e-06
-2.94418e-08
2.83707e-06
-1.30423e-07
2.83246e-06
-1.2445e-07
2.81943e-06
-1.21779e-07
2.81242e-06
-9.46656e-08
2.80666e-06
-2.11181e-08
3.58037e-08
2.80127e-06
2.96156e-06
-3.50092e-07
2.96768e-06
-1.02903e-07
2.95578e-06
-1.66255e-07
2.9705e-06
1.92512e-07
2.96768e-06
1.01751e-08
2.96027e-06
-2.87379e-07
2.95816e-06
1.3313e-08
2.95512e-06
-8.32848e-08
2.96862e-06
2.74797e-07
2.96411e-06
6.62693e-08
2.97719e-06
1.54207e-07
2.97761e-06
1.5354e-07
2.98306e-06
-5.97368e-09
2.97918e-06
-2.55529e-08
2.97165e-06
-1.22893e-07
2.96781e-06
-1.20615e-07
2.95482e-06
-1.0879e-07
2.94686e-06
-8.67049e-08
2.94253e-06
-1.67869e-08
4.11343e-08
2.9372e-06
3.10298e-06
-3.38069e-07
3.10999e-06
-1.0991e-07
3.09732e-06
-1.53582e-07
3.11247e-06
1.77363e-07
3.10942e-06
1.32191e-08
3.10191e-06
-2.79869e-07
3.10021e-06
1.50186e-08
3.09652e-06
-7.95959e-08
3.11097e-06
2.60351e-07
3.10585e-06
7.13884e-08
3.1193e-06
1.40753e-07
3.11997e-06
1.52872e-07
3.12443e-06
-1.044e-08
3.12182e-06
-2.29381e-08
3.11279e-06
-1.13863e-07
3.10931e-06
-1.17135e-07
3.09692e-06
-9.6401e-08
3.08787e-06
-7.76583e-08
3.08469e-06
-1.3601e-08
4.59381e-08
3.07988e-06
3.2512e-06
-3.25364e-07
3.25908e-06
-1.17784e-07
3.24569e-06
-1.40193e-07
3.26117e-06
1.61883e-07
3.25802e-06
1.63646e-08
3.25028e-06
-2.72125e-07
3.24914e-06
1.61539e-08
3.24468e-06
-7.51349e-08
3.26004e-06
2.44991e-07
3.25449e-06
7.69425e-08
3.26801e-06
1.27235e-07
3.26929e-06
1.51593e-07
3.27242e-06
-1.35781e-08
3.27116e-06
-2.16739e-08
3.26088e-06
-1.03581e-07
3.25726e-06
-1.13521e-07
3.2459e-06
-8.50389e-08
3.23589e-06
-6.76442e-08
3.23336e-06
-1.10677e-08
4.97348e-08
3.22956e-06
3.40655e-06
-3.11984e-07
3.41526e-06
-1.26493e-07
3.40124e-06
-1.26176e-07
3.41692e-06
1.46208e-07
3.41382e-06
1.94641e-08
3.40568e-06
-2.63983e-07
3.4053e-06
1.65352e-08
3.39997e-06
-6.98085e-08
3.41615e-06
2.28812e-07
3.41041e-06
8.26848e-08
3.42364e-06
1.14005e-07
3.42586e-06
1.49368e-07
3.42742e-06
-1.51391e-08
3.42741e-06
-2.1662e-08
3.41626e-06
-9.24342e-08
3.41204e-06
-1.09298e-07
3.40197e-06
-7.49745e-08
3.39129e-06
-5.69586e-08
3.38887e-06
-8.64473e-09
5.21874e-08
3.38641e-06
3.56937e-06
-2.97947e-07
3.57887e-06
-1.35987e-07
3.56434e-06
-1.11647e-07
3.58003e-06
1.30512e-07
3.57716e-06
2.23374e-08
3.56844e-06
-2.55258e-07
3.569e-06
1.59758e-08
3.56276e-06
-6.35743e-08
3.57958e-06
2.11992e-07
3.57396e-06
8.83013e-08
3.58654e-06
1.01431e-07
3.58997e-06
1.45941e-07
3.58987e-06
-1.50405e-08
3.59082e-06
-2.26151e-08
3.57925e-06
-8.08651e-08
3.57407e-06
-1.04114e-07
3.56538e-06
-6.62882e-08
3.55442e-06
-4.6e-08
3.55165e-06
-5.86838e-09
5.31986e-08
3.55063e-06
3.74003e-06
-2.83276e-07
3.75025e-06
-1.46202e-07
3.73536e-06
-9.67571e-08
3.75086e-06
1.15011e-07
3.74842e-06
2.4777e-08
3.73892e-06
-2.45751e-07
3.74056e-06
1.43275e-08
3.73347e-06
-5.64778e-08
3.75067e-06
1.94787e-07
3.74553e-06
9.34439e-08
3.7571e-06
8.98622e-08
3.76185e-06
1.41185e-07
3.7602e-06
-1.33874e-08
3.76169e-06
-2.41064e-08
3.75016e-06
-6.93367e-08
3.74381e-06
-9.77647e-08
3.73642e-06
-5.8896e-08
3.72562e-06
-3.51945e-08
3.72217e-06
-2.42653e-09
5.2931e-08
3.72244e-06
3.91892e-06
-2.68008e-07
3.92977e-06
-1.57049e-07
3.9147e-06
-8.16957e-08
3.92976e-06
9.99584e-08
3.92798e-06
2.65523e-08
3.9175e-06
-2.35273e-07
3.92032e-06
1.15087e-08
3.91252e-06
-4.86716e-08
3.92978e-06
1.77523e-07
3.92546e-06
9.77648e-08
3.93574e-06
7.95797e-08
3.94179e-06
1.35137e-07
3.93884e-06
-1.04434e-08
3.94039e-06
-2.56563e-08
3.92931e-06
-5.82518e-08
3.92172e-06
-9.01787e-08
3.91546e-06
-5.26346e-08
3.9052e-06
-2.49306e-08
3.90095e-06
1.82579e-09
5.17541e-08
3.90212e-06
4.10643e-06
-2.52186e-07
4.1178e-06
-1.68419e-07
4.10279e-06
-6.66881e-08
4.11711e-06
8.56435e-08
4.11623e-06
2.74247e-08
4.10464e-06
-2.23679e-07
4.1086e-06
7.54719e-09
4.10034e-06
-4.04096e-08
4.11729e-06
1.60569e-07
4.11411e-06
1.00953e-07
4.12291e-06
7.07721e-08
4.13007e-06
1.27978e-07
4.12616e-06
-6.53467e-09
4.12735e-06
-2.68437e-08
4.11699e-06
-4.78945e-08
4.10827e-06
-8.14528e-08
4.10288e-06
-4.72484e-08
4.09351e-06
-1.55575e-08
4.08846e-06
6.87838e-09
5.01676e-08
4.09004e-06
4.30299e-06
-2.3587e-07
4.31475e-06
-1.80179e-07
4.30006e-06
-5.20012e-08
4.31332e-06
7.23815e-08
4.31358e-06
2.7163e-08
4.30082e-06
-2.10919e-07
4.30576e-06
2.61387e-09
4.29738e-06
-3.20334e-08
4.31364e-06
1.44309e-07
4.31182e-06
1.02773e-07
4.31907e-06
6.35251e-08
4.32706e-06
1.19988e-07
4.32249e-06
-1.96316e-09
4.32299e-06
-2.73483e-08
4.31356e-06
-3.8469e-08
4.30392e-06
-7.18072e-08
4.29909e-06
-4.24208e-08
4.2909e-06
-7.37049e-09
4.2852e-06
1.25792e-08
4.87164e-08
4.28665e-06
4.50903e-06
-2.19127e-07
4.52102e-06
-1.92168e-07
4.50696e-06
-3.79353e-08
4.51884e-06
6.04963e-08
4.52043e-06
2.55752e-08
4.50654e-06
-1.97027e-07
4.51217e-06
-3.02249e-09
4.50407e-06
-2.39331e-08
4.51927e-06
1.29115e-07
4.51896e-06
1.03078e-07
4.52466e-06
5.78295e-08
4.53312e-06
1.11525e-07
4.52811e-06
3.04647e-09
4.52779e-06
-2.70238e-08
4.51939e-06
-3.00753e-08
4.50914e-06
-6.15551e-08
4.50454e-06
-3.78247e-08
4.49773e-06
-5.55555e-10
4.49169e-06
1.86205e-08
4.789e-08
4.49251e-06
4.72503e-06
-2.02042e-07
4.73706e-06
-2.04201e-07
4.72393e-06
-2.48062e-08
4.73414e-06
5.02867e-08
4.73714e-06
2.25757e-08
4.72228e-06
-1.82161e-07
4.72827e-06
-9.02061e-09
4.72087e-06
-1.65245e-08
4.73465e-06
1.15328e-07
4.73589e-06
1.0184e-07
4.74013e-06
5.35895e-08
4.74867e-06
1.02988e-07
4.7435e-06
8.21397e-09
4.74225e-06
-2.57751e-08
4.73493e-06
-2.27485e-08
4.72442e-06
-5.10455e-08
4.71975e-06
-3.31588e-08
4.71433e-06
4.8611e-09
4.70835e-06
2.46001e-08
4.7981e-08
4.70826e-06
4.95147e-06
-1.84711e-07
4.96333e-06
-2.16066e-07
4.95145e-06
-1.29213e-08
4.95975e-06
4.19786e-08
4.96415e-06
1.8182e-08
4.94854e-06
-1.66556e-07
4.95453e-06
-1.50025e-08
4.94819e-06
-1.01919e-08
4.96032e-06
1.03202e-07
4.96297e-06
9.91841e-08
4.96594e-06
5.06192e-08
4.97416e-06
9.47755e-08
4.96912e-06
1.32542e-08
4.96702e-06
-2.36825e-08
4.96068e-06
-1.64064e-08
4.9502e-06
-4.05676e-08
4.94527e-06
-2.8229e-08
4.94109e-06
9.04972e-09
4.9356e-06
3.00885e-08
4.90027e-08
4.93458e-06
5.18885e-06
-1.67243e-07
5.20031e-06
-2.2753e-07
5.18995e-06
-2.56042e-09
5.19624e-06
3.56923e-08
5.20191e-06
1.25122e-08
5.18585e-06
-1.50501e-07
5.19141e-06
-2.05585e-08
5.18648e-06
-5.26499e-09
5.19681e-06
9.28722e-08
5.2006e-06
9.5399e-08
5.20264e-06
4.85796e-08
5.21011e-06
8.73033e-08
5.20537e-06
1.79957e-08
5.20265e-06
-2.09704e-08
5.19723e-06
-1.09793e-08
5.18697e-06
-3.03141e-08
5.18168e-06
-2.29369e-08
5.17847e-06
1.22657e-08
5.17378e-06
3.47716e-08
5.07318e-08
5.17205e-06
5.43771e-06
-1.49763e-07
5.44852e-06
-2.38343e-07
5.43991e-06
6.04988e-09
5.44418e-06
3.1424e-08
5.45092e-06
5.77065e-09
5.43474e-06
-1.34316e-07
5.43947e-06
-2.52926e-08
5.43616e-06
-1.95415e-09
5.4447e-06
8.43362e-08
5.44922e-06
9.08783e-08
5.45077e-06
4.70267e-08
5.45718e-06
8.08901e-08
5.45276e-06
2.24139e-08
5.44967e-06
-1.78711e-08
5.44512e-06
-6.43461e-09
5.43526e-06
-2.04511e-08
5.42954e-06
-1.72166e-08
5.42701e-06
1.4796e-08
5.4233e-06
3.84736e-08
5.2837e-08
5.4212e-06
5.6986e-06
-1.32406e-07
5.7085e-06
-2.48246e-07
5.70181e-06
1.27436e-08
5.70415e-06
2.90847e-08
5.71173e-06
-1.81074e-09
5.69574e-06
-1.18325e-07
5.69932e-06
-2.88756e-08
5.69768e-06
-3.12337e-10
5.70455e-06
7.74702e-08
5.7093e-06
8.61221e-08
5.71083e-06
4.55026e-08
5.71621e-06
7.55106e-08
5.71194e-06
2.66768e-08
5.70856e-06
-1.44886e-08
5.7049e-06
-2.77e-09
5.69561e-06
-1.11618e-08
5.68943e-06
-1.1035e-08
5.68729e-06
1.69361e-08
5.68463e-06
4.11312e-08
5.49936e-08
5.68247e-06
5.97211e-06
-1.1532e-07
5.98083e-06
-2.56972e-07
5.97616e-06
1.7417e-08
5.97671e-06
2.85334e-08
5.98489e-06
-9.99422e-09
5.96943e-06
-1.02862e-07
5.97158e-06
-3.10293e-08
5.97154e-06
-2.68661e-10
5.97694e-06
7.20734e-08
5.98141e-06
8.16453e-08
5.98321e-06
4.37056e-08
5.98787e-06
7.08526e-08
5.9836e-06
3.09451e-08
5.97988e-06
-1.07641e-08
5.97707e-06
3.64987e-11
5.96861e-06
-2.70073e-09
5.96196e-06
-4.39046e-09
5.95992e-06
1.8977e-08
5.95827e-06
4.27892e-08
5.69023e-08
5.95636e-06
6.25883e-06
-9.86646e-08
6.2661e-06
-2.64244e-07
6.26353e-06
1.99911e-08
6.26242e-06
2.96404e-08
6.271e-06
-1.85682e-08
6.2564e-06
-8.82599e-08
6.25689e-06
-3.1523e-08
6.25826e-06
-1.63531e-09
6.26251e-06
6.78142e-08
6.26616e-06
7.80028e-08
6.26832e-06
4.15476e-08
6.27275e-06
6.64158e-08
6.26847e-06
3.52267e-08
6.26422e-06
-6.51121e-09
6.26216e-06
2.09212e-09
6.25479e-06
4.66923e-09
6.24783e-06
2.57177e-09
6.24559e-06
2.1218e-08
6.24477e-06
4.36128e-08
5.82744e-08
6.24339e-06
6.55941e-06
-8.26092e-08
6.56494e-06
-2.69771e-07
6.56455e-06
2.03784e-08
6.56189e-06
3.23042e-08
6.5707e-06
-2.73775e-08
6.55727e-06
-7.4831e-08
6.55589e-06
-3.0142e-08
6.55838e-06
-4.12383e-09
6.56194e-06
6.42576e-08
6.56431e-06
7.56268e-08
6.56667e-06
3.91928e-08
6.57145e-06
6.16349e-08
6.56727e-06
3.94048e-08
6.56231e-06
-1.54881e-09
6.56071e-06
3.68993e-09
6.55468e-06
1.07022e-08
6.54771e-06
9.54146e-09
6.54502e-06
2.39087e-08
6.54472e-06
4.39111e-08
5.88695e-08
6.54412e-06
6.87451e-06
-6.73324e-08
6.87799e-06
-2.73247e-07
6.87989e-06
1.84733e-08
6.87578e-06
3.64175e-08
6.88467e-06
-3.62665e-08
6.87276e-06
-6.29196e-08
6.86925e-06
-2.66333e-08
6.87251e-06
-7.37854e-09
6.87597e-06
6.07962e-08
6.87688e-06
7.47164e-08
6.87903e-06
3.7044e-08
6.88445e-06
5.62131e-08
6.88073e-06
4.31243e-08
6.87492e-06
4.25615e-09
6.87337e-06
5.24329e-09
6.86881e-06
1.52654e-08
6.86219e-06
1.61564e-08
6.859e-06
2.7099e-08
6.85881e-06
4.41027e-08
5.86057e-08
6.85907e-06
7.20482e-06
-5.30201e-08
7.20591e-06
-2.74335e-07
7.21024e-06
1.41497e-08
7.20481e-06
4.18392e-08
7.21359e-06
-4.50425e-08
7.20357e-06
-5.29012e-08
7.19776e-06
-2.08202e-08
7.20128e-06
-1.08976e-08
7.2053e-06
5.67705e-08
7.20484e-06
7.51749e-08
7.20618e-06
3.57133e-08
7.2123e-06
5.0092e-08
7.20947e-06
4.5946e-08
7.2029e-06
1.08283e-08
7.20097e-06
7.17973e-09
7.19771e-06
1.8519e-08
7.19187e-06
2.20011e-08
7.18832e-06
3.06459e-08
7.18787e-06
4.45556e-08
5.76539e-08
7.18882e-06
7.55106e-06
-3.98569e-08
7.5494e-06
-2.72673e-07
7.55626e-06
7.28742e-09
7.54977e-06
4.83363e-08
7.55804e-06
-5.33216e-08
7.55036e-06
-4.52183e-08
7.54234e-06
-1.27938e-08
7.54534e-06
-1.39061e-08
7.55058e-06
5.15359e-08
7.54916e-06
7.65959e-08
7.54902e-06
3.58494e-08
7.55554e-06
4.35767e-08
7.55407e-06
4.74155e-08
7.54707e-06
1.7822e-08
7.54434e-06
9.91136e-09
7.54208e-06
2.07796e-08
7.53731e-06
2.67727e-08
7.53369e-06
3.42628e-08
7.53281e-06
4.54411e-08
5.6397e-08
7.53406e-06
7.91398e-06
-2.80211e-08
7.90923e-06
-2.67932e-07
7.91867e-06
-2.14506e-09
7.91144e-06
5.55635e-08
7.91854e-06
-6.04196e-08
7.91372e-06
-4.04016e-08
7.90392e-06
-2.98841e-09
7.90553e-06
-1.55162e-08
7.91225e-06
4.48131e-08
7.9106e-06
7.82419e-08
7.90863e-06
3.78189e-08
7.91483e-06
3.73749e-08
7.91508e-06
4.71729e-08
7.90816e-06
2.4741e-08
7.90444e-06
1.3628e-08
7.90274e-06
2.24796e-08
7.89913e-06
3.03825e-08
7.89578e-06
3.76198e-08
7.89452e-06
4.67008e-08
5.52521e-08
7.89566e-06
8.29433e-06
-1.76674e-08
8.28632e-06
-2.5992e-07
8.29816e-06
-1.39921e-08
8.29064e-06
6.30861e-08
8.29573e-06
-6.55079e-08
8.29419e-06
-3.88668e-08
8.28342e-06
7.7871e-09
8.28274e-06
-1.48376e-08
8.29077e-06
3.67836e-08
8.2898e-06
7.9211e-08
8.28605e-06
4.15717e-08
8.29113e-06
3.2296e-08
8.29306e-06
4.52364e-08
8.28685e-06
3.09571e-08
8.28219e-06
1.82855e-08
8.2806e-06
2.40708e-08
8.27804e-06
3.29406e-08
8.27523e-06
4.04297e-08
8.2738e-06
4.81301e-08
5.44727e-08
8.27458e-06
8.69291e-06
-8.91569e-09
8.68167e-06
-2.48678e-07
8.69546e-06
-2.77876e-08
8.68829e-06
7.02634e-08
8.69054e-06
-6.77638e-08
8.69235e-06
-4.06771e-08
8.68168e-06
1.84602e-08
8.67807e-06
-1.12244e-08
8.6867e-06
2.81483e-08
8.68729e-06
7.86267e-08
8.68224e-06
4.66212e-08
8.68551e-06
2.90264e-08
8.6887e-06
4.20469e-08
8.68378e-06
3.58706e-08
8.67847e-06
2.35998e-08
8.67661e-06
2.59307e-08
8.67489e-06
3.46594e-08
8.67279e-06
4.25333e-08
8.67142e-06
4.94947e-08
5.41165e-08
8.67178e-06
9.11054e-06
-1.83613e-09
9.09632e-06
-2.34457e-07
9.11135e-06
-4.28146e-08
9.10549e-06
7.6118e-08
9.10405e-06
-6.63252e-08
9.10881e-06
-4.54393e-08
9.0995e-06
2.77704e-08
9.09276e-06
-4.47804e-09
9.10081e-06
2.00964e-08
9.10358e-06
7.5855e-08
9.09805e-06
5.21571e-08
9.09913e-06
2.79428e-08
9.10292e-06
3.8261e-08
9.09961e-06
3.91725e-08
9.09413e-06
2.90817e-08
9.09176e-06
2.83045e-08
9.09058e-06
3.5841e-08
9.08923e-06
4.38826e-08
9.08815e-06
5.0571e-08
5.41053e-08
9.08816e-06
9.54806e-06
3.55937e-09
9.53133e-06
-2.17724e-07
9.54664e-06
-5.81233e-08
9.54314e-06
7.96222e-08
9.5375e-06
-6.06864e-08
9.54419e-06
-5.21293e-08
9.53757e-06
3.43899e-08
9.52805e-06
5.03639e-09
9.53422e-06
1.39251e-08
9.53932e-06
7.0761e-08
9.5342e-06
5.72745e-08
9.53316e-06
2.89791e-08
9.53675e-06
3.46792e-08
9.5351e-06
4.08197e-08
9.52998e-06
3.42032e-08
9.52707e-06
3.12146e-08
9.52608e-06
3.68262e-08
9.52543e-06
4.45374e-08
9.52482e-06
5.1176e-08
5.42871e-08
9.52464e-06
1.00064e-05
7.32178e-09
9.98773e-06
-1.99081e-07
1.00023e-05
-7.26805e-08
1.00019e-05
7.99617e-08
9.99226e-06
-5.09977e-08
9.9993e-06
-5.91751e-08
9.99643e-06
3.72683e-08
9.98523e-06
1.62319e-08
9.98847e-06
1.06812e-08
9.99527e-06
6.39657e-08
9.99139e-06
6.11555e-08
9.98866e-06
3.17075e-08
9.99136e-06
3.19786e-08
9.99114e-06
4.10441e-08
9.98681e-06
3.85297e-08
9.98355e-06
3.44752e-08
9.98247e-06
3.79054e-08
9.98231e-06
4.46957e-08
9.98231e-06
5.11782e-08
5.44447e-08
9.98215e-06
1.04864e-05
9.56771e-09
1.04665e-05
-1.79185e-07
1.04794e-05
-8.55649e-08
1.04826e-05
7.67584e-08
1.04698e-05
-3.82179e-08
1.04752e-05
-6.45973e-08
1.04766e-05
3.59245e-08
1.04653e-05
2.75495e-08
1.04652e-05
1.07639e-08
1.04725e-05
5.66666e-08
1.04703e-05
6.33058e-08
1.04666e-05
3.54748e-08
1.0468e-05
3.05035e-08
1.04688e-05
4.03142e-08
1.04655e-05
4.18002e-08
1.04622e-05
3.78015e-08
1.04609e-05
3.91935e-08
1.04609e-05
4.46531e-08
1.04615e-05
5.05811e-08
5.42941e-08
1.04617e-05
1.09891e-05
1.04704e-08
1.09686e-05
-1.58677e-07
1.09791e-05
-9.60726e-08
1.09858e-05
7.00879e-08
1.09714e-05
-2.38603e-08
1.09733e-05
-6.64694e-08
1.09786e-05
3.06653e-08
1.09689e-05
3.7256e-08
1.09657e-05
1.39319e-08
1.09723e-05
5.00986e-08
1.09718e-05
6.37264e-08
1.09678e-05
3.95497e-08
1.09679e-05
3.03347e-08
1.09691e-05
3.9125e-08
1.0967e-05
4.39469e-08
1.09638e-05
4.09283e-08
1.09624e-05
4.06383e-08
1.09624e-05
4.46316e-08
1.09634e-05
4.9603e-08
5.35659e-08
1.09641e-05
1.15156e-05
1.02615e-08
1.14951e-05
-1.38216e-07
1.15027e-05
-1.03654e-07
1.15124e-05
6.03599e-08
1.1498e-05
-9.47729e-09
1.14954e-05
-6.38241e-08
1.15033e-05
2.27593e-08
1.14966e-05
4.39328e-08
1.14912e-05
1.93442e-08
1.14961e-05
4.52255e-08
1.1497e-05
6.28286e-08
1.14932e-05
4.33689e-08
1.14922e-05
3.12822e-08
1.14934e-05
3.79096e-08
1.14923e-05
4.50363e-08
1.14896e-05
4.3644e-08
1.14881e-05
4.2166e-08
1.14881e-05
4.46616e-08
1.14891e-05
4.85823e-08
5.22033e-08
1.14905e-05
1.20669e-05
9.22235e-09
1.20471e-05
-1.18461e-07
1.20513e-05
-1.07888e-07
1.20634e-05
4.82752e-08
1.20505e-05
3.44009e-09
1.20436e-05
-5.69206e-08
1.20519e-05
1.44575e-08
1.20491e-05
4.6709e-08
1.20428e-05
2.56568e-08
1.20455e-05
4.25797e-08
1.2047e-05
6.13152e-08
1.20437e-05
4.66127e-08
1.2042e-05
3.30171e-08
1.2043e-05
3.69512e-08
1.20427e-05
4.52656e-08
1.20406e-05
4.57452e-08
1.20391e-05
4.37345e-08
1.2039e-05
4.46837e-08
1.20399e-05
4.76797e-08
5.04871e-08
1.20417e-05
1.26441e-05
7.66732e-09
1.26257e-05
-1.00049e-07
1.26263e-05
-1.08488e-07
1.26399e-05
3.47187e-08
1.26296e-05
1.37277e-08
1.26194e-05
-4.66883e-08
1.26259e-05
7.87959e-09
1.26269e-05
4.57318e-08
1.26213e-05
3.12693e-08
1.26218e-05
4.21028e-08
1.26232e-05
5.98615e-08
1.26206e-05
4.92676e-08
1.26184e-05
3.52074e-08
1.2619e-05
3.63792e-08
1.26194e-05
4.48773e-08
1.2618e-05
4.71117e-08
1.26165e-05
4.52396e-08
1.26164e-05
4.47457e-08
1.26173e-05
4.68002e-08
4.88156e-08
1.2619e-05
1.32487e-05
5.91611e-09
1.32322e-05
-8.36078e-08
1.32291e-05
-1.0533e-07
1.32431e-05
2.06896e-08
1.32361e-05
2.07844e-08
1.3224e-05
-3.46022e-08
1.32275e-05
4.36167e-09
1.32309e-05
4.2319e-08
1.32272e-05
3.49557e-08
1.32264e-05
4.28704e-08
1.32273e-05
5.90607e-08
1.3225e-05
5.15434e-08
1.32226e-05
3.75897e-08
1.32227e-05
3.6255e-08
1.32235e-05
4.40513e-08
1.32229e-05
4.77483e-08
1.32217e-05
4.64732e-08
1.32215e-05
4.49501e-08
1.32224e-05
4.58332e-08
4.73133e-08
1.32239e-05
1.38818e-05
4.25157e-09
1.38678e-05
-6.95422e-08
1.38613e-05
-9.88509e-08
1.38745e-05
7.49875e-09
1.38708e-05
2.4475e-08
1.38583e-05
-2.21219e-08
1.38585e-05
4.15142e-09
1.38624e-05
3.84147e-08
1.38612e-05
3.62041e-08
1.38605e-05
4.3562e-08
1.38605e-05
5.90227e-08
1.38583e-05
5.37154e-08
1.38558e-05
4.01389e-08
1.38556e-05
3.64865e-08
1.38566e-05
4.30371e-08
1.38567e-05
4.76695e-08
1.38558e-05
4.72839e-08
1.38555e-05
4.52636e-08
1.38565e-05
4.48649e-08
4.58325e-08
1.3858e-05
1.4545e-05
2.8754e-09
1.45334e-05
-5.78943e-08
1.45245e-05
-8.99541e-08
1.45354e-05
-3.41044e-09
1.45349e-05
2.4958e-08
1.45233e-05
-1.05167e-08
1.45208e-05
6.68086e-09
1.45237e-05
3.55326e-08
1.45243e-05
3.5615e-08
1.45246e-05
4.3255e-08
1.45245e-05
5.91216e-08
1.45222e-05
5.60169e-08
1.45194e-05
4.28728e-08
1.45188e-05
3.70712e-08
1.45199e-05
4.19664e-08
1.45206e-05
4.69845e-08
1.45203e-05
4.75411e-08
1.452e-05
4.55665e-08
1.45209e-05
4.40453e-08
4.42628e-08
1.45224e-05
1.52398e-05
1.91048e-09
1.52304e-05
-4.84835e-08
1.522e-05
-7.95592e-08
1.52278e-05
-1.11631e-08
1.52298e-05
2.29272e-08
1.522e-05
-6.54853e-10
1.52156e-05
1.1002e-08
1.52169e-05
3.42611e-08
1.5218e-05
3.45488e-08
1.52197e-05
4.15773e-08
1.52203e-05
5.84479e-08
1.5218e-05
5.83759e-08
1.5215e-05
4.58012e-08
1.5214e-05
3.81395e-08
1.5215e-05
4.09302e-08
1.52161e-05
4.58709e-08
1.52165e-05
4.71684e-08
1.52164e-05
4.56466e-08
1.5217e-05
4.34898e-08
4.26381e-08
1.52186e-05
1.59678e-05
1.39773e-09
1.59603e-05
-4.09178e-08
1.59493e-05
-6.85659e-08
1.59536e-05
-1.5525e-08
1.59571e-05
1.95143e-08
1.59495e-05
6.93014e-09
1.59445e-05
1.60135e-08
1.59441e-05
3.46614e-08
1.59444e-05
3.41844e-08
1.5947e-05
3.89726e-08
1.5949e-05
5.64876e-08
1.59473e-05
6.00694e-08
1.59441e-05
4.89734e-08
1.59426e-05
3.96895e-08
1.59434e-05
4.00975e-08
1.59448e-05
4.45023e-08
1.59457e-05
4.62351e-08
1.59461e-05
4.525e-08
1.59465e-05
4.31259e-08
4.11532e-08
1.5948e-05
1.67307e-05
1.27875e-09
1.67245e-05
-3.46767e-08
1.67137e-05
-5.77782e-08
1.67148e-05
-1.66639e-08
1.67184e-05
1.59287e-08
1.67133e-05
1.20495e-08
1.67084e-05
2.09256e-08
1.67068e-05
3.62694e-08
1.6706e-05
3.49141e-08
1.67085e-05
3.65602e-08
1.67117e-05
5.32038e-08
1.67114e-05
6.0416e-08
1.67083e-05
5.20766e-08
1.67063e-05
4.17026e-08
1.67067e-05
3.96862e-08
1.67082e-05
4.29743e-08
1.67095e-05
4.49737e-08
1.67105e-05
4.42694e-08
1.6711e-05
4.26144e-08
3.99852e-08
1.67121e-05
1.75302e-05
1.45531e-09
1.75249e-05
-2.94017e-08
1.75149e-05
-4.77459e-08
1.75133e-05
-1.51289e-08
1.75159e-05
1.33264e-08
1.7513e-05
1.50277e-08
1.75088e-05
2.50921e-08
1.75066e-05
3.84473e-08
1.75049e-05
3.66612e-08
1.75061e-05
3.53065e-08
1.75102e-05
4.91071e-08
1.75114e-05
5.9214e-08
1.75091e-05
5.43722e-08
1.75068e-05
4.4082e-08
1.75066e-05
3.98232e-08
1.75082e-05
4.1416e-08
1.75096e-05
4.35275e-08
1.7511e-05
4.28855e-08
1.7512e-05
4.16246e-08
3.90501e-08
1.75129e-05
1.8368e-05
1.80269e-09
1.83633e-05
-2.46765e-08
1.83544e-05
-3.88272e-08
1.8351e-05
-1.17452e-08
1.8352e-05
1.22899e-08
1.83503e-05
1.67518e-08
1.83473e-05
2.80463e-08
1.83451e-05
4.06812e-08
1.83426e-05
3.91193e-08
1.83426e-05
3.53707e-08
1.83464e-05
4.52874e-08
1.8349e-05
5.66074e-08
1.8348e-05
5.53848e-08
1.83456e-05
4.64313e-08
1.8345e-05
4.04726e-08
1.83463e-05
4.01129e-08
1.8348e-05
4.18432e-08
1.83495e-05
4.13824e-08
1.8351e-05
4.01187e-08
3.80173e-08
1.8352e-05
1.9246e-05
2.1992e-09