/*--------------------------------*- C++ -*----------------------------------*\
| =========                 |                                                 |
| \\      /  F ield         | OpenFOAM: The Open Source CFD Toolbox           |
|  \\    /   O peration     | Version:  v1906                                 |
|   \\  /    A nd           | Web:      www.OpenFOAM.com                      |
|    \\/     M anipulation  |                                                 |
\*---------------------------------------------------------------------------*/
FoamFile
{
    version     2.0;
    format      ascii;
    class       volVectorField;
    location    "1";
    object      U;
}
// * * * * * * * * * * * * * * * * * * * * * * * * * * * * * * * * * * * * * //

dimensions      [0 1 -1 0 0 0 0];


internalField   nonuniform List<vector> 
9600
(
(0.863881 -0.00419475 0)
(1.15622 -0.00109338 0)
(0.84382 -0.00234742 0)
(1.13974 0.00569892 0)
(0.873013 -0.0011641 0)
(1.1197 -0.00339396 0)
(0.936754 0.00169657 0)
(1.13946 -0.00240897 0)
(0.919246 0.00777079 0)
(1.14575 -0.0022758 0)
(0.864554 0.00589944 0)
(1.14466 0.00516282 0)
(0.866498 -0.00127696 0)
(1.12907 -0.00193558 0)
(0.891944 -0.0076041 0)
(1.12524 -0.00589814 0)
(0.896618 -0.00922 0)
(1.13734 -0.00513645 0)
(0.899181 -0.00521703 0)
(1.15097 -0.00329509 0)
(0.87522 -0.00441272 0)
(1.1452 -0.000782717 0)
(0.859846 -0.00239153 0)
(1.12968 0.00564393 0)
(0.893756 -0.00112175 0)
(1.1078 -0.00387147 0)
(0.951934 0.00120277 0)
(1.12505 -0.00193052 0)
(0.93822 0.00744052 0)
(1.12253 -0.00115582 0)
(0.895223 0.00572123 0)
(1.10815 0.00542719 0)
(0.916444 -0.00113983 0)
(1.08021 -0.00230988 0)
(0.950477 -0.00757452 0)
(1.06383 -0.00606109 0)
(0.971709 -0.0093323 0)
(1.05375 -0.00573714 0)
(1.00137 -0.00483392 0)
(1.03393 -0.00368529 0)
(0.894736 -0.00459999 0)
(1.12329 -0.000574011 0)
(0.888571 -0.00244399 0)
(1.10968 0.00552748 0)
(0.926289 -0.00109555 0)
(1.08549 -0.00430693 0)
(0.977293 0.000902648 0)
(1.10019 -0.0016511 0)
(0.970748 0.00731777 0)
(1.08941 -0.000457815 0)
(0.942439 0.00573882 0)
(1.06499 0.00521011 0)
(0.969226 -0.000802728 0)
(1.03647 -0.00286516 0)
(0.991326 -0.0072223 0)
(1.02391 -0.00661802 0)
(1.00379 -0.00900385 0)
(1.02026 -0.00662712 0)
(1.01926 -0.0042458 0)
(1.0195 -0.00332459 0)
(0.918916 -0.00473697 0)
(1.09336 -0.000478593 0)
(0.922253 -0.00246621 0)
(1.08406 0.00533419 0)
(0.959466 -0.000988567 0)
(1.05867 -0.00467732 0)
(1.0019 0.000678613 0)
(1.07282 -0.00152203 0)
(1.00224 0.0074003 0)
(1.06006 -5.60483e-05 0)
(0.983266 0.00601348 0)
(1.03785 0.00488151 0)
(1.00064 -0.000369618 0)
(1.01683 -0.00313688 0)
(1.00435 -0.00698766 0)
(1.01085 -0.00687759 0)
(1.00747 -0.00892385 0)
(1.01268 -0.00706362 0)
(1.01591 -0.00416508 0)
(1.01831 -0.00282001 0)
(0.943517 -0.00481079 0)
(1.0613 -0.000484376 0)
(0.952603 -0.00249209 0)
(1.05868 0.00510416 0)
(0.984809 -0.000815112 0)
(1.03452 -0.00501769 0)
(1.01744 0.000461406 0)
(1.04943 -0.00150292 0)
(1.02241 0.00751783 0)
(1.04001 0.000226699 0)
(1.00765 0.0062759 0)
(1.02673 0.0047162 0)
(1.01344 8.29468e-06 0)
(1.01114 -0.00313418 0)
(1.00567 -0.00677368 0)
(1.00597 -0.00703789 0)
(1.0054 -0.00884531 0)
(1.00777 -0.00741741 0)
(1.012 -0.00412493 0)
(1.014 -0.00259744 0)
(0.964722 -0.00481702 0)
(1.03344 -0.000556752 0)
(0.974508 -0.0025461 0)
(1.0379 0.00488847 0)
(0.9996 -0.000624516 0)
(1.01716 -0.00529902 0)
(1.02231 0.000253452 0)
(1.03195 -0.00155462 0)
(1.02967 0.00759969 0)
(1.02733 0.00045116 0)
(1.01742 0.00640356 0)
(1.02232 0.00470022 0)
(1.01654 0.000334833 0)
(1.0091 -0.00298171 0)
(1.00455 -0.00652252 0)
(1.00247 -0.00715016 0)
(1.00258 -0.00874131 0)
(1.00308 -0.00769708 0)
(1.00724 -0.00418246 0)
(1.00879 -0.00239599 0)
(0.980441 -0.00476861 0)
(1.01365 -0.000652383 0)
(0.987168 -0.00263089 0)
(1.02304 0.00470945 0)
(1.00586 -0.000446911 0)
(1.00678 -0.00549604 0)
(1.01975 6.82201e-05 0)
(1.0193 -0.00164268 0)
(1.02768 0.0076283 0)
(1.01844 0.000629874 0)
(1.01807 0.00642446 0)
(1.01865 0.00474469 0)
(1.01558 0.000639188 0)
(1.00754 -0.00278187 0)
(1.00341 -0.00624177 0)
(1.00023 -0.00719302 0)
(0.999937 -0.00863487 0)
(0.999364 -0.0078622 0)
(1.00218 -0.00427501 0)
(1.00342 -0.00217357 0)
(0.990585 -0.00468881 0)
(1.00229 -0.000736946 0)
(0.992751 -0.00273012 0)
(1.01316 0.00456392 0)
(1.00723 -0.000296345 0)
(1.00144 -0.00561058 0)
(1.01398 -7.89947e-05 0)
(1.01002 -0.00173641 0)
(1.02107 0.00761058 0)
(1.01136 0.000766248 0)
(1.01431 0.006378 0)
(1.01443 0.00478871 0)
(1.01317 0.000901268 0)
(1.0063 -0.002595 0)
(1.00274 -0.00595134 0)
(0.999337 -0.00717502 0)
(0.998149 -0.00852173 0)
(0.996749 -0.00788667 0)
(0.997915 -0.00434491 0)
(0.998446 -0.00191396 0)
(0.996364 -0.00459912 0)
(0.997261 -0.000795417 0)
(0.994247 -0.00281914 0)
(1.00667 0.00443708 0)
(1.00659 -0.000181262 0)
(0.999015 -0.00565559 0)
(1.00793 -0.000173895 0)
(1.00331 -0.00181381 0)
(1.0133 0.00756214 0)
(1.00575 0.000865023 0)
(1.00919 0.00628547 0)
(1.0103 0.00479969 0)
(1.0106 0.00108639 0)
(1.00548 -0.00243886 0)
(1.00256 -0.00568321 0)
(0.999348 -0.00710527 0)
(0.997301 -0.00838359 0)
(0.995117 -0.00777268 0)
(0.994802 -0.00435933 0)
(0.994398 -0.00160753 0)
(0.999325 -0.00451237 0)
(0.995836 -0.00082814 0)
(0.994015 -0.00287895 0)
(1.00234 0.00431374 0)
(1.00547 -0.000103494 0)
(0.998039 -0.00564409 0)
(1.00295 -0.000215591 0)
(0.998775 -0.00186205 0)
(1.00637 0.00749257 0)
(1.00174 0.000931259 0)
(1.00448 0.00616063 0)
(1.00692 0.00475975 0)
(1.00846 0.00118907 0)
(1.00495 -0.00231818 0)
(1.00266 -0.00545998 0)
(0.999734 -0.00698226 0)
(0.997053 -0.00821147 0)
(0.994201 -0.00754219 0)
(0.992735 -0.00431268 0)
(0.991454 -0.00123623 0)
(1.00072 -0.00443271 0)
(0.995929 -0.000842506 0)
(0.993373 -0.00290223 0)
(0.99945 0.00418586 0)
(1.00443 -5.7763e-05 0)
(0.997674 -0.00558927 0)
(0.99937 -0.000215483 0)
(0.996027 -0.00187872 0)
(1.00116 0.00740393 0)
(0.999313 0.000972909 0)
(1.00094 0.00601217 0)
(1.00452 0.00467165 0)
(1.00692 0.00122038 0)
(1.00456 -0.00222528 0)
(1.00278 -0.00528941 0)
(1.00011 -0.00679806 0)
(0.997035 -0.00802361 0)
(0.993707 -0.00722255 0)
(0.991463 -0.00419611 0)
(0.989525 -0.000841184 0)
(1.00134 -0.00435895 0)
(0.996407 -0.000846916 0)
(0.992848 -0.0028914 0)
(0.997614 0.00405151 0)
(1.00359 -3.55338e-05 0)
(0.99751 -0.00550429 0)
(0.997022 -0.000188143 0)
(0.994602 -0.00187005 0)
(0.997751 0.00729686 0)
(0.998142 0.000998145 0)
(0.998719 0.0058477 0)
(1.00302 0.00455359 0)
(1.00593 0.00119343 0)
(1.00419 -0.00214239 0)
(1.00282 -0.00515891 0)
(1.00029 -0.00657106 0)
(0.99702 -0.00782925 0)
(0.99342 -0.00683756 0)
(0.990734 -0.00400537 0)
(0.98841 -0.000451231 0)
(1.0016 -0.00428794 0)
(0.996838 -0.000847872 0)
(0.992552 -0.00285363 0)
(0.996536 0.00391113 0)
(1.00295 -2.70197e-05 0)
(0.997378 -0.00540051 0)
(0.995604 -0.000146469 0)
(0.994022 -0.00184498 0)
(0.995833 0.00717195 0)
(0.997783 0.00101411 0)
(0.997585 0.00567363 0)
(1.00217 0.00442278 0)
(1.00533 0.00112439 0)
(1.00383 -0.00205098 0)
(1.00272 -0.00505987 0)
(1.00027 -0.00631573 0)
(0.996928 -0.0076221 0)
(0.993233 -0.00642155 0)
(0.990355 -0.00373166 0)
(0.987891 -9.67658e-05 0)
(1.00168 -0.00421643 0)
(0.997133 -0.000850577 0)
(0.992445 -0.0027958 0)
(0.99597 0.00376564 0)
(1.00246 -2.37057e-05 0)
(0.997236 -0.00528636 0)
(0.994811 -9.95206e-05 0)
(0.993902 -0.00181191 0)
(0.994949 0.00702978 0)
(0.997838 0.0010275 0)
(0.997185 0.0054918 0)
(1.00175 0.00429471 0)
(1.00499 0.00102307 0)
(1.0035 -0.00193614 0)
(1.00255 -0.0049924 0)
(1.00013 -0.00603019 0)
(0.996775 -0.00739292 0)
(0.993113 -0.00601114 0)
(0.9902 -0.00338289 0)
(0.987771 0.000192375 0)
(1.00168 -0.00414193 0)
(0.997319 -0.000858745 0)
(0.992457 -0.00272238 0)
(0.995718 0.00361539 0)
(1.00209 -1.95594e-05 0)
(0.997094 -0.00516756 0)
(0.994408 -5.13902e-05 0)
(0.993988 -0.0017772 0)
(0.994673 0.00687179 0)
(0.99804 0.00104412 0)
(0.997192 0.00529936 0)
(1.00156 0.00418287 0)
(1.00478 0.000893494 0)
(1.00322 -0.00179597 0)
(1.00233 -0.00493996 0)
(0.999941 -0.00573034 0)
(0.99661 -0.00712321 0)
(0.993063 -0.00563886 0)
(0.990197 -0.00298417 0)
(0.987902 0.00043886 0)
(1.00164 -0.00406295 0)
(0.997436 -0.000874142 0)
(0.992533 -0.00263645 0)
(0.995641 0.00346007 0)
(1.00181 -1.10511e-05 0)
(0.996977 -0.00504763 0)
(0.994233 -3.98444e-06 0)
(0.994149 -0.00174312 0)
(0.994695 0.00669799 0)
(0.998249 0.00106833 0)
(0.997372 0.00509278 0)
(1.0015 0.00409236 0)
(1.00464 0.000745954 0)
(1.00299 -0.00163782 0)
(1.00212 -0.00488378 0)
(0.999759 -0.00543409 0)
(0.996472 -0.00680012 0)
(0.993088 -0.00531071 0)
(0.990308 -0.00256565 0)
(0.988186 0.000663986 0)
(1.00158 -0.00397848 0)
(0.997515 -0.000898011 0)
(0.992634 -0.00253951 0)
(0.995651 0.00329898 0)
(1.00158 3.71456e-06 0)
(0.996899 -0.00492871 0)
(0.994186 4.18407e-05 0)
(0.994328 -0.00170973 0)
(0.994826 0.00650781 0)
(0.998411 0.00110181 0)
(0.99759 0.00486866 0)
(1.00147 0.00402653 0)
(1.00451 0.000582738 0)
(1.00279 -0.00145917 0)
(1.00194 -0.00482113 0)
(0.999613 -0.00515269 0)
(0.996382 -0.0064169 0)
(0.993189 -0.00501895 0)
(0.990508 -0.00214056 0)
(0.988558 0.000888345 0)
(1.00153 -0.00388786 0)
(0.997574 -0.000931241 0)
(0.992742 -0.00243212 0)
(0.995701 0.00313136 0)
(1.0014 2.53868e-05 0)
(0.996863 -0.00481201 0)
(0.994208 8.68894e-05 0)
(0.994509 -0.00167605 0)
(0.994973 0.00630134 0)
(0.998514 0.00114775 0)
(0.997788 0.00462078 0)
(1.00143 0.0039851 0)
(1.00438 0.000407209 0)
(1.0026 -0.00126892 0)
(1.00178 -0.00473449 0)
(0.99951 -0.00490592 0)
(0.996339 -0.00597211 0)
(0.993354 -0.00475247 0)
(0.990783 -0.00173304 0)
(0.988978 0.00113769 0)
(1.00147 -0.00379074 0)
(0.997624 -0.000974175 0)
(0.992848 -0.00231454 0)
(0.995769 0.00295683 0)
(1.00125 5.35084e-05 0)
(0.996861 -0.0046973 0)
(0.994267 0.000131137 0)
(0.99469 -0.00163973 0)
(0.995105 0.0060788 0)
(0.998566 0.00120893 0)
(0.997953 0.00435156 0)
(1.00137 0.00395645 0)
(1.00424 0.000228573 0)
(1.00242 -0.00108808 0)
(1.00163 -0.00460091 0)
(0.999446 -0.00470693 0)
(0.996334 -0.00548137 0)
(0.993566 -0.0044887 0)
(0.991117 -0.00137966 0)
(0.989423 0.00141255 0)
(1.00142 -0.00368699 0)
(0.99767 -0.00102656 0)
(0.992951 -0.00218743 0)
(0.995842 0.00277573 0)
(1.00111 8.68543e-05 0)
(0.996883 -0.00458315 0)
(0.994347 0.000172453 0)
(0.994871 -0.00159666 0)
(0.995219 0.00583919 0)
(0.998581 0.00128574 0)
(0.998089 0.00406236 0)
(1.00127 0.00394197 0)
(1.00408 5.07404e-05 0)
(1.00225 -0.000929312 0)
(1.00148 -0.00441574 0)
(0.999415 -0.00454542 0)
(0.996358 -0.00496981 0)
(0.993807 -0.00420654 0)
(0.991497 -0.00108329 0)
(0.989878 0.00170967 0)
(1.00136 -0.00357645 0)
(0.997717 -0.00108873 0)
(0.993052 -0.00205044 0)
(0.995919 0.002588 0)
(1.00099 0.000124677 0)
(0.99692 -0.00446932 0)
(0.994438 0.000211116 0)
(0.995053 -0.00154623 0)
(0.995321 0.00557977 0)
(0.998572 0.0013795 0)
(0.99821 0.00375563 0)
(1.00116 0.00393724 0)
(1.00392 -0.000115251 0)
(1.00208 -0.000800173 0)
(1.00134 -0.00417875 0)
(0.999408 -0.00440764 0)
(0.996404 -0.0044573 0)
(0.99406 -0.0038807 0)
(0.991912 -0.000853222 0)
(0.990335 0.00200677 0)
(1.00131 -0.00345891 0)
(0.997766 -0.00116124 0)
(0.993153 -0.00190334 0)
(0.995996 0.00239343 0)
(1.00087 0.00016767 0)
(0.996964 -0.00435704 0)
(0.994537 0.00024504 0)
(0.995234 -0.00148667 0)
(0.995421 0.00529914 0)
(0.998546 0.00148708 0)
(0.998324 0.00344139 0)
(1.00104 0.00392511 0)
(1.00375 -0.000258041 0)
(1.00192 -0.000708661 0)
(1.00118 -0.0038911 0)
(0.999419 -0.00428653 0)
(0.99647 -0.0039633 0)
(0.994312 -0.00350708 0)
(0.99235 -0.000690635 0)
(0.990795 0.00227779 0)
(1.00126 -0.00333438 0)
(0.997819 -0.00124379 0)
(0.993256 -0.00174725 0)
(0.996075 0.00219332 0)
(1.00075 0.00021294 0)
(0.997013 -0.00424181 0)
(0.99464 0.000269326 0)
(0.995415 -0.00141219 0)
(0.995522 0.00499771 0)
(0.99851 0.00160414 0)
(0.998436 0.00312262 0)
(1.00091 0.00390391 0)
(1.00358 -0.000362661 0)
(1.00177 -0.000660323 0)
(1.00103 -0.00356198 0)
(0.999443 -0.00416703 0)
(0.996557 -0.00350978 0)
(0.994556 -0.00309269 0)
(0.992801 -0.000570182 0)
(0.991261 0.00250056 0)
(1.0012 -0.00320316 0)
(0.997875 -0.00133519 0)
(0.99336 -0.00158367 0)
(0.996155 0.00199069 0)
(1.00064 0.000256312 0)
(0.997063 -0.00411968 0)
(0.994749 0.000283277 0)
(0.995593 -0.00132134 0)
(0.995629 0.00468097 0)
(0.998467 0.0017281 0)
(0.998547 0.00280559 0)
(1.00079 0.00386161 0)
(1.0034 -0.000419471 0)
(1.00164 -0.000653939 0)
(1.00087 -0.00320306 0)
(0.999476 -0.00402738 0)
(0.996667 -0.00310702 0)
(0.994789 -0.00264368 0)
(0.993256 -0.000464099 0)
(0.991738 0.00265625 0)
(1.00115 -0.00306507 0)
(0.997936 -0.00143554 0)
(0.993466 -0.00141298 0)
(0.996236 0.00178716 0)
(1.00054 0.00029921 0)
(0.997116 -0.00399218 0)
(0.994862 0.000281109 0)
(0.99577 -0.00121375 0)
(0.995743 0.00435125 0)
(0.99842 0.00185241 0)
(0.998656 0.00250155 0)
(1.00067 0.00378509 0)
(1.00322 -0.000425337 0)
(1.00153 -0.000680703 0)
(1.00071 -0.00282643 0)
(0.999513 -0.0038536 0)
(0.996802 -0.0027484 0)
(0.995011 -0.00217389 0)
(0.993704 -0.000345981 0)
(0.992231 0.00273454 0)
(1.0011 -0.00292069 0)
(0.998002 -0.00154354 0)
(0.993576 -0.00123776 0)
(0.996317 0.00158383 0)
(1.00044 0.000339169 0)
(0.99717 -0.00385284 0)
(0.994981 0.0002591 0)
(0.995944 -0.00108946 0)
(0.995865 0.00400992 0)
(0.998371 0.00197052 0)
(0.998761 0.00221942 0)
(1.00056 0.00367388 0)
(1.00302 -0.000388566 0)
(1.00143 -0.000723065 0)
(1.00055 -0.00244816 0)
(0.99955 -0.00364105 0)
(0.996962 -0.00243886 0)
(0.995226 -0.00170567 0)
(0.994137 -0.000202514 0)
(0.99274 0.00274104 0)
(1.00104 -0.00276991 0)
(0.998073 -0.0016599 0)
(0.99369 -0.00105857 0)
(0.996399 0.00138495 0)
(1.00035 0.000368894 0)
(0.997225 -0.00369908 0)
(0.995107 0.000220039 0)
(0.996115 -0.000951828 0)
(0.995996 0.00366487 0)
(0.998321 0.00207371 0)
(0.99886 0.00196822 0)
(1.00046 0.00352993 0)
(1.00283 -0.000320871 0)
(1.00135 -0.000769196 0)
(1.00041 -0.00208402 0)
(0.999584 -0.00338932 0)
(0.997146 -0.00217615 0)
(0.995439 -0.00125411 0)
(0.994548 -2.83558e-05 0)
(0.993264 0.00268618 0)
(1.00099 -0.00261305 0)
(0.998151 -0.00178364 0)
(0.993807 -0.000877765 0)
(0.996481 0.00119362 0)
(1.00026 0.000387532 0)
(0.997281 -0.00352894 0)
(0.995239 0.000160245 0)
(0.996283 -0.000804372 0)
(0.996135 0.00332439 0)
(0.998274 0.00215564 0)
(0.998952 0.00174874 0)
(1.00037 0.00335616 0)
(1.00263 -0.000224622 0)
(1.00128 -0.000811857 0)
(1.00028 -0.00173957 0)
(0.999612 -0.00309566 0)
(0.997352 -0.00194968 0)
(0.995655 -0.00083093 0)
(0.994928 0.000185392 0)
(0.993797 0.00259383 0)
(1.00093 -0.00245121 0)
(0.998235 -0.00191155 0)
(0.99393 -0.000701126 0)
(0.996563 0.00101414 0)
(1.00017 0.000391799 0)
(0.997336 -0.00333823 0)
(0.995377 8.21858e-05 0)
(0.996449 -0.000651786 0)
(0.996281 0.0029962 0)
(0.998232 0.00220987 0)
(0.999035 0.00156426 0)
(1.00029 0.0031561 0)
(1.00243 -0.000104015 0)
(1.00122 -0.000838189 0)
(1.00016 -0.00141944 0)
(0.999631 -0.00276002 0)
(0.997576 -0.00175217 0)
(0.995882 -0.000462573 0)
(0.995276 0.000434878 0)
(0.994327 0.00248851 0)
(1.00087 -0.00228441 0)
(0.998325 -0.00204261 0)
(0.994058 -0.000530158 0)
(0.996646 0.000851595 0)
(1.0001 0.000377563 0)
(0.99739 -0.00313123 0)
(0.995521 -5.47887e-06 0)
(0.996613 -0.000501803 0)
(0.996434 0.00268561 0)
(0.998196 0.00223078 0)
(0.999109 0.00141817 0)
(1.00022 0.0029398 0)
(1.00223 2.78242e-05 0)
(1.00117 -0.000837618 0)
(1.00007 -0.00112904 0)
(0.99964 -0.00239574 0)
(0.997807 -0.00157184 0)
(0.996124 -0.000149878 0)
(0.995593 0.000724113 0)
(0.99484 0.00240439 0)
(1.00082 -0.00211408 0)
(0.998421 -0.0021746 0)
(0.994193 -0.000366425 0)
(0.996728 0.000709353 0)
(1.00003 0.000343765 0)
(0.997444 -0.0029073 0)
(0.995669 -0.000104549 0)
(0.996775 -0.000358953 0)
(0.99659 0.00240091 0)
(0.998168 0.00221741 0)
(0.999176 0.00130673 0)
(1.00017 0.00272023 0)
(1.00203 0.000161908 0)
(1.00113 -0.000808714 0)
(0.999994 -0.000865956 0)
(0.999639 -0.00201782 0)
(0.998043 -0.00139106 0)
(0.996389 0.000116907 0)
(0.995886 0.00103261 0)
(0.995318 0.00237584 0)
(1.00076 -0.00194078 0)
(0.998523 -0.0023064 0)
(0.994334 -0.000215734 0)
(0.996809 0.000589641 0)
(0.999978 0.000290564 0)
(0.997496 -0.00267097 0)
(0.995822 -0.000205997 0)
(0.996935 -0.000232043 0)
(0.996747 0.00214791 0)
(0.998149 0.00216999 0)
(0.999235 0.00122573 0)
(1.00013 0.0025072 0)
(1.00184 0.00029818 0)
(1.0011 -0.000753297 0)
(0.999941 -0.000633986 0)
(0.99963 -0.00163841 0)
(0.998275 -0.001206 0)
(0.996677 0.000322126 0)
(0.996162 0.00131693 0)
(0.995751 0.00241651 0)
(1.0007 -0.00176502 0)
(0.998632 -0.00243526 0)
(0.994482 -8.39424e-05 0)
(0.996888 0.000495957 0)
(0.999932 0.000217896 0)
(0.997549 -0.00242704 0)
(0.995977 -0.000302334 0)
(0.997096 -0.000129991 0)
(0.996905 0.00192777 0)
(0.99814 0.00209302 0)
(0.99929 0.00116947 0)
(1.0001 0.00230785 0)
(1.00166 0.000429815 0)
(1.00106 -0.000681869 0)
(0.99991 -0.000436065 0)
(0.999615 -0.0012628 0)
(0.998498 -0.00100937 0)
(0.996986 0.000474247 0)
(0.996438 0.00155914 0)
(0.996136 0.00251678 0)
(1.00065 -0.00158876 0)
(0.998747 -0.00255856 0)
(0.994639 2.85073e-05 0)
(0.996963 0.000429667 0)
(0.999898 0.00012862 0)
(0.997604 -0.00217745 0)
(0.996133 -0.000391898 0)
(0.997257 -5.49827e-05 0)
(0.997061 0.00174489 0)
(0.998139 0.0019982 0)
(0.999341 0.001128 0)
(1.00008 0.00213663 0)
(1.00148 0.000556914 0)
(1.00104 -0.000598382 0)
(0.999904 -0.0002694 0)
(0.999599 -0.000889815 0)
(0.998706 -0.000791375 0)
(0.99731 0.0005918 0)
(0.996722 0.00175145 0)
(0.996482 0.00264391 0)
(1.00059 -0.00141356 0)
(0.998867 -0.00267118 0)
(0.994806 0.000117697 0)
(0.997035 0.000387263 0)
(0.999873 2.81069e-05 0)
(0.99766 -0.00192983 0)
(0.99629 -0.000461778 0)
(0.99742 -9.318e-06 0)
(0.997215 0.00159953 0)
(0.998146 0.00189401 0)
(0.99939 0.00109039 0)
(1.00008 0.00199627 0)
(1.00132 0.000678797 0)
(1.00101 -0.000504952 0)
(0.999921 -0.000136853 0)
(0.999588 -0.00053947 0)
(0.998892 -0.000555738 0)
(0.997641 0.000679516 0)
(0.997022 0.00189344 0)
(0.9968 0.00276914 0)
(1.00053 -0.00123983 0)
(0.998991 -0.00277331 0)
(0.994984 0.000184657 0)
(0.997104 0.000368612 0)
(0.999858 -8.38042e-05 0)
(0.99772 -0.00168604 0)
(0.996444 -0.000509305 0)
(0.997587 3.63008e-06 0)
(0.997368 0.00148495 0)
(0.998159 0.00179114 0)
(0.999441 0.00104781 0)
(1.00008 0.00187112 0)
(1.00116 0.000795861 0)
(1.00098 -0.000400399 0)
(0.999961 -3.8735e-05 0)
(0.999587 -0.000223483 0)
(0.999057 -0.000298901 0)
(0.997972 0.00075213 0)
(0.99734 0.00198546 0)
(0.997102 0.00287969 0)
(1.00048 -0.00106999 0)
(0.99912 -0.00286154 0)
(0.995174 0.000228703 0)
(0.997168 0.000371868 0)
(0.999853 -0.000203079 0)
(0.997784 -0.00145398 0)
(0.996594 -0.000531934 0)
(0.997758 -1.27019e-05 0)
(0.997522 0.00139666 0)
(0.998175 0.00170376 0)
(0.999491 0.000990887 0)
(1.0001 0.00175527 0)
(1.00101 0.000923479 0)
(1.00094 -0.000278997 0)
(1.00002 3.45472e-05 0)
(0.999603 5.63669e-05 0)
(0.9992 -2.88148e-05 0)
(0.998292 0.000828788 0)
(0.997675 0.00202942 0)
(0.997398 0.00296692 0)
(1.00043 -0.000904902 0)
(0.99925 -0.00293076 0)
(0.995377 0.000244207 0)
(0.997229 0.00039592 0)
(0.999856 -0.000327171 0)
(0.997853 -0.00123733 0)
(0.996737 -0.000524334 0)
(0.997932 -5.07603e-05 0)
(0.997678 0.00132236 0)
(0.998191 0.00164075 0)
(0.999541 0.00093267 0)
(1.00014 0.00164164 0)
(1.00088 0.00105119 0)
(1.00089 -0.000138779 0)
(1.0001 9.35151e-05 0)
(0.999642 0.000290825 0)
(0.999324 0.000248366 0)
(0.998591 0.000929573 0)
(0.998023 0.00203758 0)
(0.9977 0.00301558 0)
(1.00037 -0.00074715 0)
(0.999382 -0.00298113 0)
(0.995594 0.000236548 0)
(0.997286 0.000440209 0)
(0.999869 -0.000456022 0)
(0.997931 -0.00104116 0)
(0.996872 -0.000482964 0)
(0.998109 -0.000106325 0)
(0.997842 0.00125506 0)
(0.998208 0.00161071 0)
(0.999586 0.000876868 0)
(1.00019 0.00150697 0)
(1.00076 0.00116 0)
(1.00083 3.27246e-05 0)
(1.00018 0.000143386 0)
(0.999707 0.000479268 0)
(0.99944 0.000529034 0)
(0.998863 0.00106451 0)
(0.998373 0.00203032 0)
(0.998017 0.00301357 0)
(1.00032 -0.000597603 0)
(0.999514 -0.00300814 0)
(0.995824 0.000200255 0)
(0.997339 0.00050396 0)
(0.999888 -0.00058363 0)
(0.99802 -0.000873252 0)
(0.996996 -0.000403624 0)
(0.998286 -0.000170934 0)
(0.998016 0.00118224 0)
(0.998225 0.00161776 0)
(0.999622 0.000835421 0)
(1.00026 0.00134851 0)
(1.00066 0.00125289 0)
(1.00076 0.000230112 0)
(1.00027 0.000196295 0)
(0.999803 0.000616323 0)
(0.999555 0.000783723 0)
(0.999102 0.00122645 0)
(0.998709 0.00202838 0)
(0.99835 0.00296088 0)
(1.00028 -0.000458608 0)
(0.999644 -0.00300659 0)
(0.996068 0.000133472 0)
(0.99739 0.000584607 0)
(0.999911 -0.000709379 0)
(0.998124 -0.000736279 0)
(0.997111 -0.000284982 0)
(0.998459 -0.000233717 0)
(0.998204 0.00108229 0)
(0.998246 0.00165094 0)
(0.999641 0.000822493 0)
(1.00035 0.00117799 0)
(1.0006 0.00131308 0)
(1.00068 0.000441696 0)
(1.00035 0.00027163 0)
(0.999925 0.000701275 0)
(0.999683 0.000988382 0)
(0.999315 0.00140276 0)
(0.999017 0.00205724 0)
(0.998694 0.00287693 0)
(1.00023 -0.000332908 0)
(0.99977 -0.002972 0)
(0.996326 3.65096e-05 0)
(0.997438 0.000676956 0)
(0.999937 -0.000821959 0)
(0.998246 -0.000639988 0)
(0.997216 -0.000135934 0)
(0.998621 -0.000280196 0)
(0.99841 0.000953658 0)
(0.998275 0.00169178 0)
(0.99964 0.000850621 0)
(1.00044 0.00101106 0)
(1.00058 0.00132315 0)
(1.00061 0.000657868 0)
(1.00041 0.00038266 0)
(1.00007 0.000762616 0)
(0.999832 0.00114346 0)
(0.999515 0.0015673 0)
(0.999289 0.00212488 0)
(0.999028 0.00279563 0)
(1.00019 -0.000221255 0)
(0.999889 -0.00290083 0)
(0.996597 -9.37371e-05 0)
(0.997485 0.000777007 0)
(0.999961 -0.000911169 0)
(0.998387 -0.000594388 0)
(0.997316 4.60104e-05 0)
(0.998767 -0.000293543 0)
(0.998631 0.000793925 0)
(0.998321 0.00172129 0)
(0.999618 0.000930295 0)
(1.00053 0.000863337 0)
(1.0006 0.00128566 0)
(1.00054 0.000862898 0)
(1.00046 0.000524404 0)
(1.00021 0.000814373 0)
(1 0.00125198 0)
(0.999713 0.00169705 0)
(0.999531 0.00221089 0)
(0.999336 0.00274767 0)
(1.00015 -0.000125703 0)
(0.999999 -0.00279221 0)
(0.99688 -0.00024915 0)
(0.997534 0.000875391 0)
(0.999978 -0.000966031 0)
(0.998551 -0.000604999 0)
(0.997416 0.000238367 0)
(0.998887 -0.000254912 0)
(0.998864 0.000618037 0)
(0.998394 0.00172179 0)
(0.999577 0.00104522 0)
(1.00061 0.000758418 0)
(1.00066 0.00120156 0)
(1.00049 0.00103545 0)
(1.00048 0.000696474 0)
(1.00036 0.000876081 0)
(1.00019 0.00132916 0)
(0.99992 0.00179685 0)
(0.999755 0.0022907 0)
(0.99961 0.00273628 0)
(1.00012 -4.69046e-05 0)
(1.0001 -0.00264849 0)
(0.997172 -0.000424304 0)
(0.997588 0.000964183 0)
(0.999984 -0.000968277 0)
(0.998734 -0.00066323 0)
(0.997526 0.000410685 0)
(0.998983 -0.000152646 0)
(0.999101 0.000449772 0)
(0.998499 0.00167579 0)
(0.999525 0.00117829 0)
(1.00067 0.000710312 0)
(1.00075 0.00109248 0)
(1.00049 0.00115749 0)
(1.0005 0.000887143 0)
(1.00049 0.000959369 0)
(1.00038 0.00138181 0)
(1.00014 0.00186792 0)
(0.99997 0.00235122 0)
(0.999851 0.00274062 0)
(1.00009 1.44383e-05 0)
(1.00018 -0.00247369 0)
(0.997471 -0.000607536 0)
(0.997652 0.00102801 0)
(0.999973 -0.000912158 0)
(0.998934 -0.000758613 0)
(0.997653 0.000549972 0)
(0.999051 2.64167e-06 0)
(0.99933 0.000307986 0)
(0.998639 0.00157528 0)
(0.999475 0.00130661 0)
(1.00069 0.000719064 0)
(1.00086 0.000988041 0)
(1.00052 0.00122327 0)
(1.00051 0.00106571 0)
(1.0006 0.00105911 0)
(1.00058 0.00141609 0)
(1.00036 0.00190644 0)
(1.00018 0.00239363 0)
(1.00007 0.00275222 0)
(1.00006 5.9427e-05 0)
(1.00025 -0.0022747 0)
(0.997771 -0.000789977 0)
(0.997731 0.00105356 0)
(0.999946 -0.000791206 0)
(0.999141 -0.00087365 0)
(0.997806 0.000623605 0)
(0.999099 0.000200229 0)
(0.99954 0.000216613 0)
(0.99881 0.00143326 0)
(0.999439 0.00141112 0)
(1.0007 0.000777613 0)
(1.00097 0.000902688 0)
(1.00059 0.00124037 0)
(1.00053 0.0012209 0)
(1.00069 0.00117717 0)
(1.00077 0.00144975 0)
(1.0006 0.00191431 0)
(1.00041 0.00241182 0)
(1.00026 0.00277211 0)
(1.00004 8.86573e-05 0)
(1.0003 -0.00205987 0)
(0.998068 -0.000956146 0)
(0.997829 0.00102983 0)
(0.9999 -0.000618744 0)
(0.999344 -0.000974968 0)
(0.99799 0.000619139 0)
(0.999135 0.00041826 0)
(0.999721 0.000194217 0)
(0.999007 0.00127004 0)
(0.999428 0.00147545 0)
(1.00068 0.000867561 0)
(1.00109 0.000848915 0)
(1.0007 0.00122639 0)
(1.00057 0.00134298 0)
(1.00076 0.00130082 0)
(1.00095 0.00149147 0)
(1.00084 0.00189953 0)
(1.00065 0.0023902 0)
(1.00044 0.002786 0)
(1.00002 0.000103764 0)
(1.00033 -0.00183583 0)
(0.998355 -0.00109657 0)
(0.997948 0.000957668 0)
(0.999842 -0.00042023 0)
(0.999533 -0.00103284 0)
(0.998207 0.000549584 0)
(0.999173 0.000617675 0)
(0.999867 0.000240652 0)
(0.999217 0.00111773 0)
(0.999448 0.00149127 0)
(1.00064 0.000972009 0)
(1.00118 0.000836623 0)
(1.00084 0.0011971 0)
(1.00064 0.00142984 0)
(1.00083 0.00142079 0)
(1.0011 0.0015482 0)
(1.00108 0.00188703 0)
(1.0009 0.00233574 0)
(1.00063 0.00277031 0)
(1 0.000105729 0)
(1.00035 -0.00160839 0)
(0.998627 -0.00120559 0)
(0.998091 0.000844616 0)
(0.999778 -0.000215102 0)
(0.999698 -0.00102215 0)
(0.998449 0.000430518 0)
(0.999224 0.000766189 0)
(0.999981 0.000338287 0)
(0.999425 0.0010006 0)
(0.999499 0.00147073 0)
(1.00061 0.00106944 0)
(1.00126 0.000855859 0)
(1.001 0.00116111 0)
(1.00074 0.00148037 0)
(1.0009 0.00152753 0)
(1.00123 0.00160963 0)
(1.00129 0.00188475 0)
(1.00117 0.00226906 0)
(1.00085 0.00270377 0)
(0.999988 9.84911e-05 0)
(1.00035 -0.00138541 0)
(0.998878 -0.00127415 0)
(0.998254 0.000695849 0)
(0.999716 -2.69701e-05 0)
(0.999832 -0.00093446 0)
(0.998705 0.000289121 0)
(0.9993 0.000840723 0)
(1.00007 0.000462366 0)
(0.999624 0.000934179 0)
(0.999576 0.00143714 0)
(1.00058 0.00115103 0)
(1.00133 0.00089264 0)
(1.00116 0.00113035 0)
(1.00087 0.0015022 0)
(1.00098 0.00161999 0)
(1.00135 0.00167319 0)
(1.00148 0.00188808 0)
(1.00142 0.00221563 0)
(1.0011 0.00260008 0)
(0.99998 8.46869e-05 0)
(1.00034 -0.00117483 0)
(0.999103 -0.00130017 0)
(0.998435 0.000526496 0)
(0.999665 0.000133096 0)
(0.999934 -0.000789318 0)
(0.998957 0.000162905 0)
(0.999403 0.000838572 0)
(1.00015 0.000586799 0)
(0.999806 0.000920653 0)
(0.99967 0.00140931 0)
(1.00055 0.00121951 0)
(1.00137 0.000939919 0)
(1.00132 0.00110538 0)
(1.00103 0.00149881 0)
(1.00106 0.00168921 0)
(1.00145 0.00174011 0)
(1.00165 0.00188977 0)
(1.00164 0.00217676 0)
(1.00135 0.0024959 0)
(0.999973 6.69133e-05 0)
(1.00032 -0.00098292 0)
(0.999299 -0.00128014 0)
(0.998628 0.000345177 0)
(0.999633 0.000256074 0)
(1 -0.000609978 0)
(0.999193 8.19764e-05 0)
(0.999531 0.000782399 0)
(1.00023 0.000673879 0)
(0.999974 0.000935141 0)
(0.999773 0.00139774 0)
(1.00054 0.00128292 0)
(1.0014 0.00100214 0)
(1.00148 0.00108758 0)
(1.00121 0.00147553 0)
(1.00117 0.00172807 0)
(1.00154 0.00180582 0)
(1.0018 0.00189578 0)
(1.00185 0.00213521 0)
(1.00159 0.00241335 0)
(0.999969 4.94477e-05 0)
(1.00029 -0.000818336 0)
(0.999464 -0.0012154 0)
(0.998827 0.000167064 0)
(0.999624 0.00032851 0)
(1.00005 -0.000418944 0)
(0.999403 5.93438e-05 0)
(0.99967 0.000712847 0)
(1.00032 0.000705416 0)
(1.00014 0.000953704 0)
(0.999884 0.00140188 0)
(1.00052 0.00134418 0)
(1.00141 0.00107151 0)
(1.00162 0.00108105 0)
(1.0014 0.00143424 0)
(1.00131 0.0017363 0)
(1.00162 0.00185949 0)
(1.00192 0.00191955 0)
(1.00204 0.00209097 0)
(1.00181 0.00234783 0)
(0.999966 3.41225e-05 0)
(1.00026 -0.000681121 0)
(0.9996 -0.00111784 0)
(0.999024 1.33683e-05 0)
(0.999642 0.000352367 0)
(1.00009 -0.000235273 0)
(0.999584 8.86389e-05 0)
(0.99981 0.000653782 0)
(1.00042 0.000697047 0)
(1.0003 0.00094821 0)
(1 0.00141214 0)
(1.00052 0.001415 0)
(1.0014 0.00114635 0)
(1.00173 0.00109292 0)
(1.0016 0.00138504 0)
(1.00147 0.00171302 0)
(1.00172 0.00188452 0)
(1.00202 0.00195031 0)
(1.0022 0.00205226 0)
(1.00201 0.00227375 0)
(0.999965 2.21119e-05 0)
(1.00023 -0.000568702 0)
(0.99971 -0.00099947 0)
(0.999212 -0.000107057 0)
(0.999684 0.000338534 0)
(1.00012 -7.32357e-05 0)
(0.999737 0.000152231 0)
(0.999938 0.000622927 0)
(1.00052 0.000676716 0)
(1.00047 0.0009068 0)
(1.00014 0.00140454 0)
(1.00052 0.00148905 0)
(1.00137 0.00123444 0)
(1.00182 0.00111966 0)
(1.00179 0.00134235 0)
(1.00165 0.00166649 0)
(1.00184 0.001877 0)
(1.00211 0.00197194 0)
(1.00233 0.00203289 0)
(1.0022 0.00219063 0)
(0.999964 1.51172e-05 0)
(1.0002 -0.000479972 0)
(0.999798 -0.000869732 0)
(0.999386 -0.000185768 0)
(0.999747 0.000293808 0)
(1.00016 5.99146e-05 0)
(0.99987 0.000234369 0)
(1.00005 0.000628271 0)
(1.00061 0.000665096 0)
(1.00064 0.000846011 0)
(1.0003 0.00135921 0)
(1.00054 0.0015459 0)
(1.00133 0.00133731 0)
(1.00187 0.00116181 0)
(1.00196 0.00130803 0)
(1.00184 0.00160772 0)
(1.00198 0.0018388 0)
(1.00219 0.00196641 0)
(1.00243 0.00202662 0)
(1.00236 0.00211254 0)
(0.999964 1.24751e-05 0)
(1.00018 -0.000408644 0)
(0.999868 -0.000739269 0)
(0.99954 -0.00021649 0)
(0.999826 0.000239512 0)
(1.00021 0.000153481 0)
(0.999987 0.000320947 0)
(1.00015 0.000654289 0)
(1.00068 0.000674933 0)
(1.0008 0.000789267 0)
(1.00048 0.00127587 0)
(1.00058 0.0015672 0)
(1.00128 0.00143833 0)
(1.00188 0.0012317 0)
(1.0021 0.00128752 0)
(1.00203 0.00154565 0)
(1.00213 0.00178187 0)
(1.0023 0.00192812 0)
(1.00251 0.00201555 0)
(1.00249 0.0020533 0)
(0.999965 1.26865e-05 0)
(1.00016 -0.0003483 0)
(0.999927 -0.000616802 0)
(0.999675 -0.000209129 0)
(0.999911 0.000197663 0)
(1.00027 0.000207906 0)
(1.0001 0.000397259 0)
(1.00024 0.000691142 0)
(1.00073 0.000710223 0)
(1.00093 0.000754292 0)
(1.00067 0.00117216 0)
(1.00067 0.00154182 0)
(1.00124 0.00151419 0)
(1.00187 0.00131949 0)
(1.0022 0.00129018 0)
(1.0022 0.00148383 0)
(1.00229 0.00171484 0)
(1.00242 0.00186329 0)
(1.00258 0.00197939 0)
(1.00258 0.00201061 0)
(0.999967 1.63285e-05 0)
(1.00014 -0.000297631 0)
(0.999977 -0.000506428 0)
(0.999793 -0.000173671 0)
(0.999996 0.000171099 0)
(1.00034 0.000240299 0)
(1.00021 0.000451869 0)
(1.00032 0.000733504 0)
(1.00077 0.000759805 0)
(1.00104 0.000748089 0)
(1.00087 0.00107629 0)
(1.00079 0.0014721 0)
(1.00123 0.00155475 0)
(1.00183 0.00140178 0)
(1.00225 0.00132323 0)
(1.00235 0.00143452 0)
(1.00244 0.00164303 0)
(1.00254 0.00178653 0)
(1.00267 0.00191041 0)
(1.00264 0.00196673 0)
(0.999969 2.02774e-05 0)
(1.00013 -0.000248354 0)
(1.00002 -0.000411498 0)
(0.999896 -0.000121061 0)
(1.00008 0.000170973 0)
(1.00041 0.000260838 0)
(1.00032 0.000483043 0)