/*--------------------------------*- C++ -*----------------------------------*\
| =========                 |                                                 |
| \\      /  F ield         | OpenFOAM: The Open Source CFD Toolbox           |
|  \\    /   O peration     | Version:  v1812                                 |
|   \\  /    A nd           | Web:      www.OpenFOAM.com                      |
|    \\/     M anipulation  |                                                 |
\*---------------------------------------------------------------------------*/
FoamFile
{
    version     2.0;
    format      ascii;
    class       volScalarField;
    location    "9.1";
    object      p;
}
// * * * * * * * * * * * * * * * * * * * * * * * * * * * * * * * * * * * * * //

dimensions      [0 2 -2 0 0 0 0];


internalField   nonuniform List<scalar> 
9600
(
-2.03471e-08
-0.00349815
-0.00241898
-0.00501802
-0.00289546
-0.00183395
-0.000811542
0.00019451
-0.00285168
-0.0067896
-0.00760413
-0.00642244
-0.00658067
-0.00664458
-0.00596793
-0.00470237
-0.00284946
-0.000696247
0.00370808
0.00844029
2.94918e-06
-0.00350432
-0.00241901
-0.00501478
-0.0029037
-0.0018421
-0.000791332
0.000168115
-0.00283827
-0.00680208
-0.0076027
-0.00640066
-0.00660426
-0.00663224
-0.00596983
-0.0047086
-0.00283887
-0.000738559
0.00377613
0.00804781
5.6224e-06
-0.00351214
-0.00241509
-0.00501084
-0.0029154
-0.00185024
-0.000769021
0.000128095
-0.00280105
-0.00681906
-0.00758685
-0.0063621
-0.0066407
-0.00660639
-0.00598661
-0.00470956
-0.00283847
-0.000789075
0.00379528
0.00746063
5.41301e-06
-0.00352323
-0.00241018
-0.00500604
-0.00292924
-0.00185921
-0.000759577
6.71987e-05
-0.00276306
-0.00682775
-0.00756328
-0.00631656
-0.00669319
-0.00658608
-0.0060119
-0.00471491
-0.00284388
-0.000841277
0.0037445
0.00693698
1.9088e-06
-0.00353824
-0.0024063
-0.00499972
-0.00294536
-0.00187011
-0.00076112
-1.92912e-05
-0.00273375
-0.00683035
-0.00754041
-0.00627413
-0.00676164
-0.00657104
-0.00603516
-0.00472478
-0.00284709
-0.000905128
0.00366163
0.00645233
-4.96451e-06
-0.00355807
-0.00240273
-0.00499108
-0.00296323
-0.00188293
-0.000771933
-0.000133786
-0.00271139
-0.0068283
-0.00752092
-0.00623567
-0.00683463
-0.00655602
-0.0060494
-0.00473661
-0.00284999
-0.000976724
0.00355007
0.00598724
-1.53657e-05
-0.00358297
-0.00239773
-0.00497958
-0.00298199
-0.00189805
-0.00079287
-0.000272779
-0.00269016
-0.00682088
-0.00750468
-0.00619641
-0.00690388
-0.00653977
-0.00605205
-0.00475044
-0.00285449
-0.00105384
0.00340689
0.00553479
-2.92653e-05
-0.00361276
-0.00239021
-0.00496493
-0.00300101
-0.00191638
-0.000824168
-0.000429042
-0.00266611
-0.00680827
-0.00749121
-0.00615349
-0.00696648
-0.00652285
-0.00604358
-0.00476646
-0.00286186
-0.00113586
0.00322922
0.00509164
-4.63728e-05
-0.00364714
-0.00237994
-0.00494705
-0.00302011
-0.00193875
-0.000865064
-0.000595512
-0.00263739
-0.00679116
-0.00748056
-0.0061067
-0.0070215
-0.00650631
-0.00602607
-0.00478381
-0.00287352
-0.00122381
0.0030164
0.00465546
-6.6215e-05
-0.0036858
-0.00236724
-0.004926
-0.00303943
-0.00196557
-0.000914447
-0.000767295
-0.00260347
-0.00677006
-0.00747315
-0.00605645
-0.00706873
-0.00649161
-0.00600145
-0.00480133
-0.0028919
-0.0013196
0.00277159
0.00422417
-8.82339e-05
-0.00372849
-0.00235284
-0.00490203
-0.00305925
-0.00199676
-0.000970951
-0.000941951
-0.00256519
-0.00674517
-0.0074695
-0.00600309
-0.00710855
-0.00647986
-0.00597133
-0.00481914
-0.00291943
-0.00142414
0.00249922
0.00379507
-0.000111877
-0.00377486
-0.00233779
-0.00487553
-0.00307994
-0.00203181
-0.00103299
-0.00111878
-0.00252482
-0.00671652
-0.00747013
-0.0059472
-0.00714142
-0.00647131
-0.00593794
-0.00483835
-0.00295698
-0.00153808
0.00220213
0.0033652
-0.000136681
-0.00382447
-0.0023232
-0.00484698
-0.00310185
-0.00206982
-0.00109907
-0.00129794
-0.00248526
-0.00668372
-0.00747549
-0.00588958
-0.00716771
-0.00646615
-0.00590369
-0.00485964
-0.00300452
-0.00166411
0.00188227
0.00293269
-0.000162323
-0.00387672
-0.00231005
-0.0048169
-0.00312536
-0.00210987
-0.00116814
-0.0014797
-0.00244898
-0.00664623
-0.00748613
-0.00583093
-0.00718808
-0.00646516
-0.00587035
-0.00488374
-0.00306166
-0.00180596
0.0015415
0.0024985
-0.000188645
-0.00393099
-0.0022991
-0.00478568
-0.0031508
-0.00215119
-0.00123979
-0.00166391
-0.00241787
-0.0066037
-0.00750255
-0.00577213
-0.00720362
-0.00646896
-0.00583886
-0.00491286
-0.00312697
-0.00196505
0.00118043
0.00206452
-0.000215634
-0.00398668
-0.00229088
-0.00475357
-0.00317845
-0.00219334
-0.0013141
-0.00184997
-0.00239345
-0.00655598
-0.00752508
-0.00571418
-0.00721521
-0.00647767
-0.00580973
-0.00495029
-0.00319882
-0.00214031
0.000798018
0.00163214
-0.000243393
-0.00404335
-0.00228576
-0.00472067
-0.0032086
-0.00223612
-0.00139148
-0.00203698
-0.00237707
-0.00650291
-0.00755382
-0.00565796
-0.00722324
-0.00649191
-0.0057827
-0.00499891
-0.00327685
-0.00232987
0.000392389
0.00120248
-0.000272105
-0.0041007
-0.00228398
-0.00468696
-0.00324151
-0.00227943
-0.00147245
-0.00222387
-0.00237
-0.00644431
-0.00758873
-0.00560409
-0.00722781
-0.00651327
-0.00575609
-0.00506117
-0.00336267
-0.00252991
-3.86196e-05
0.000775229
-0.000301997
-0.00415856
-0.00228574
-0.00465235
-0.00327757
-0.00232318
-0.00155747
-0.00240964
-0.00237332
-0.00638009
-0.00762987
-0.00555327
-0.00722814
-0.00654347
-0.00572828
-0.00513863
-0.00345954
-0.00273501
-0.00049663
0.000347538
-0.000333327
-0.00421676
-0.00229124
-0.00461669
-0.00331715
-0.00236732
-0.00164695
-0.00259335
-0.00238807
-0.00631038
-0.00767721
-0.00550679
-0.00722257
-0.00658468
-0.00569779
-0.00523075
-0.00357285
-0.00293858
-0.000980176
-8.7244e-05
-0.000366365
-0.00427518
-0.00230075
-0.0045798
-0.00336061
-0.00241184
-0.00174133
-0.00277422
-0.0024153
-0.00623532
-0.00773045
-0.00546617
-0.00720926
-0.00663946
-0.00566401
-0.0053353
-0.00370927
-0.00313442
-0.00148433
-0.000539579
-0.000401387
-0.00433372
-0.00231458
-0.0045415
-0.00340835
-0.00245669
-0.001841
-0.00295179
-0.00245594
-0.00615521
-0.00778877
-0.00543317
-0.00718643
-0.00670959
-0.00562892
-0.00544829
-0.00387523
-0.00331999
-0.00200113
-0.00102037
-0.000438648
-0.00439226
-0.00233311
-0.00450159
-0.00346083
-0.00250184
-0.0019463
-0.00312582
-0.00251067
-0.00607063
-0.00785074
-0.00541014
-0.00715242
-0.00679594
-0.00559535
-0.00556374
-0.00407695
-0.0034971
-0.0025177
-0.00153841
-0.000478389
-0.00445065
-0.00235677
-0.0044599
-0.00351843
-0.0025473
-0.00205762
-0.00329615
-0.00257978
-0.00598269
-0.00791445
-0.00539981
-0.00710585
-0.00689833
-0.00556577
-0.0056749
-0.00431902
-0.00367201
-0.00301778
-0.00209752
-0.000520854
-0.00450874
-0.00238609
-0.00441626
-0.00358152
-0.00259305
-0.00217522
-0.00346292
-0.00266318
-0.00589295
-0.00797761
-0.00540479
-0.00704628
-0.00701471
-0.00553867
-0.0057763
-0.00460212
-0.003855
-0.00348605
-0.00269414
-0.000566278
-0.00456632
-0.00242165
-0.00437048
-0.00365046
-0.00263921
-0.0022991
-0.00362651
-0.0027605
-0.00580346
-0.00803787
-0.00542724
-0.00697374
-0.00714287
-0.00554338
-0.00586281
-0.00492235
-0.00405978
-0.00391096
-0.00331847
-0.000614902
-0.00462314
-0.00246407
-0.00432246
-0.00372549
-0.00268609
-0.00242897
-0.00378758
-0.00287088
-0.0057167
-0.00809357
-0.00546838
-0.00688925
-0.00728089
-0.00557418
-0.00592999
-0.00527261
-0.00430208
-0.00428679
-0.00395247
-0.000666992
-0.00467895
-0.00251401
-0.00427211
-0.00380681
-0.00273423
-0.00256403
-0.00394726
-0.00299272
-0.00563499
-0.00814363
-0.00552897
-0.00679519
-0.00742452
-0.00563626
-0.00597811
-0.00564244
-0.00459595
-0.00461684
-0.00457206
-0.000722822
-0.0047335
-0.00257213
-0.00421931
-0.00389456
-0.00278432
-0.00270323
-0.00410701
-0.00312401
-0.00556033
-0.0081872
-0.00560974
-0.00669439
-0.00756839
-0.00573613
-0.00601046
-0.00601717
-0.00495127
-0.00491358
-0.00515124
-0.000782688
-0.00478647
-0.00263916
-0.00416407
-0.00398853
-0.00283748
-0.00284511
-0.00426846
-0.00326323
-0.00549427
-0.00822412
-0.00571031
-0.00659029
-0.00770834
-0.005878
-0.00603239
-0.00638113
-0.00537003
-0.00519686
-0.00566563
-0.000846924
-0.00483749
-0.00271586
-0.0041065
-0.00408825
-0.00289523
-0.00298753
-0.00443347
-0.00340931
-0.00543764
-0.00825549
-0.00582977
-0.00648621
-0.00784091
-0.00606365
-0.00605196
-0.00672037
-0.00584545
-0.00549292
-0.0061013
-0.00091586
-0.00488622
-0.00280295
-0.0040469
-0.00419318
-0.00295925
-0.00312806
-0.00460353
-0.00356159
-0.00539052
-0.00828277
-0.00596799
-0.00638568
-0.00796204
-0.00629392
-0.00607918
-0.00702148
-0.00636492
-0.00583102
-0.00646223
-0.000989852
-0.00493222
-0.00290113
-0.00398579
-0.00430235
-0.00303175
-0.0032641
-0.00477923
-0.00372049
-0.00535224
-0.00830738
-0.00612557
-0.00629223
-0.00806695
-0.00656764
-0.00612442
-0.00727432
-0.0069102
-0.0062318
-0.00676373
-0.00106932
-0.00497499
-0.00301107
-0.00392381
-0.00441436
-0.00311528
-0.00339318
-0.00496033
-0.00388754
-0.00532189
-0.00833088
-0.00630308
-0.00620881
-0.00815185
-0.00688065
-0.00619075
-0.00747599
-0.00745856
-0.00670064
-0.00704011
-0.00115471
-0.00501404
-0.00313319
-0.00386201
-0.00452754
-0.00321225
-0.00351344
-0.00514779
-0.00406514
-0.00529844
-0.00835315
-0.00650168
-0.00614043
-0.0082124
-0.00722666
-0.00631482
-0.0076307
-0.00798435
-0.00723058
-0.00732723
-0.0012465
-0.00504886
-0.00326772
-0.00380185
-0.00463954
-0.00332518
-0.00362419
-0.00533652
-0.00425593
-0.00528172
-0.0083726
-0.00672337
-0.00609387
-0.00824353
-0.00759845
-0.00650161
-0.00774669
-0.00846514
-0.0078111
-0.00767625
-0.00134516
-0.00507895
-0.00341492
-0.0037452
-0.00474734
-0.00345655
-0.00372573
-0.00552302
-0.00446307
-0.00527304
-0.00838665
-0.00696869
-0.00607546
-0.00824291
-0.00798654
-0.00675634
-0.00783427
-0.0088844
-0.00842104
-0.00809314
-0.00145119
-0.00510393
-0.00357458
-0.00369432
-0.00484812
-0.00360669
-0.00381926
-0.00570321
-0.00468939
-0.00527484
-0.00839128
-0.00723625
-0.0060938
-0.00821034
-0.00837723
-0.00708286
-0.00790815
-0.00923355
-0.00903286
-0.0085788
-0.00156514
-0.0051235
-0.00374597
-0.00365194
-0.00493907
-0.00377934
-0.00390786
-0.00587189
-0.00493638
-0.00529165
-0.00838218
-0.00752278
-0.00615927
-0.00814933
-0.00875301
-0.00748047
-0.00800341
-0.00951098
-0.00961932
-0.00911809
-0.00168749
-0.00513747
-0.00392794
-0.00362144
-0.0050172
-0.00397329
-0.00399605
-0.00602378
-0.00520402
-0.00532958
-0.0083566
-0.0078222
-0.00628153
-0.00806921
-0.00909464
-0.0079435
-0.00814973
-0.00971893
-0.0101581
-0.00969359
-0.0018187
-0.00514579
-0.00411881
-0.00360661
-0.00508032
-0.00418886
-0.00408916
-0.00615414
-0.0054896
-0.00539589
-0.00831414
-0.00812601
-0.00646872
-0.0079852
-0.00938323
-0.00845628
-0.00836158
-0.00985192
-0.0106301
-0.0102859
-0.00195929
-0.00514853
-0.00431629
-0.00361123
-0.00512739
-0.00442401
-0.00419351
-0.00625904
-0.00578826
-0.00549856
-0.00825741
-0.00842382
-0.00672453
-0.00791664
-0.00960631
-0.00899436
-0.00865416
-0.00997187
-0.0110207
-0.0108721
-0.00210975
-0.00514591
-0.00451791
-0.00363932
-0.00515819
-0.00467511
-0.00431601
-0.00633841
-0.00609262
-0.00564391
-0.0081926
-0.00870486
-0.00704672
-0.00788421
-0.00975999
-0.00952804
-0.00903312
-0.0100963
-0.0113233
-0.011425
-0.0022705
-0.00513853
-0.00472041
-0.00369484
-0.00517332
-0.0049233
-0.00446341
-0.00639484
-0.00639261
-0.00583604
-0.00812931
-0.00895915
-0.00742684
-0.00790854
-0.0098502
-0.0100249
-0.00948989
-0.0102604
-0.0115485
-0.0119137
-0.00244187
-0.00512749
-0.00491962
-0.00378102
-0.00517393
-0.00516762
-0.00464181
-0.00643391
-0.00667782
-0.0060754
-0.00808066
-0.00917866
-0.00784932
-0.00800452
-0.00989398
-0.0104607
-0.0100002
-0.0104922
-0.0117281
-0.0123197
-0.0026239
-0.00511406
-0.00511273
-0.00389998
-0.00515869
-0.00540181
-0.00485384
-0.00646685
-0.00693981
-0.00635706
-0.00806166
-0.0093595
-0.00829249
-0.00817886
-0.00991675
-0.0108245
-0.0105337
-0.010801
-0.0118993
-0.0126489
-0.00281615
-0.00510024
-0.00529116
-0.00405268
-0.00515084
-0.00561839
-0.00509874
-0.00650809
-0.00717449
-0.00667031
-0.00808473
-0.00950352
-0.00873346
-0.00843051
-0.00994736
-0.0111142
-0.0110596
-0.0111798
-0.0120917
-0.0129182
-0.00301769
-0.00508894
-0.00545477
-0.00423863
-0.00515122
-0.00581228
-0.00537135
-0.00656934
-0.0073819
-0.00700155
-0.00815685
-0.0096183
-0.00915372
-0.00875054
-0.0100134
-0.0113389
-0.0115498
-0.0116118
-0.0123256
-0.0131502
-0.00322733
-0.00508514
-0.00560193
-0.00445418
-0.0051703
-0.00597422
-0.00566002
-0.00665806
-0.00756532
-0.00733904
-0.00827861
-0.00971599
-0.00954195
-0.00912237
-0.0101327
-0.0115192
-0.0119871
-0.0120729
-0.0126117
-0.0133687
-0.00344394
-0.00509158
-0.00573158
-0.00469281
-0.005218
-0.00611837
-0.00595302
-0.006778
-0.00773141
-0.00767315
-0.00844647
-0.0098113
-0.00989258
-0.0095251
-0.010313
-0.0116811
-0.012368
-0.012536
-0.0129473
-0.013598
-0.00366622
-0.00511094
-0.00584447
-0.00494668
-0.00530039
-0.00624819
-0.00624153
-0.00692811
-0.00788812
-0.00799695
-0.00865512
-0.00991724
-0.0102056
-0.0099392
-0.0105517
-0.0118464
-0.0126996
-0.0129814
-0.0133182
-0.0138565
-0.00389249
-0.00514564
-0.00594336
-0.00520729
-0.00541986
-0.00637467
-0.00652235
-0.0071047
-0.00804149
-0.00830661
-0.00889724
-0.010044
-0.010487
-0.0103475
-0.0108377
-0.0120301
-0.0129951
-0.0134013
-0.0137058
-0.0141472
-0.00412104
-0.00519735
-0.006023
-0.00546729
-0.00557538
-0.00650577
-0.00679458
-0.00730492
-0.00819613
-0.00859896
-0.00916421
-0.0101995
-0.0107453
-0.0107382
-0.0111578
-0.0122396
-0.0132669
-0.0137944
-0.014097
-0.0144611
-0.00435013
-0.00526749
-0.00610588
-0.00572265
-0.00576329
-0.00664791
-0.00705895
-0.00752533
-0.00835565
-0.00887009
-0.00944589
-0.0103869
-0.0109919
-0.0111085
-0.0114978
-0.0124753
-0.0135228
-0.0141601
-0.0144866
-0.0147883
-0.00457908
-0.00535513
-0.00618625
-0.00596982
-0.0059789
-0.00680778
-0.00732082
-0.00776455
-0.00852459
-0.00912016
-0.00973169
-0.0106042
-0.0112393
-0.0114606
-0.0118442
-0.0127327
-0.0137691
-0.0144974
-0.0148726
-0.0151253
-0.00480781
-0.00546168
-0.0062668
-0.0062063
-0.00621517
-0.0069865
-0.00758156
-0.00802009
-0.00870514
-0.00935177
-0.0100135
-0.0108468
-0.0114967
-0.0117988
-0.0121905
-0.0130075
-0.0140134
-0.0148056
-0.0152474
-0.0154729
-0.00503357
-0.00558964
-0.00635641
-0.00643362
-0.00646909
-0.00718183
-0.0078407
-0.00828902
-0.00889837
-0.00956727
-0.0102839
-0.0111066
-0.0117676
-0.0121309
-0.0125351
-0.0132952
-0.014261
-0.0150865
-0.0155996
-0.0158294
-0.00525281
-0.00571477
-0.00646259
-0.00667506
-0.00674308
-0.00739122
-0.00809616
-0.00856991
-0.00911118
-0.00977233
-0.0105365
-0.0113727
-0.0120496
-0.012463
-0.0128781
-0.0135893
-0.0145142
-0.0153489
-0.0159201
-0.0161829
-0.0054725
-0.00586676
-0.00658152
-0.00690763
-0.00702077
-0.00760881
-0.00834236
-0.00885761
-0.00935071
-0.00997872
-0.0107713
-0.0116364
-0.01234
-0.0127982
-0.0132254
-0.013889
-0.0147719
-0.0156038
-0.0162087
-0.0165174
-0.00569378
-0.00602941
-0.0067118
-0.00713481
-0.00730389
-0.0078368
-0.00858194
-0.00915263
-0.0096199
-0.0101992
-0.0109934
-0.0118874
-0.0126299
-0.0131334
-0.0135785
-0.0141982
-0.0150305
-0.0158548
-0.0164756
-0.0168227
-0.00591621
-0.00620546
-0.00685337
-0.00735765
-0.00759179
-0.00807906
-0.00881597
-0.00944505
-0.00991304
-0.0104406
-0.0112084
-0.0121212
-0.0129099
-0.0134634
-0.0139325
-0.0145209
-0.0152933
-0.0161001
-0.0167311
-0.0171
-0.00614218
-0.00639608
-0.00700818
-0.00757472
-0.00787986
-0.00833506
-0.00904616
-0.00972373
-0.0102211
-0.0107092
-0.0114287
-0.01234
-0.0131734
-0.0137837
-0.0142824
-0.0148552
-0.0155692
-0.0163402
-0.0169775
-0.0173579
-0.00637141
-0.00660082
-0.0071739
-0.00778677
-0.00816601
-0.00860528
-0.00927885
-0.00998745
-0.0105322
-0.0110035
-0.0116659
-0.012549
-0.0134148
-0.0140872
-0.014623
-0.0151912
-0.015861
-0.0165827
-0.0172149
-0.0176039
-0.00660103
-0.00680953
-0.00735808
-0.00800202
-0.00844968
-0.00888681
-0.0095176
-0.0102379
-0.0108319
-0.0113133
-0.0119263
-0.0127591
-0.0136352
-0.0143658
-0.0149489
-0.0155206
-0.0161616
-0.0168351
-0.0174462
-0.0178414
-0.00683389
-0.00703284
-0.00755518
-0.00821672
-0.00872734
-0.00917574
-0.00976585
-0.0104793
-0.0111148
-0.0116255
-0.0122065
-0.0129812
-0.0138419
-0.0146148
-0.0152519
-0.0158392
-0.0164619
-0.0170974
-0.0176759
-0.0180703
-0.00706989
-0.00726145
-0.00776649
-0.00843346
-0.00899551
-0.00946644
-0.0100256
-0.010719
-0.0113826
-0.011931
-0.0124999
-0.0132199
-0.0140451
-0.0148375
-0.0155224
-0.0161378
-0.0167536
-0.0173624
-0.0179071
-0.0182906
-0.0073101
-0.00749916
-0.00798755
-0.0086535
-0.00925793
-0.00975913
-0.010297
-0.0109593
-0.0116332
-0.012217
-0.0127923
-0.0134699
-0.0142536
-0.0150442
-0.0157608
-0.0164056
-0.0170251
-0.0176188
-0.0181376
-0.0185031
-0.00755288
-0.00773754
-0.00822006
-0.00888328
-0.00951433
-0.0100449
-0.0105733
-0.0112074
-0.0118763
-0.0124851
-0.0130707
-0.0137194
-0.014463
-0.015242
-0.0159768
-0.0166438
-0.0172714
-0.0178576
-0.0183599
-0.0187076
-0.00780048
-0.00798171
-0.00845912
-0.00911732
-0.00976587
-0.0103234
-0.0108501
-0.0114591
-0.0121164
-0.0127417
-0.0133364
-0.0139615
-0.0146614
-0.0154147
-0.0161605
-0.0168501
-0.017493
-0.0180815
-0.018575
-0.0189102
-0.0080528
-0.00823463
-0.00870303
-0.00935569
-0.0100146
-0.0105962
-0.0111257
-0.0117098
-0.0123457
-0.0129777
-0.0135864
-0.0142015
-0.014861
-0.015568
-0.0163008
-0.0170035
-0.017665
-0.0182694
-0.0187686
-0.0191034
-0.00830578
-0.00848247
-0.00895237
-0.00960368
-0.0102632
-0.0108597
-0.0113991
-0.0119661
-0.0125749
-0.0131961
-0.0138046
-0.014418
-0.0150542
-0.0157158
-0.0164138
-0.0171064
-0.0177657
-0.0183801
-0.0189002
-0.0192573
-0.00856259
-0.00873663
-0.00920207
-0.00985125
-0.0105103
-0.0111159
-0.0116656
-0.0122218
-0.0128063
-0.0134107
-0.0140032
-0.0145971
-0.0152118
-0.0158393
-0.0164986
-0.0171635
-0.0178049
-0.0184081
-0.0189303
-0.0193042
-0.00882279
-0.00899689
-0.00945412
-0.0100967
-0.0107525
-0.0113622
-0.0119201
-0.0124718
-0.0130372
-0.0136206
-0.0141883
-0.0147463
-0.0153261
-0.0159205
-0.0165461
-0.0171872
-0.0178136
-0.0183972
-0.0188952
-0.0192324
-0.00908083
-0.00925568
-0.00971168
-0.0103469
-0.010993
-0.0115974
-0.0121584
-0.0127179
-0.0132877
-0.0138431
-0.014356
-0.0148379
-0.0153256
-0.0158348
-0.0163937
-0.0170017
-0.0176357
-0.0182891
-0.018929
-0.0194571
-0.00933467
-0.00951488
-0.00997366
-0.0105999
-0.0112348
-0.0118324
-0.0123794
-0.0129418
-0.0135743
-0.0142078
-0.0147212
-0.0151152
-0.0154821
-0.0158722
-0.0162936
-0.0166953
-0.0170034
-0.0171849
-0.0172944
-0.0174382
-0.00959731
-0.00975619
-0.0101985
-0.0108089
-0.0114546
-0.0120734
-0.0125927
-0.0130571
-0.0135573
-0.0140918
-0.0146029
-0.0150763
-0.0155372
-0.0159685
-0.0163559
-0.0167146
-0.0170631
-0.0174001
-0.0177411
-0.0181275
-0.00991393
-0.0101044
-0.0104551
-0.010954
-0.0115058
-0.012057
-0.0125773
-0.013112
-0.0136823
-0.0142681
-0.0148449
-0.0153635
-0.0158155
-0.0162151
-0.0165358
-0.0167879
-0.0169757
-0.0170975
-0.0172051
-0.0173902
-0.0100733
-0.0101843
-0.0105506
-0.0110697
-0.0116062
-0.0121481
-0.0126808
-0.0132194
-0.013793
-0.0143618
-0.0148762
-0.0153329
-0.0157426
-0.0161639
-0.0166389
-0.0171834
-0.0178257
-0.0185325
-0.0192482
-0.0198821
-0.0103325
-0.0104843
-0.0107735
-0.0111884
-0.0116586
-0.0121759
-0.0127101
-0.0132725
-0.0138758
-0.0144813
-0.0150314
-0.0155148
-0.0159464
-0.0163121
-0.0166171
-0.0168406
-0.0169943
-0.0171169
-0.0172695
-0.0175403
-0.0104832
-0.0106164
-0.0108752
-0.0112447
-0.0116798
-0.0121882
-0.0127202
-0.013298
-0.013929
-0.0145626
-0.0151354
-0.015607
-0.0160057
-0.0163599
-0.0166923
-0.0170236
-0.0173637
-0.017716
-0.0180831
-0.0185102
0.01924
0.00771923
-0.00445563
-0.0125005
-0.0155613
-0.0159121
-0.0162973
-0.0174045
-0.0187229
-0.0196214
-0.0199414
-0.0200723
-0.0203822
-0.0208808
-0.0215206
-0.0222555
-0.0228985
-0.0234028
-0.0239562
-0.0246282
-0.0252968
-0.0258876
-0.0264224
-0.02698
-0.0276564
-0.0284225
-0.0291311
-0.0297969
-0.0305989
-0.0315931
-0.0326442
-0.0335835
-0.0343103
-0.0348997
-0.0355084
-0.0361998
-0.0369343
-0.0376736
-0.0384237
-0.0392234
-0.040072
-0.040958
-0.041893
-0.0428574
-0.0437705
-0.0446068
-0.0454252
-0.0462629
-0.0471374
-0.048053
-0.0490061
-0.0499875
-0.0509755
-0.0519521
-0.0529483
-0.0539666
-0.0550246
-0.0560935
-0.0571773
-0.0582977
-0.0594576
-0.0605839
-0.0616782
-0.0628216
-0.0639979
-0.0651823
-0.0663991
-0.067661
-0.0689297
-0.0702139
-0.071529
-0.0728649
-0.0742273
-0.0755877
-0.0769694
-0.0783864
-0.0798987
-0.0814323
-0.0829641
-0.0844976
-0.0860365
-0.0876246
-0.0892447
-0.090924
-0.0926133
-0.094349
-0.0960843
-0.0978695
-0.0996637
-0.10154
-0.103413
-0.105319
-0.107304
-0.109262
-0.111281
-0.113271
-0.115331
-0.117313
-0.119302
-0.12136
0.0174989
0.00750603
-0.0043827
-0.0123561
-0.0154638
-0.0158614
-0.0162664
-0.017386
-0.018712
-0.0196146
-0.0199365
-0.0200676
-0.0203775
-0.0208761
-0.0215163
-0.0222519
-0.0228956
-0.0233999
-0.0239531
-0.0246253
-0.0252941
-0.0258852
-0.02642
-0.0269775
-0.027654
-0.0284204
-0.0291292
-0.0297949
-0.0305968
-0.0315912
-0.0326427
-0.0335822
-0.0343092
-0.0348985
-0.0355072
-0.0361986
-0.0369333
-0.0376727
-0.0384229
-0.0392226
-0.0400712
-0.0409573
-0.0418923
-0.0428568
-0.04377
-0.0446064
-0.0454248
-0.0462624
-0.0471369
-0.0480526
-0.0490056
-0.0499871
-0.0509752
-0.0519517
-0.052948
-0.0539663
-0.0550243
-0.0560932
-0.057177
-0.0582974
-0.0594573
-0.0605836
-0.0616779
-0.0628214
-0.0639976
-0.065182
-0.0663989
-0.0676608
-0.0689295
-0.0702137
-0.0715288
-0.0728647
-0.0742271
-0.0755875
-0.0769693
-0.0783863
-0.0798985
-0.0814321
-0.082964
-0.0844975
-0.0860363
-0.0876245
-0.0892446
-0.0909238
-0.0926132
-0.0943489
-0.0960842
-0.0978694
-0.0996636
-0.10154
-0.103413
-0.105319
-0.107304
-0.109261
-0.111281
-0.113271
-0.115331
-0.117313
-0.119301
-0.12136
0.0161774
0.00736657
-0.00421345
-0.012097
-0.0153095
-0.0158079
-0.0162382
-0.0173605
-0.0186911
-0.0195996
-0.0199267
-0.0200615
-0.0203733
-0.0208722
-0.021512
-0.022248
-0.0228926
-0.0233973
-0.0239507
-0.024623
-0.0252919
-0.0258831
-0.026418
-0.0269755
-0.0276519
-0.0284185
-0.0291274
-0.0297931
-0.030595
-0.0315895
-0.0326414
-0.0335813
-0.0343083
-0.0348975
-0.0355061
-0.0361976
-0.0369324
-0.0376719
-0.0384221
-0.0392218
-0.0400705
-0.0409566
-0.0418917
-0.0428564
-0.0437696
-0.044606
-0.0454243
-0.046262
-0.0471365
-0.0480522
-0.0490053
-0.0499868
-0.0509749
-0.0519514
-0.0529477
-0.053966
-0.055024
-0.0560929
-0.0571767
-0.0582971
-0.0594571
-0.0605834
-0.0616777
-0.0628211
-0.0639974
-0.0651818
-0.0663987
-0.0676606
-0.0689293
-0.0702135
-0.0715286
-0.0728645
-0.0742269
-0.0755874
-0.0769691
-0.0783861
-0.0798984
-0.081432
-0.0829638
-0.0844974
-0.0860362
-0.0876244
-0.0892444
-0.0909237
-0.0926131
-0.0943488
-0.0960841
-0.0978693
-0.0996635
-0.10154
-0.103413
-0.105319
-0.107304
-0.109261
-0.111281
-0.113271
-0.115331
-0.117313
-0.119301
-0.12136
0.0149639
0.00718732
-0.00402351
-0.01179
-0.015112
-0.0157401
-0.0162005
-0.0173205
-0.0186523
-0.0195676
-0.0199053
-0.0200505
-0.0203685
-0.0208686
-0.0215069
-0.022242
-0.0228877
-0.0233945
-0.0239491
-0.0246212
-0.0252894
-0.0258806
-0.0264162
-0.026974
-0.0276502
-0.0284164
-0.0291253
-0.029791
-0.0305931
-0.0315879
-0.0326401
-0.0335803
-0.0343074
-0.0348964
-0.0355048
-0.0361963
-0.0369313
-0.0376709
-0.0384212
-0.0392209
-0.0400696
-0.0409559
-0.0418911
-0.0428559
-0.0437693
-0.0446056
-0.0454239
-0.0462616
-0.0471361
-0.0480518
-0.0490049
-0.0499864
-0.0509746
-0.0519511
-0.0529474
-0.0539657
-0.0550237
-0.0560926
-0.0571764
-0.0582969
-0.0594569
-0.0605833
-0.0616775
-0.0628209
-0.0639972
-0.0651816
-0.0663985
-0.0676604
-0.0689291
-0.0702133
-0.0715284
-0.0728644
-0.0742268
-0.0755872
-0.0769689
-0.0783859
-0.0798982
-0.0814319
-0.0829637
-0.0844972
-0.0860361
-0.0876242
-0.0892443
-0.0909236
-0.092613
-0.0943487
-0.096084
-0.0978692
-0.0996634
-0.10154
-0.103413
-0.105319
-0.107304
-0.109261
-0.111281
-0.113271
-0.115331
-0.117313
-0.119301
-0.121361
0.0137465
0.00693539
-0.00384012
-0.0114714
-0.0148979
-0.0156658
-0.0161596
-0.0172708
-0.0185968
-0.0195168
-0.0198694
-0.020032
-0.0203616
-0.0208652
-0.0215012
-0.0222332
-0.0228795
-0.0233902
-0.0239478
-0.0246197
-0.0252864
-0.0258775
-0.0264147
-0.0269736
-0.0276491
-0.0284142
-0.0291227
-0.0297888
-0.0305913
-0.0315861
-0.0326383
-0.0335789
-0.0343063
-0.0348951
-0.0355033
-0.0361947
-0.0369298
-0.0376697
-0.0384201
-0.0392198
-0.0400684
-0.0409548
-0.0418903
-0.0428553
-0.0437688
-0.044605
-0.0454234
-0.046261
-0.0471355
-0.0480513
-0.0490045
-0.049986
-0.0509742
-0.0519508
-0.052947
-0.0539654
-0.0550234
-0.0560923
-0.0571761
-0.0582966
-0.0594566
-0.0605831
-0.0616772
-0.0628207
-0.063997
-0.0651814
-0.0663982
-0.0676602
-0.0689289
-0.0702131
-0.0715282
-0.0728642
-0.0742266
-0.0755871
-0.0769688
-0.0783857
-0.079898
-0.0814318
-0.0829636
-0.0844971
-0.0860359
-0.0876241
-0.0892442
-0.0909235
-0.0926129
-0.0943486
-0.0960839
-0.0978691
-0.0996633
-0.10154
-0.103413
-0.105319
-0.107304
-0.109261
-0.11128
-0.113271
-0.115331
-0.117313
-0.119301
-0.121361
0.0125315
0.00662364
-0.00366442
-0.0111503
-0.0146745
-0.0155878
-0.0161204
-0.017219
-0.0185332
-0.0194542
-0.0198225
-0.0200066
-0.0203521
-0.0208614
-0.0214946
-0.0222218
-0.0228683
-0.0233843
-0.0239464
-0.0246182
-0.0252827
-0.0258736
-0.0264132
-0.0269743
-0.0276491
-0.028412
-0.0291198
-0.0297869
-0.03059
-0.0315842
-0.0326357
-0.0335765
-0.0343045
-0.0348936
-0.0355016
-0.0361927
-0.0369279
-0.0376682
-0.0384188
-0.0392183
-0.0400668
-0.0409534
-0.0418892
-0.0428545
-0.0437681
-0.0446043
-0.0454227
-0.0462603
-0.0471349
-0.0480507
-0.049004
-0.0499856
-0.0509738
-0.0519503
-0.0529466
-0.053965
-0.055023
-0.056092
-0.0571758
-0.0582963
-0.0594564
-0.0605829
-0.061677
-0.0628204
-0.0639967
-0.0651811
-0.066398
-0.06766
-0.0689287
-0.0702129
-0.071528
-0.072864
-0.0742264
-0.0755869
-0.0769686
-0.0783854
-0.0798978
-0.0814316
-0.0829634
-0.084497
-0.0860358
-0.0876239
-0.089244
-0.0909234
-0.0926127
-0.0943485
-0.0960838
-0.097869
-0.0996632
-0.10154
-0.103413
-0.105319
-0.107304
-0.109261
-0.11128
-0.113271
-0.115331
-0.117313
-0.119302
-0.121362
0.0113336
0.00626302
-0.00350045
-0.0108314
-0.0144427
-0.0155051
-0.0160832
-0.017168
-0.0184663
-0.0193855
-0.019769
-0.0199764
-0.0203402
-0.0208568
-0.0214873
-0.0222088
-0.022855
-0.0233771
-0.0239443
-0.0246159
-0.0252779
-0.0258688
-0.026412
-0.0269762
-0.02765
-0.0284097
-0.0291168
-0.0297858
-0.0305899
-0.0315829
-0.0326326
-0.033573
-0.0343017
-0.0348914
-0.0354993
-0.0361902
-0.0369256
-0.0376666
-0.0384173
-0.0392164
-0.0400646
-0.0409514
-0.0418878
-0.0428534
-0.043767
-0.0446034
-0.0454218
-0.0462594
-0.0471341
-0.04805
-0.0490034
-0.049985
-0.0509733
-0.0519498
-0.0529461
-0.0539645
-0.0550226
-0.0560916
-0.0571754
-0.0582959
-0.0594561
-0.0605826
-0.0616767
-0.0628201
-0.0639964
-0.0651809
-0.0663978
-0.0676597
-0.0689285
-0.0702126
-0.0715278
-0.0728637
-0.0742262
-0.0755867
-0.0769683
-0.0783852
-0.0798976
-0.0814315
-0.0829633
-0.0844968
-0.0860356
-0.0876238
-0.0892438
-0.0909232
-0.0926126
-0.0943484
-0.0960836
-0.0978689
-0.0996631
-0.10154
-0.103412
-0.105319
-0.107303
-0.109261
-0.11128
-0.113271
-0.115331
-0.117313
-0.119302
-0.121363
0.0101658
0.0058581
-0.00335586
-0.0105195
-0.0142034
-0.0154157
-0.0160471
-0.0171181
-0.0183974
-0.0193127
-0.019711
-0.0199428
-0.0203263
-0.0208513
-0.0214794
-0.0221948
-0.0228407
-0.0233692
-0.0239416
-0.0246128
-0.025272
-0.0258632
-0.0264109
-0.026979
-0.0276515
-0.0284072
-0.0291136
-0.0297855
-0.0305914
-0.0315827
-0.0326297
-0.0335687
-0.0342979
-0.0348883
-0.0354962
-0.0361866
-0.0369224
-0.0376647
-0.0384161
-0.0392145
-0.040062
-0.0409491
-0.041886
-0.0428517
-0.0437653
-0.044602
-0.0454206
-0.0462583
-0.047133
-0.0480492
-0.0490026
-0.0499843
-0.0509726
-0.0519491
-0.0529455
-0.0539638
-0.0550219
-0.056091
-0.057175
-0.0582955
-0.0594556
-0.0605823
-0.0616764
-0.0628197
-0.0639961
-0.0651806
-0.0663975
-0.0676595
-0.0689282
-0.0702124
-0.0715275
-0.0728635
-0.074226
-0.0755865
-0.0769681
-0.0783849
-0.0798974
-0.0814314
-0.0829631
-0.0844966
-0.0860354
-0.0876236
-0.0892436
-0.090923
-0.0926124
-0.0943482
-0.0960835
-0.0978687
-0.0996629
-0.101539
-0.103412
-0.105319
-0.107303
-0.109261
-0.11128
-0.11327
-0.115331
-0.117313
-0.119302
-0.121365
0.00903799
0.00540939
-0.00323915
-0.0102193
-0.013956
-0.015316
-0.0160101
-0.0170695
-0.0183273
-0.0192369
-0.0196494
-0.0199061
-0.0203106
-0.0208447
-0.0214709
-0.0221803
-0.0228259
-0.0233609
-0.0239385
-0.0246089
-0.0252651
-0.0258571
-0.0264098
-0.0269823
-0.0276535
-0.0284047
-0.0291102
-0.0297858
-0.0305943
-0.0315841
-0.0326277
-0.0335646
-0.0342935
-0.0348843
-0.0354917
-0.0361816
-0.0369181
-0.0376624
-0.0384149
-0.0392127
-0.0400593
-0.0409467
-0.0418841
-0.0428497
-0.0437631
-0.0446
-0.045419
-0.0462568
-0.0471317
-0.0480481
-0.0490018
-0.0499835
-0.0509717
-0.0519483
-0.0529447
-0.053963
-0.0550211
-0.0560902
-0.0571744
-0.0582949
-0.0594551
-0.0605819
-0.0616761
-0.0628193
-0.0639956
-0.0651802
-0.0663972
-0.0676592
-0.068928
-0.0702121
-0.0715273
-0.0728632
-0.0742257
-0.0755862
-0.0769678
-0.0783846
-0.0798971
-0.0814312
-0.0829629
-0.0844964
-0.0860352
-0.0876233
-0.0892434
-0.0909228
-0.0926122
-0.094348
-0.0960833
-0.0978686
-0.0996628
-0.101539
-0.103412
-0.105318
-0.107303
-0.109261
-0.11128
-0.11327
-0.115331
-0.117313
-0.119302
-0.121366
0.00795287
0.00491593
-0.00315503
-0.00993114
-0.0136985
-0.0152028
-0.0159715
-0.0170238
-0.0182575
-0.0191587
-0.0195845
-0.0198666
-0.020293
-0.0208374
-0.0214619
-0.0221653
-0.0228106
-0.0233522
-0.0239351
-0.0246046
-0.0252577
-0.0258504
-0.0264086
-0.0269859
-0.0276558
-0.0284022
-0.029107
-0.0297867
-0.0305985
-0.0315871
-0.0326272
-0.0335614
-0.0342895
-0.0348799
-0.0354863
-0.0361752
-0.0369125
-0.0376595
-0.0384137
-0.0392112
-0.0400569
-0.0409445
-0.0418824
-0.0428475
-0.0437605
-0.0445977
-0.045417
-0.046255
-0.0471302
-0.0480469
-0.0490008
-0.0499824
-0.0509707
-0.0519473
-0.0529439
-0.0539621
-0.05502
-0.0560892
-0.0571735
-0.0582941
-0.0594544
-0.0605814
-0.0616757
-0.0628189
-0.0639951
-0.0651798
-0.0663969
-0.0676588
-0.0689277
-0.0702119
-0.0715271
-0.072863
-0.0742255
-0.075586
-0.0769675
-0.0783842
-0.0798969
-0.0814311