/*--------------------------------*- C++ -*----------------------------------*\
| =========                 |                                                 |
| \\      /  F ield         | OpenFOAM: The Open Source CFD Toolbox           |
|  \\    /   O peration     | Version:  v1812                                 |
|   \\  /    A nd           | Web:      www.OpenFOAM.com                      |
|    \\/     M anipulation  |                                                 |
\*---------------------------------------------------------------------------*/
FoamFile
{
    version     2.0;
    format      ascii;
    class       surfaceScalarField;
    location    "9.1";
    object      phi;
}
// * * * * * * * * * * * * * * * * * * * * * * * * * * * * * * * * * * * * * //

dimensions      [0 3 -1 0 0 0 0];
oriented        oriented;


internalField   nonuniform List<scalar> 
19000
(
1.19339e-06
1.42562e-06
1.13794e-06
-2.39166e-06
1.1625e-06
1.66106e-06
1.16294e-06
2.46231e-07
1.12219e-06
-4.52913e-07
1.12782e-06
-8.97738e-07
1.20588e-06
1.2097e-06
1.11031e-06
-1.25981e-06
1.17921e-06
1.50194e-06
1.1168e-06
7.56697e-07
1.1283e-06
5.57495e-07
1.13767e-06
9.51447e-07
1.09802e-06
1.62129e-07
1.12808e-06
3.57913e-07
1.12195e-06
-2.59136e-07
1.11972e-06
-2.4874e-07
1.13318e-06
-4.46861e-07
1.12106e-06
-4.54657e-07
1.1475e-06
-2.31819e-07
-4.46224e-07
1.09067e-06
1.24793e-06
1.40195e-06
1.19315e-06
-2.33687e-06
1.211e-06
1.64321e-06
1.217e-06
2.40229e-07
1.1747e-06
-4.10613e-07
1.18216e-06
-9.05201e-07
1.25869e-06
1.13317e-06
1.16237e-06
-1.16349e-06
1.22292e-06
1.44139e-06
1.18088e-06
7.98732e-07
1.16998e-06
5.68397e-07
1.20965e-06
9.11778e-07
1.15662e-06
2.15161e-07
1.19454e-06
3.19993e-07
1.18032e-06
-2.44915e-07
1.1925e-06
-2.60921e-07
1.18362e-06
-4.37986e-07
1.19344e-06
-4.6447e-07
1.19032e-06
-2.28705e-07
-4.30631e-07
1.17473e-06
1.30507e-06
1.37966e-06
1.25016e-06
-2.28196e-06
1.26316e-06
1.63021e-06
1.273e-06
2.30392e-07
1.233e-06
-3.70619e-07
1.23709e-06
-9.0929e-07
1.31283e-06
1.05743e-06
1.22108e-06
-1.07173e-06
1.26698e-06
1.39549e-06
1.24964e-06
8.16079e-07
1.21571e-06
6.02325e-07
1.26611e-06
8.61373e-07
1.22092e-06
2.60354e-07
1.24402e-06
2.96896e-07
1.2383e-06
-2.39198e-07
1.24624e-06
-2.68862e-07
1.23781e-06
-4.2955e-07
1.24488e-06
-4.71541e-07
1.24884e-06
-2.32667e-07
-4.1411e-07
1.23232e-06
1.36445e-06
1.35931e-06
1.31111e-06
-2.22862e-06
1.31863e-06
1.62268e-06
1.33285e-06
2.16171e-07
1.29672e-06
-3.34484e-07
1.2956e-06
-9.08175e-07
1.36811e-06
9.84927e-07
1.28904e-06
-9.92668e-07
1.31441e-06
1.37012e-06
1.32036e-06
8.10136e-07
1.2722e-06
6.50479e-07
1.31208e-06
8.21496e-07
1.28985e-06
2.82586e-07
1.30087e-06
2.85876e-07
1.30144e-06
-2.39775e-07
1.30882e-06
-2.76242e-07
1.30016e-06
-4.20886e-07
1.30356e-06
-4.74939e-07
1.30815e-06
-2.37259e-07
-3.96842e-07
1.29088e-06
1.42635e-06
1.34132e-06
1.37586e-06
-2.17813e-06
1.37946e-06
1.61908e-06
1.3967e-06
1.98929e-07
1.36586e-06
-3.03639e-07
1.3589e-06
-9.01218e-07
1.42536e-06
9.18465e-07
1.36422e-06
-9.31529e-07
1.37126e-06
1.36309e-06
1.3894e-06
7.91994e-07
1.3431e-06
6.96779e-07
1.36616e-06
7.98435e-07
1.36336e-06
2.85393e-07
1.372e-06
2.77236e-07
1.37211e-06
-2.39894e-07
1.37963e-06
-2.83755e-07
1.36983e-06
-4.1109e-07
1.36897e-06
-4.74081e-07
1.37269e-06
-2.40974e-07
-3.79384e-07
1.35523e-06
1.4911e-06
1.3259e-06
1.44408e-06
-2.13111e-06
1.44692e-06
1.61625e-06
1.4646e-06
1.81249e-07
1.43966e-06
-2.78699e-07
1.42769e-06
-8.89249e-07
1.48574e-06
8.60416e-07
1.44257e-06
-8.88357e-07
1.43867e-06
1.36699e-06
1.45858e-06
7.7208e-07
1.42454e-06
7.30819e-07
1.43562e-06
7.87354e-07
1.44205e-06
2.78967e-07
1.45221e-06
2.67077e-07
1.44949e-06
-2.37182e-07
1.45489e-06
-2.89151e-07
1.44406e-06
-4.00257e-07
1.43923e-06
-4.69256e-07
1.44123e-06
-2.42972e-07
-3.61368e-07
1.42321e-06
1.55909e-06
1.31303e-06
1.51552e-06
-2.08755e-06
1.52111e-06
1.61066e-06
1.53673e-06
1.65623e-07
1.51707e-06
-2.59034e-07
1.50205e-06
-8.7423e-07
1.55037e-06
8.12097e-07
1.52062e-06
-8.58608e-07
1.51379e-06
1.37381e-06
1.53076e-06
7.55115e-07
1.51094e-06
7.50638e-07
1.51676e-06
7.81529e-07
1.52557e-06
2.70154e-07
1.53664e-06
2.56011e-07
1.53118e-06
-2.31719e-07
1.53375e-06
-2.91719e-07
1.52159e-06
-3.88104e-07
1.51349e-06
-4.61151e-07
1.51357e-06
-2.43052e-07
-3.42041e-07
1.49424e-06
1.63075e-06
1.30241e-06
1.59027e-06
-2.04706e-06
1.60127e-06
1.59966e-06
1.61327e-06
1.53628e-07
1.5973e-06
-2.43067e-07
1.5816e-06
-8.58527e-07
1.61997e-06
7.73728e-07
1.59719e-06
-8.35834e-07
1.59324e-06
1.37776e-06
1.60705e-06
7.41308e-07
1.59916e-06
7.58526e-07
1.60389e-06
7.768e-07
1.6126e-06
2.61447e-07
1.62346e-06
2.45151e-07
1.61577e-06
-2.24031e-07
1.61595e-06
-2.91902e-07
1.60265e-06
-3.74806e-07
1.59163e-06
-4.50128e-07
1.59008e-06
-2.41498e-07
-3.21141e-07
1.56918e-06
1.70649e-06
1.29349e-06
1.66866e-06
-2.00924e-06
1.68641e-06
1.58191e-06
1.69415e-06
1.45888e-07
1.68009e-06
-2.29008e-07
1.66563e-06
-8.4407e-07
1.69469e-06
7.44664e-07
1.67331e-06
-8.14457e-07
1.67533e-06
1.37575e-06
1.68717e-06
7.29463e-07
1.68856e-06
7.57135e-07
1.69393e-06
7.71436e-07
1.70213e-06
2.53242e-07
1.71233e-06
2.34955e-07
1.70295e-06
-2.14654e-07
1.70116e-06
-2.90115e-07
1.6873e-06
-3.60941e-07
1.67374e-06
-4.36565e-07
1.6708e-06
-2.38561e-07
-2.99023e-07
1.64868e-06
1.7866e-06
1.28561e-06
1.75113e-06
-1.97377e-06
1.77565e-06
1.5574e-06
1.77912e-06
1.42413e-07
1.76557e-06
-2.15454e-07
1.75327e-06
-8.31768e-07
1.77439e-06
7.23542e-07
1.75111e-06
-7.91177e-07
1.76009e-06
1.36677e-06
1.77081e-06
7.18743e-07
1.77976e-06
7.48176e-07
1.78628e-06
7.6492e-07
1.79401e-06
2.45513e-07
1.8033e-06
2.25668e-07
1.79261e-06
-2.03962e-07
1.78902e-06
-2.86528e-07
1.7751e-06
-3.4702e-07
1.7596e-06
-4.21071e-07
1.75546e-06
-2.34422e-07
-2.76319e-07
1.73276e-06
1.87129e-06
1.27807e-06
1.83793e-06
-1.94041e-06
1.86834e-06
1.527e-06
1.86791e-06
1.42842e-07
1.85409e-06
-2.01635e-07
1.84371e-06
-8.21388e-07
1.8589e-06
7.0835e-07
1.83266e-06
-7.64933e-07
1.84843e-06
1.351e-06
1.85834e-06
7.08836e-07
1.87379e-06
7.32724e-07
1.88139e-06
7.57323e-07
1.88844e-06
2.38461e-07
1.89643e-06
2.17676e-07
1.88459e-06
-1.9212e-07
1.87926e-06
-2.81193e-07
1.86552e-06
-3.33288e-07
1.84884e-06
-4.04385e-07
1.84366e-06
-2.29247e-07
-2.53741e-07
1.82108e-06
1.96065e-06
1.27025e-06
1.92905e-06
-1.9088e-06
1.96392e-06
1.49212e-06
1.96028e-06
1.46486e-07
1.94601e-06
-1.87362e-07
1.93643e-06
-8.11814e-07
1.94809e-06
6.96692e-07
1.91929e-06
-7.36136e-07
1.94134e-06
1.32895e-06
1.95057e-06
6.99598e-07
1.97138e-06
7.11914e-07
1.97957e-06
7.49136e-07
1.98553e-06
2.32499e-07
1.99177e-06
2.11442e-07
1.97887e-06
-1.79227e-07
1.97188e-06
-2.74199e-07
1.95831e-06
-3.19715e-07
1.94115e-06
-3.87223e-07
1.93508e-06
-2.23184e-07
-2.31964e-07
1.91331e-06
2.05476e-06
1.26168e-06
2.02427e-06
-1.87832e-06
2.06202e-06
1.45438e-06
2.05618e-06
1.52329e-07
2.04169e-06
-1.72877e-07
2.03138e-06
-8.01502e-07
2.04181e-06
6.86257e-07
2.01148e-06
-7.05803e-07
2.03922e-06
1.30121e-06
2.04786e-06
6.90963e-07
2.0725e-06
6.87269e-07
2.08055e-06
7.4109e-07
2.08518e-06
2.27869e-07
2.08943e-06
2.07189e-07
2.0757e-06
-1.65497e-07
2.06732e-06
-2.65817e-07
2.05365e-06
-3.06044e-07
2.03657e-06
-3.70149e-07
2.02973e-06
-2.16341e-07
-2.11509e-07
2.00928e-06
2.15367e-06
1.25202e-06
2.12341e-06
-1.84807e-06
2.16255e-06
1.41525e-06
2.15569e-06
1.59184e-07
2.14152e-06
-1.58707e-07
2.129e-06
-7.88978e-07
2.13994e-06
6.75314e-07
2.10899e-06
-6.7485e-07
2.14184e-06
1.26836e-06
2.1497e-06
6.83101e-07
2.17648e-06
6.60495e-07
2.18376e-06
7.33808e-07
2.18728e-06
2.24352e-07
2.18982e-06
2.04645e-07
2.1756e-06
-1.51281e-07
2.16634e-06
-2.56556e-07
2.1522e-06
-2.91902e-07
2.13555e-06
-3.53499e-07
2.12805e-06
-2.08841e-07
-1.92565e-07
2.10911e-06
2.25747e-06
1.24104e-06
2.2265e-06
-1.8171e-06
2.26589e-06
1.37586e-06
2.25907e-06
1.66003e-07
2.24589e-06
-1.45521e-07
2.23015e-06
-7.73242e-07
2.24251e-06
6.62954e-07
2.21136e-06
-6.437e-07
2.24864e-06
1.23108e-06
2.25524e-06
6.765e-07
2.28274e-06
6.32997e-07
2.289e-06
7.27546e-07
2.29202e-06
2.21337e-07
2.29361e-06
2.03048e-07
2.27924e-06
-1.36907e-07
2.26978e-06
-2.47096e-07
2.25481e-06
-2.76937e-07
2.23872e-06
-3.37409e-07
2.23078e-06
-2.00898e-07
-1.74936e-07
2.21315e-06
2.36628e-06
1.22864e-06
2.33383e-06
-1.78466e-06
2.37283e-06
1.33686e-06
2.36669e-06
1.7215e-07
2.35512e-06
-1.33957e-07
2.33578e-06
-7.53895e-07
2.34978e-06
6.48948e-07
2.31833e-06
-6.12245e-07
2.35927e-06
1.19013e-06
2.36397e-06
6.71798e-07
2.39139e-06
6.05574e-07
2.39681e-06
7.22134e-07
2.39993e-06
2.18213e-07
2.40158e-06
2.01396e-07
2.38718e-06
-1.22506e-07
2.37818e-06
-2.38098e-07
2.36225e-06
-2.61001e-07
2.34663e-06
-3.21793e-07
2.33862e-06
-1.92885e-07
-1.5816e-07
2.32184e-06
2.48026e-06
1.21478e-06
2.44586e-06
-1.75026e-06
2.48427e-06
1.29845e-06
2.47895e-06
1.77474e-07
2.46948e-06
-1.24482e-07
2.44655e-06
-7.30971e-07
2.46213e-06
6.33371e-07
2.42993e-06
-5.80047e-07
2.47374e-06
1.14632e-06
2.47612e-06
6.69423e-07
2.50323e-06
5.78455e-07
2.50823e-06
7.1714e-07
2.51173e-06
2.14707e-07
2.51437e-06
1.98757e-07
2.49984e-06
-1.07973e-07
2.4918e-06
-2.3006e-07
2.475e-06
-2.44199e-07
2.45957e-06
-3.06364e-07
2.45196e-06
-1.85274e-07
-1.41821e-07
2.43562e-06
2.5996e-06
1.19947e-06
2.56303e-06
-1.71369e-06
2.60098e-06
1.2605e-06
2.59628e-06
1.82175e-07
2.58912e-06
-1.17322e-07
2.56281e-06
-7.04662e-07
2.57991e-06
6.16266e-07
2.54646e-06
-5.46591e-07
2.59234e-06
1.10044e-06
2.59241e-06
6.69357e-07
2.61933e-06
5.51529e-07
2.62441e-06
7.12063e-07
2.62817e-06
2.10946e-07
2.63245e-06
1.94478e-07
2.61754e-06
-9.30637e-08
2.61069e-06
-2.2321e-07
2.59339e-06
-2.26894e-07
2.57765e-06
-2.90633e-07
2.57094e-06
-1.78559e-07
-1.25778e-07
2.5549e-06
2.72453e-06
1.18277e-06
2.6857e-06
-1.67486e-06
2.72348e-06
1.22272e-06
2.71904e-06
1.86619e-07
2.71421e-06
-1.12489e-07
2.68472e-06
-6.75171e-07
2.70344e-06
5.97548e-07
2.66833e-06
-5.11481e-07
2.71556e-06
1.0532e-06
2.71374e-06
6.71177e-07
2.74068e-06
5.2459e-07
2.7463e-06
7.06447e-07
2.74989e-06
2.07356e-07
2.75622e-06
1.8815e-07
2.74064e-06
-7.7492e-08
2.73491e-06
-2.1748e-07
2.71769e-06
-2.09668e-07
2.70101e-06
-2.73957e-07
2.69557e-06
-1.73114e-07
-1.10252e-07
2.68004e-06
2.85529e-06
1.16474e-06
2.81421e-06
-1.63378e-06
2.8522e-06
1.18473e-06
2.8476e-06
1.91215e-07
2.84496e-06
-1.09848e-07
2.81251e-06
-6.42721e-07
2.83297e-06
5.77087e-07
2.79604e-06
-4.74547e-07
2.84408e-06
1.00516e-06
2.84096e-06
6.74297e-07
2.86804e-06
4.97509e-07
2.87461e-06
6.99879e-07
2.87746e-06
2.04508e-07
2.88603e-06
1.79576e-07
2.86961e-06
-6.10656e-08
2.86462e-06
-2.12493e-07
2.84819e-06
-1.93242e-07
2.82994e-06
-2.55706e-07
2.82584e-06
-1.69017e-07
-9.57825e-08
2.81137e-06
2.99216e-06
1.14548e-06
2.9489e-06
-1.59052e-06
2.98745e-06
1.14618e-06
2.9823e-06
1.96365e-07
2.98165e-06
-1.09194e-07
2.94652e-06
-6.07598e-07
2.96879e-06
5.54823e-07
2.93009e-06
-4.35852e-07
2.97863e-06
9.56614e-07
2.97478e-06
6.78156e-07
3.00193e-06
4.70351e-07
3.00987e-06
6.91937e-07
3.01139e-06
2.02995e-07
3.0222e-06
1.68764e-07
3.00495e-06
-4.38169e-08
3.00002e-06
-2.07561e-07
2.98515e-06
-1.78374e-07
2.96497e-06
-2.35526e-07
2.96181e-06
-1.65856e-07
-8.31054e-08
2.94913e-06
3.13546e-06
1.12503e-06
3.09011e-06
-1.54518e-06
3.12954e-06
1.10675e-06
3.12347e-06
2.02439e-07
3.12459e-06
-1.10311e-07
3.08713e-06
-5.70146e-07
3.11115e-06
5.30804e-07
3.07095e-06
-3.95646e-07
3.11984e-06
9.07718e-07
3.11573e-06
6.8227e-07
3.14268e-06
4.43398e-07
3.15245e-06
6.82166e-07
3.1521e-06
2.03348e-07
3.16496e-06
1.55899e-07
3.14717e-06
-2.60274e-08
3.14141e-06
-2.01795e-07
3.12879e-06
-1.65754e-07
3.10674e-06
-2.1348e-07
3.10361e-06
-1.62724e-07
-7.30322e-08
3.09354e-06
3.28551e-06
1.10343e-06
3.23817e-06
-1.49784e-06
3.27875e-06
1.06617e-06
3.27144e-06
2.09747e-07
3.27414e-06
-1.13004e-07
3.23471e-06
-5.30722e-07
3.26033e-06
5.05183e-07
3.21899e-06
-3.54304e-07
3.26811e-06
8.586e-07
3.2642e-06
6.86177e-07
3.29049e-06
4.17116e-07
3.30255e-06
6.70102e-07
3.29996e-06
2.05934e-07
3.31451e-06
1.41357e-07
3.29667e-06
-8.19086e-09
3.28918e-06
-1.94304e-07
3.27927e-06
-1.55849e-07
3.25584e-06
-1.90051e-07
3.2516e-06
-1.58482e-07
-6.61136e-08
3.24468e-06
3.44267e-06
1.08069e-06
3.39341e-06
-1.44859e-06
3.43533e-06
1.02426e-06
3.42655e-06
2.18523e-07
3.43067e-06
-1.17122e-07
3.38961e-06
-4.89661e-07
3.41658e-06
4.78215e-07
3.37456e-06
-3.12292e-07
3.42366e-06
8.09507e-07
3.42047e-06
6.8936e-07
3.44551e-06
3.9208e-07
3.46027e-06
6.55341e-07
3.45532e-06
2.10889e-07
3.471e-06
1.25669e-07
3.45378e-06
9.03522e-09
3.44382e-06
-1.84341e-07
3.43668e-06
-1.4871e-07
3.41283e-06
-1.66203e-07
3.40627e-06
-1.51927e-07
-6.2481e-08
3.40264e-06
3.60728e-06
1.05682e-06
3.55616e-06
-1.39746e-06
3.59954e-06
9.80875e-07
3.58914e-06
2.28924e-07
3.59457e-06
-1.22554e-07
3.55218e-06
-4.47274e-07
3.58015e-06
4.50249e-07
3.538e-06
-2.70142e-07
3.58665e-06
7.60855e-07
3.58477e-06
6.91245e-07
3.60795e-06
3.68897e-07
3.6257e-06
6.37593e-07
3.6185e-06
2.18086e-07
3.63465e-06
1.09515e-07
3.6188e-06
2.48854e-08
3.60587e-06
-1.71404e-07
3.60115e-06
-1.43994e-07
3.57801e-06
-1.43067e-07
3.56837e-06
-1.42284e-07
-6.15971e-08
3.56749e-06
3.77972e-06
1.0318e-06
3.72674e-06
-1.34448e-06
3.77169e-06
9.35932e-07
3.75959e-06
2.41026e-07
3.76623e-06
-1.29203e-07
3.72283e-06
-4.0387e-07
3.75133e-06
4.21752e-07
3.70966e-06
-2.28476e-07
3.75727e-06
7.13242e-07
3.75729e-06
6.91231e-07
3.77809e-06
3.48099e-07
3.79891e-06
6.16768e-07
3.78985e-06
2.2715e-07
3.80572e-06
9.36431e-08
3.79198e-06
3.86218e-08
3.77593e-06
-1.55347e-07
3.77288e-06
-1.40946e-07
3.75162e-06
-1.21804e-07
3.73869e-06
-1.29358e-07
-6.22563e-08
3.73935e-06
3.96035e-06
1.00565e-06
3.90554e-06
-1.28967e-06
3.95209e-06
8.89382e-07
3.93828e-06
2.54831e-07
3.94604e-06
-1.36963e-07
3.90196e-06
-3.59789e-07
3.93041e-06
3.933e-07
3.88994e-06
-1.88006e-07
3.9358e-06
6.67384e-07
3.93827e-06
6.88766e-07
3.9563e-06
3.30063e-07
3.98005e-06
5.93021e-07
3.96971e-06
2.37486e-07
3.98452e-06
7.88353e-08
3.97352e-06
4.96174e-08
3.95453e-06
-1.36348e-07
3.95215e-06
-1.38569e-07
3.93377e-06
-1.03426e-07
3.91793e-06
-1.1352e-07
-6.29073e-08
3.91858e-06
4.14955e-06
9.78345e-07
4.09292e-06
-1.23304e-06
4.14109e-06
8.41205e-07
4.12565e-06
2.70273e-07
4.13437e-06
-1.45683e-07
4.09001e-06
-3.15429e-07
4.11774e-06
3.65571e-07
4.07925e-06
-1.49511e-07
4.12262e-06
6.24012e-07
4.12794e-06
6.83441e-07
4.14307e-06
3.14934e-07
4.16936e-06
5.66735e-07
4.15841e-06
2.4843e-07
4.17146e-06
6.57925e-08
4.16359e-06
5.74889e-08
4.14218e-06
-1.14938e-07
4.13934e-06
-1.35738e-07
4.12454e-06
-8.86232e-08
4.10669e-06
-9.56674e-08
-6.19644e-08
4.10575e-06
4.34773e-06
9.49915e-07
4.2893e-06
-1.17461e-06
4.33909e-06
7.91418e-07
4.32214e-06
2.8722e-07
4.33159e-06
-1.55137e-07
4.28744e-06
-2.71278e-07
4.31367e-06
3.39338e-07
4.27795e-06
-1.13792e-07
4.31823e-06
5.8374e-07
4.32659e-06
6.75075e-07
4.33896e-06
3.02566e-07
4.36717e-06
5.3852e-07
4.35627e-06
2.59331e-07
4.367e-06
5.5069e-08
4.36233e-06
6.21539e-08
4.33924e-06
-9.1845e-08
4.33498e-06
-1.31479e-07
4.32399e-06
-7.763e-08
4.30536e-06
-7.70378e-08
-5.82415e-08
4.30164e-06
4.55532e-06
9.20364e-07
4.49513e-06
-1.11441e-06
4.54646e-06
7.40084e-07
4.5282e-06
3.05479e-07
4.53807e-06
-1.65011e-07
4.4947e-06
-2.27905e-07
4.51862e-06
3.15418e-07
4.48641e-06
-8.15812e-08
4.5232e-06
5.4695e-07
4.53452e-06
6.63754e-07
4.5445e-06
2.92588e-07
4.57394e-06
5.09075e-07
4.56366e-06
2.69615e-07
4.57163e-06
4.70948e-08
4.57001e-06
6.37796e-08
4.54609e-06
-6.79213e-08
4.53963e-06
-1.25021e-07
4.5322e-06
-7.0202e-08
4.51421e-06
-5.90501e-08
-5.11942e-08
4.50717e-06
4.77278e-06
8.897e-07
4.71087e-06
-1.0525e-06
4.76364e-06
6.87321e-07
4.74431e-06
3.24808e-07
4.7542e-06
-1.74904e-07
4.71228e-06
-1.85982e-07
4.73306e-06
2.94635e-07
4.70496e-06
-5.34808e-08
4.73817e-06
5.13736e-07
4.7521e-06
6.49827e-07
4.76022e-06
2.84468e-07
4.7902e-06
4.79099e-07
4.78097e-06
2.78847e-07
4.78592e-06
4.21357e-08
4.78698e-06
6.27238e-08
4.76314e-06
-4.40823e-08
4.75393e-06
-1.15806e-07
4.74942e-06
-6.56916e-08
4.73345e-06
-4.30823e-08
-4.09783e-08
4.72323e-06
5.00057e-06
8.57929e-07
4.93704e-06
-9.88974e-07
4.99106e-06
6.33302e-07
4.97095e-06
3.44917e-07
4.98038e-06
-1.84331e-07
4.94066e-06
-1.46269e-07
4.95767e-06
2.77634e-07
4.93393e-06
-2.97413e-08
4.9638e-06
4.83862e-07
4.97976e-06
6.33866e-07
4.98659e-06
2.77635e-07
5.01653e-06
4.49163e-07
5.00861e-06
2.86768e-07
5.01045e-06
4.02972e-08
5.01377e-06
5.94014e-08
4.99085e-06
-2.11611e-08
4.97865e-06
-1.03605e-07
4.97608e-06
-6.31192e-08
4.96315e-06
-3.01588e-08
-2.84556e-08
4.95063e-06
5.23919e-06
8.2506e-07
5.17415e-06
-9.23936e-07
5.22919e-06
5.78263e-07
5.20864e-06
3.65461e-07
5.21704e-06
-1.9273e-07
5.18036e-06
-1.09588e-07
5.19313e-06
2.64863e-07
5.17364e-06
-1.02455e-08
5.20071e-06
4.56786e-07
5.21801e-06
6.16571e-07
5.22404e-06
2.71608e-07
5.25357e-06
4.19632e-07
5.24706e-06
2.93271e-07
5.24587e-06
4.14872e-08
5.25093e-06
5.43461e-08
5.2297e-06
6.7235e-11
5.2146e-06
-8.85051e-08
5.21276e-06
-6.12755e-08
5.20333e-06
-2.0732e-08
-1.51364e-08
5.19001e-06
5.48914e-06
7.9111e-07
5.42274e-06
-8.5754e-07
5.4785e-06
5.22504e-07
5.45793e-06
3.8603e-07
5.46468e-06
-1.9948e-07
5.4319e-06
-7.68018e-08
5.44015e-06
2.56608e-07
5.42448e-06
5.42634e-09
5.4495e-06
4.31761e-07
5.46743e-06
5.98641e-07
5.47295e-06
2.66089e-07
5.50189e-06
3.90693e-07
5.49693e-06
2.98233e-07
5.49275e-06
4.56694e-08
5.49913e-06
4.79664e-08
5.48021e-06
1.89795e-08
5.46257e-06
-7.08645e-08
5.46017e-06
-5.88755e-08
5.45419e-06
-1.47436e-08
-2.59766e-09
5.44165e-06
5.75096e-06
7.5611e-07
5.68339e-06
-7.8997e-07
5.73951e-06
4.66384e-07
5.7194e-06
4.06139e-07
5.72382e-06
-2.03901e-07
5.69572e-06
-4.87024e-08
5.69943e-06
2.52904e-07
5.68689e-06
1.79624e-08
5.7107e-06
4.07946e-07
5.72869e-06
5.80653e-07
5.73373e-06
2.6105e-07
5.76212e-06
3.62308e-07
5.75879e-06
3.01558e-07
5.75165e-06
5.28139e-08
5.75884e-06
4.07698e-08
5.74288e-06
3.49411e-08
5.72323e-06
-5.12173e-08
5.71924e-06
-5.48768e-08
5.71599e-06
-1.14933e-08
7.74153e-09
5.70565e-06
6.02519e-06
7.20109e-07
5.95668e-06
-7.2146e-07
6.01272e-06
4.10343e-07
5.99367e-06
4.25191e-07
5.99502e-06
-2.05245e-07
5.97221e-06
-2.58956e-08
5.97168e-06
2.53435e-07
5.96136e-06
2.82794e-08
5.98482e-06
3.84488e-07
6.00247e-06
5.63001e-07
6.00687e-06
2.56653e-07
6.03478e-06
3.34398e-07
6.03329e-06
3.0305e-07
6.02319e-06
6.29077e-08
6.03059e-06
3.3368e-08
6.01813e-06
4.74086e-08
5.99714e-06
-3.02293e-08
5.99096e-06
-4.86968e-08
5.98932e-06
-9.8561e-09
1.52677e-08
5.98179e-06
6.31242e-06
6.83175e-07
6.24325e-06
-6.52287e-07
6.29871e-06
3.54881e-07
6.2814e-06
4.42502e-07
6.2789e-06
-2.02743e-07
6.26173e-06
-8.72652e-09
6.25762e-06
2.57539e-07
6.24849e-06
3.74128e-08
6.27228e-06
3.60703e-07
6.28953e-06
5.45748e-07
6.29291e-06
2.53278e-07
6.32041e-06
3.06896e-07
6.32097e-06
3.02492e-07
6.30824e-06
7.56357e-08
6.31485e-06
2.6754e-08
6.30634e-06
5.59207e-08
6.28486e-06
-8.74966e-09
6.27621e-06
-4.00501e-08
6.27523e-06
-8.87212e-09
2.01988e-08
6.2703e-06
6.61324e-06
6.45402e-07
6.54374e-06
-5.82782e-07
6.59807e-06
3.00547e-07
6.58325e-06
4.57321e-07
6.57616e-06
-1.95647e-07
6.5647e-06
2.72954e-09
6.55797e-06
2.64266e-07
6.54892e-06
4.64628e-08
6.57354e-06
3.3609e-07
6.5906e-06
5.28685e-07
6.59251e-06
2.51365e-07
6.61946e-06
2.79946e-07
6.62253e-06
2.99425e-07
6.60748e-06
9.06834e-08
6.61222e-06
2.20174e-08
6.60788e-06
6.02618e-08
6.58697e-06
1.21552e-08
6.57583e-06
-2.89012e-08
6.5747e-06
-7.74502e-09
2.3236e-08
6.57166e-06
6.92828e-06
6.06908e-07
6.85883e-06
-5.13332e-07
6.91145e-06
2.47928e-07
6.89991e-06
4.68865e-07
6.8876e-06
-1.83338e-07
6.88166e-06
8.67175e-09
6.8734e-06
2.72526e-07
6.86342e-06
5.6437e-08
6.88907e-06
3.10439e-07
6.9064e-06
5.11358e-07
6.90643e-06
2.51333e-07
6.93253e-06
2.53852e-07
6.93853e-06
2.9342e-07
6.92173e-06
1.07488e-07
6.92342e-06
2.03269e-08
6.92306e-06
6.06186e-08
6.90412e-06
3.10925e-08
6.8905e-06
-1.52765e-08
6.88863e-06
-5.87885e-09
2.50379e-08
6.88683e-06
7.2582e-06
5.67842e-07
7.18924e-06
-4.44366e-07
7.23953e-06
1.9764e-07
7.23203e-06
4.76361e-07
7.21414e-06
-1.65446e-07
7.21316e-06
9.65198e-09
7.2046e-06
2.81085e-07
7.19283e-06
6.82051e-08
7.21939e-06
2.83874e-07
7.23761e-06
4.93138e-07
7.23556e-06
2.53392e-07
7.26011e-06
2.29297e-07
7.26945e-06
2.84085e-07
7.2517e-06
1.25234e-07
7.24945e-06
2.25747e-08
7.25235e-06
5.77236e-08
7.23664e-06
4.67994e-08
7.22103e-06
3.2931e-10
7.21779e-06
-2.63465e-09
2.59777e-08
7.21685e-06
7.60368e-06
5.28385e-07
7.53569e-06
-3.76378e-07
7.583e-06
1.50333e-07
7.58029e-06
4.79073e-07
7.55674e-06
-1.41894e-07
7.55979e-06
6.59823e-09
7.55232e-06
2.88557e-07
7.53813e-06
8.23983e-08
7.56499e-06
2.57013e-07
7.58483e-06
4.73297e-07
7.58085e-06
2.57372e-07
7.60294e-06
2.07208e-07
7.61562e-06
2.714e-07
7.59804e-06
1.42821e-07
7.59156e-06
2.90535e-08
7.59632e-06
5.29652e-08
7.58479e-06
5.83205e-08
7.56827e-06
1.68493e-08
7.56302e-06
2.61953e-09
2.64179e-08
7.56258e-06
7.96544e-06
4.8876e-07
7.89898e-06
-3.09916e-07
7.94261e-06
1.06693e-07
7.94536e-06
4.7633e-07
7.91638e-06
-1.12922e-07
7.92226e-06
7.26452e-10
7.91723e-06
2.93583e-07
7.90029e-06
9.93346e-08
7.9265e-06
2.30808e-07
7.94859e-06
4.51205e-07
7.94311e-06
2.62849e-07
7.9618e-06
1.88521e-07
7.97736e-06
2.55843e-07
7.96143e-06
1.5875e-07
7.95092e-06
3.95613e-08
7.95568e-06
4.81995e-08
7.94888e-06
6.51293e-08
7.93286e-06
3.28635e-08
7.92527e-06
1.02066e-08
2.69327e-08
7.92476e-06
8.34421e-06
4.49236e-07
8.27988e-06
-2.45593e-07
8.31913e-06
6.74415e-08
8.32779e-06
4.67676e-07
8.29407e-06
-7.92035e-08
8.30132e-06
-6.52064e-09
8.29993e-06
2.94974e-07
8.28034e-06
1.18924e-07
8.30467e-06
2.06472e-07
8.32929e-06
4.26587e-07
8.32311e-06
2.69029e-07
8.3374e-06
1.74232e-07
8.35514e-06
2.38102e-07
8.34217e-06
1.71719e-07
8.32855e-06
5.31819e-08
8.33165e-06
4.50958e-08
8.32924e-06
6.75419e-08
8.31519e-06
4.69155e-08
8.30558e-06
1.98133e-08
2.82917e-08
8.30422e-06
8.74076e-06
4.10135e-07
8.67921e-06
-1.84043e-07
8.71335e-06
3.33032e-08
8.72813e-06
4.52892e-07
8.69076e-06
-4.18296e-08
8.6976e-06
-1.33651e-08
8.70087e-06
2.91708e-07
8.67926e-06
1.40537e-07
8.70025e-06
1.85476e-07
8.72724e-06
3.996e-07
8.72135e-06
2.74921e-07
8.73037e-06
1.65209e-07
8.74966e-06
2.18815e-07
8.74066e-06
1.80724e-07
8.72531e-06
6.85278e-08
8.72568e-06
4.47245e-08
8.72638e-06
6.68409e-08
8.71549e-06
5.78027e-08
8.70481e-06
3.04951e-08
3.11249e-08
8.70198e-06
9.15593e-06
3.71822e-07
9.09793e-06
-1.26038e-07
9.1261e-06
5.12912e-09
9.14704e-06
4.3195e-07
9.1074e-06
-2.18533e-09
9.11195e-06
-1.79147e-08
9.12036e-06
2.83292e-07
9.09788e-06
1.63025e-07
9.11394e-06
1.69413e-07
9.1426e-06
3.70941e-07
9.13805e-06
2.79468e-07
9.14179e-06
1.61472e-07
9.16162e-06
1.98983e-07
9.15749e-06
1.84849e-07
9.14192e-06
8.41039e-08
9.13912e-06
4.75275e-08
9.14147e-06
6.44861e-08
9.13406e-06
6.52122e-08
9.12362e-06
4.09374e-08
3.55751e-08
9.11917e-06
9.59057e-06
3.3471e-07
9.53702e-06
-7.2486e-08
9.55835e-06
-1.6201e-08
9.5852e-06
4.05103e-07
9.54506e-06
3.79546e-08
9.54538e-06
-1.8236e-08
9.55859e-06
2.70085e-07
9.5368e-06
1.84814e-07
9.54663e-06
1.59582e-07
9.57609e-06
3.41481e-07
9.5743e-06
2.81258e-07
9.57355e-06
1.62221e-07
9.59238e-06
1.80147e-07
9.59341e-06
1.83821e-07
9.57908e-06
9.84358e-08
9.5733e-06
5.33041e-08
9.5758e-06
6.19889e-08
9.57158e-06
6.94369e-08
9.56244e-06
5.00735e-08
4.11922e-08
9.55682e-06
1.00456e-05
2.99216e-07
9.99744e-06
-2.42974e-08
1.00112e-05
-2.9951e-08
1.00431e-05
3.73179e-07
1.00047e-05
7.63396e-08
9.99893e-06
-1.24323e-08
1.00157e-05
2.53279e-07
9.99672e-06
2.03831e-07
1.00004e-05
1.5591e-07
1.00295e-05
3.12417e-07
1.00315e-05
2.79177e-07
1.0028e-05
1.65804e-07
1.00438e-05
1.64263e-07
1.00493e-05
1.78348e-07
1.00374e-05
1.10378e-07
1.00294e-05
6.13042e-08
1.00308e-05
6.0512e-08
1.00291e-05
7.11594e-08
1.00219e-05
5.7328e-08
4.72673e-08
1.00158e-05
1.05221e-05
2.65733e-07
1.048e-05
1.77824e-08
1.0486e-05
-3.58633e-08
1.05215e-05
3.37635e-07
1.0487e-05
1.10845e-07
1.04743e-05
2.40842e-10
1.04932e-05
2.34408e-07
1.04785e-05
2.18492e-07
1.04776e-05
1.56857e-07
1.05046e-05
2.85412e-07
1.05107e-05
2.73094e-07
1.05057e-05
1.7078e-07
1.05179e-05
1.52091e-07
1.05261e-05
1.70116e-07
1.05175e-05
1.19026e-07
1.05083e-05
7.04626e-08
1.0508e-05
6.07761e-08
1.05079e-05
7.12977e-08
1.05027e-05
6.25533e-08
5.30569e-08
1.04969e-05
1.10211e-05
2.34607e-07
1.09857e-05
5.32569e-08
1.09843e-05
-3.45213e-08
1.10213e-05
3.00627e-07
1.09928e-05
1.3941e-07
1.09743e-05
1.86991e-08
1.0993e-05
2.15747e-07
1.09832e-05
2.28216e-07
1.09792e-05
1.60867e-07
1.10031e-05
2.61573e-07
1.10124e-05
2.63724e-07
1.10075e-05
1.75749e-07
1.10158e-05
1.43771e-07
1.10252e-05
1.60722e-07
1.102e-05
1.2421e-07
1.10108e-05
7.96809e-08
1.10088e-05
6.2748e-08
1.10092e-05
7.09272e-08
1.10059e-05
6.5876e-08
5.79864e-08
1.10009e-05
1.15439e-05
2.06081e-07
1.15152e-05
8.19916e-08
1.15078e-05
-2.71551e-08
1.1544e-05
2.64415e-07
1.15227e-05
1.60731e-07
1.15004e-05
4.09499e-08
1.15168e-05
1.99412e-07
1.15118e-05
2.33178e-07
1.15061e-05
1.66585e-07
1.15261e-05
2.41571e-07
1.15379e-05
2.51958e-07
1.15339e-05
1.79705e-07
1.15388e-05
1.38852e-07
1.15481e-05
1.51472e-07
1.15459e-05
1.26326e-07
1.15377e-05
8.79775e-08
1.15343e-05
6.60854e-08
1.15345e-05
7.07637e-08
1.15326e-05
6.77429e-08
6.17696e-08
1.15288e-05
1.20916e-05
1.80312e-07
1.20694e-05
1.04176e-07
1.20575e-05
-1.52727e-08
1.20911e-05
2.30846e-07
1.20771e-05
1.74689e-07
1.20533e-05
6.47602e-08
1.20663e-05
1.86477e-07
1.20652e-05
2.34252e-07
1.20589e-05
1.72904e-07
1.20749e-05
2.25545e-07
1.2088e-05
2.38822e-07
1.20857e-05
1.82058e-07
1.2088e-05
1.36518e-07
1.20962e-05
1.43307e-07
1.20965e-05
1.25999e-07
1.20897e-05
9.47632e-08
1.20855e-05
7.03071e-08
1.20852e-05
7.10182e-08
1.20842e-05
6.87807e-08
6.43728e-08
1.20816e-05
1.26655e-05
1.57366e-07
1.26495e-05
1.20197e-07
1.26347e-05
-4.57399e-10
1.26642e-05
2.01335e-07
1.2657e-05
1.81932e-07
1.26338e-05
8.79513e-08
1.26429e-05
1.77349e-07
1.26445e-05
2.32699e-07
1.26384e-05
1.78967e-07
1.26507e-05
2.13194e-07
1.26643e-05
2.25295e-07
1.26638e-05
1.82545e-07
1.26644e-05
1.35858e-07
1.2671e-05
1.3672e-07
1.2673e-05
1.24052e-07
1.2668e-05
9.97652e-08
1.26635e-05
7.48284e-08
1.26627e-05
7.1727e-08
1.26621e-05
6.93988e-08
6.61177e-08
1.26604e-05
1.32671e-05
1.37206e-07
1.32567e-05
1.30626e-07
1.32404e-05
1.57793e-08
1.32651e-05
1.76652e-07
1.32633e-05
1.83782e-07
1.32422e-05
1.09006e-07
1.32479e-05
1.71647e-07
1.32509e-05
2.29701e-07
1.32456e-05
1.8426e-07
1.32548e-05
2.03988e-07
1.3268e-05
2.12131e-07
1.32694e-05
1.81165e-07
1.32691e-05
1.36101e-07
1.3274e-05
1.31822e-07
1.32768e-05
1.21228e-07
1.32737e-05
1.02953e-07
1.32694e-05
7.91292e-08
1.32681e-05
7.29497e-08
1.32679e-05
6.96489e-08
6.73922e-08
1.32666e-05
1.38977e-05
1.19701e-07
1.38922e-05
1.36101e-07
1.38757e-05
3.22477e-08
1.38954e-05
1.56995e-07
1.38974e-05
1.81773e-07
1.38793e-05
1.27142e-07
1.38822e-05
1.68696e-07
1.38859e-05
2.2604e-07
1.38816e-05
1.88493e-07
1.38883e-05
1.9729e-07
1.39006e-05
1.99849e-07
1.39036e-05
1.78129e-07
1.39032e-05
1.36519e-07
1.39066e-05
1.28459e-07
1.39096e-05
1.182e-07
1.3908e-05
1.04567e-07
1.39044e-05
8.27806e-08
1.39027e-05
7.46195e-08
1.39027e-05
6.96029e-08
6.82417e-08
1.39019e-05
1.45587e-05
1.04636e-07
1.4557e-05
1.37856e-07
1.4541e-05
4.82128e-08
1.45564e-05
1.41557e-07
1.45611e-05
1.77128e-07
1.45458e-05
1.42453e-07
1.45467e-05
1.67797e-07
1.45508e-05
2.21907e-07
1.45477e-05
1.91566e-07
1.45525e-05
1.92549e-07
1.45636e-05
1.88757e-07
1.45679e-05
1.73801e-07
1.45679e-05
1.36485e-07
1.45701e-05
1.26322e-07
1.45729e-05
1.15385e-07
1.45724e-05
1.05034e-07
1.45698e-05
8.54156e-08
1.45679e-05
7.6538e-08
1.4568e-05
6.94646e-08
6.85876e-08
1.45677e-05
1.52516e-05
9.19463e-08
1.52501e-05
1.39354e-07
1.52374e-05
6.08547e-08
1.52503e-05
1.28641e-07
1.52558e-05
1.71704e-07
1.52423e-05
1.55961e-07
1.52422e-05
1.67832e-07
1.52473e-05
2.16794e-07
1.52457e-05
1.932e-07
1.52489e-05
1.89383e-07
1.52584e-05
1.79216e-07
1.52636e-05
1.6857e-07
1.52644e-05
1.35707e-07
1.52659e-05
1.24872e-07
1.52682e-05
1.13068e-07
1.52685e-05
1.04716e-07
1.52669e-05
8.7025e-08
1.52651e-05
7.83295e-08
1.5265e-05
6.95389e-08
6.83345e-08
1.52653e-05
1.59788e-05
8.04941e-08
1.59912e-05
1.2689e-07
1.59817e-05
7.03834e-08
1.59821e-05
1.28301e-07
1.59811e-05
1.72623e-07
1.59699e-05
1.67216e-07
1.59702e-05
1.67511e-07
1.59766e-05
2.1041e-07
1.59767e-05
1.93076e-07
1.59788e-05
1.87321e-07
1.59866e-05
1.71431e-07
1.59924e-05
1.62713e-07
1.5994e-05
1.34129e-07
1.59954e-05
1.23511e-07
1.59973e-05
1.11082e-07
1.5998e-05
1.04108e-07
1.59972e-05
8.7734e-08
1.59959e-05
7.96518e-08
1.59956e-05
6.98728e-08
6.76847e-08
1.59962e-05
1.67392e-05
7.18529e-08
1.67365e-05
1.29649e-07
1.67267e-05
8.02068e-08
1.67323e-05
1.22662e-07
1.67393e-05
1.65672e-07
1.67328e-05
1.73704e-07
1.67336e-05
1.66675e-07
1.67409e-05
2.03154e-07
1.6743e-05
1.90971e-07
1.67443e-05
1.85962e-07
1.67502e-05
1.65535e-07
1.67559e-05
1.56993e-07
1.67584e-05
1.31614e-07
1.67599e-05
1.22084e-07
1.67618e-05
1.09126e-07
1.67625e-05
1.034e-07
1.67624e-05
8.79019e-08
1.67618e-05
8.02178e-08
1.67613e-05
7.03294e-08
6.69359e-08
1.67621e-05
1.75379e-05
6.42626e-08
1.75442e-05
1.23395e-07
1.75325e-05
9.18633e-08
1.75309e-05
1.24272e-07
1.7536e-05
1.60641e-07
1.7532e-05
1.77669e-07
1.75329e-05
1.65747e-07
1.75408e-05
1.95308e-07
1.75449e-05
1.86881e-07
1.75463e-05
1.84481e-07
1.75507e-05
1.6115e-07
1.75558e-05
1.51928e-07
1.75591e-05
1.28266e-07
1.75609e-05
1.20319e-07
1.7563e-05
1.07014e-07
1.75641e-05
1.02317e-07
1.75641e-05
8.79203e-08
1.75642e-05
8.00922e-08
1.7564e-05
7.05948e-08
6.62615e-08
1.75646e-05
1.83741e-05
5.84937e-08
1.83757e-05
1.21817e-07
1.83682e-05
9.9368e-08
1.83679e-05
1.24589e-07
1.8373e-05
1.55516e-07
1.83706e-05
1.80045e-07
1.8371e-05
1.65408e-07
1.83789e-05
1.87378e-07
1.83848e-05
1.80982e-07
1.83871e-05
1.82178e-07
1.83902e-05
1.58026e-07
1.83943e-05
1.47824e-07
1.83979e-05
1.24726e-07
1.84003e-05
1.17885e-07
1.84025e-05
1.04842e-07
1.84041e-05
1.00651e-07
1.84044e-05
8.76709e-08
1.84047e-05
7.97526e-08
1.84051e-05
7.02054e-08
6.57809e-08
1.84056e-05
1.9251e-05
5.38417e-08
1.92551e-05
1.17787e-07
1.92477e-05
1.06717e-07
1.92461e-05
1.26229e-07
1.92511e-05
1.50522e-07
1.92501e-05
1.80984e-07
1.92498e-05
1.65785e-07
1.92565e-05
1.80599e-07
1.92638e-05