/*--------------------------------*- C++ -*----------------------------------*\
| =========                 |                                                 |
| \\      /  F ield         | OpenFOAM: The Open Source CFD Toolbox           |
|  \\    /   O peration     | Version:  v1906                                 |
|   \\  /    A nd           | Web:      www.OpenFOAM.com                      |
|    \\/     M anipulation  |                                                 |
\*---------------------------------------------------------------------------*/
FoamFile
{
    version     2.0;
    format      ascii;
    class       volVectorField;
    location    "9.1";
    object      U;
}
// * * * * * * * * * * * * * * * * * * * * * * * * * * * * * * * * * * * * * //

dimensions      [0 1 -1 0 0 0 0];


internalField   nonuniform List<vector> 
9600
(
(0.980996 0.014497 0)
(1.05596 -0.0266096 0)
(0.905151 0.019794 0)
(1.06933 0.00319732 0)
(0.931122 -0.00681129 0)
(0.983567 -0.0137055 0)
(0.951439 0.0211498 0)
(1.10766 -0.0241686 0)
(0.807265 0.0301449 0)
(1.18398 0.0153811 0)
(0.754726 0.0130005 0)
(1.15138 0.0243633 0)
(0.809313 0.00357463 0)
(1.06275 0.011401 0)
(0.873435 -0.00872983 0)
(1.04294 -0.0088403 0)
(0.876867 -0.0172121 0)
(1.05634 -0.0192949 0)
(0.865592 -0.0101626 0)
(1.08702 -0.0226656 0)
(0.982089 0.0142323 0)
(1.05142 -0.0258372 0)
(0.90753 0.0197374 0)
(1.06021 0.00315909 0)
(0.936127 -0.00608692 0)
(0.979344 -0.0138 0)
(0.953294 0.019687 0)
(1.09924 -0.0219956 0)
(0.812101 0.0294572 0)
(1.1667 0.0167609 0)
(0.781701 0.0132634 0)
(1.11384 0.0238593 0)
(0.871732 0.00530743 0)
(1.01408 0.0103769 0)
(0.93762 -0.00818547 0)
(0.99224 -0.00901164 0)
(0.952914 -0.0171409 0)
(0.981957 -0.0196936 0)
(0.965197 -0.00998779 0)
(0.977709 -0.0245746 0)
(0.984263 0.0139714 0)
(1.04551 -0.0252468 0)
(0.913255 0.019523 0)
(1.04604 0.0030577 0)
(0.946138 -0.00548032 0)
(0.973166 -0.0139458 0)
(0.956739 0.0182071 0)
(1.08705 -0.0202171 0)
(0.828228 0.028152 0)
(1.1299 0.0175813 0)
(0.834446 0.0136583 0)
(1.0497 0.0227383 0)
(0.92864 0.00677522 0)
(0.975627 0.00920889 0)
(0.961096 -0.00791056 0)
(0.973387 -0.00956263 0)
(0.965135 -0.0169294 0)
(0.967116 -0.0198216 0)
(0.971196 -0.0110217 0)
(0.973971 -0.0211354 0)
(0.987505 0.0137532 0)
(1.03809 -0.0246423 0)
(0.922112 0.0193324 0)
(1.03053 0.00289687 0)
(0.95924 -0.00495139 0)
(0.967727 -0.0139917 0)
(0.961001 0.0169953 0)
(1.0724 -0.0186498 0)
(0.855609 0.0271789 0)
(1.08551 0.0175773 0)
(0.891468 0.0146044 0)
(0.994594 0.0214077 0)
(0.958484 0.00762811 0)
(0.963657 0.00873038 0)
(0.967937 -0.00791973 0)
(0.973045 -0.0098327 0)
(0.969637 -0.0165643 0)
(0.96741 -0.0201936 0)
(0.970467 -0.0109621 0)
(0.973573 -0.020089 0)
(0.991593 0.0135622 0)
(1.02964 -0.0240827 0)
(0.933068 0.0192502 0)
(1.01707 0.00268455 0)
(0.97208 -0.00448062 0)
(0.965433 -0.0139169 0)
(0.96516 0.0158637 0)
(1.05739 -0.0174335 0)
(0.888137 0.0268305 0)
(1.04698 0.0172326 0)
(0.935534 0.0158085 0)
(0.967437 0.0205518 0)
(0.971651 0.00792481 0)
(0.968049 0.00849704 0)
(0.975727 -0.00793091 0)
(0.977603 -0.0100843 0)
(0.976706 -0.0162093 0)
(0.970917 -0.0202289 0)
(0.97225 -0.0110547 0)
(0.974262 -0.0193603 0)
(0.996138 0.0133929 0)
(1.02083 -0.023558 0)
(0.94472 0.0192345 0)
(1.00793 0.0024456 0)
(0.982255 -0.00408421 0)
(0.966879 -0.0137554 0)
(0.969038 0.0148135 0)
(1.04359 -0.0165338 0)
(0.918189 0.0268941 0)
(1.02127 0.0168097 0)
(0.963355 0.0168159 0)
(0.963864 0.0201865 0)
(0.98034 0.00784683 0)
(0.977921 0.00821757 0)
(0.985419 -0.00784489 0)
(0.98408 -0.0103192 0)
(0.983045 -0.0158132 0)
(0.976116 -0.0200467 0)
(0.974557 -0.0112004 0)
(0.975623 -0.0185725 0)
(1.00069 0.0132491 0)
(1.0124 -0.0230691 0)
(0.95585 0.0192069 0)
(1.00353 0.00222887 0)
(0.989271 -0.00377105 0)
(0.970805 -0.0135381 0)
(0.973282 0.0139188 0)
(1.03154 -0.0158979 0)
(0.940891 0.0270793 0)
(1.00775 0.0164224 0)
(0.979447 0.0174547 0)
(0.971363 0.0200262 0)
(0.98902 0.00762715 0)
(0.988247 0.00789631 0)
(0.994434 -0.00769009 0)
(0.991075 -0.010461 0)
(0.9885 -0.015354 0)
(0.981245 -0.0197409 0)
(0.977418 -0.0112878 0)
(0.977065 -0.0176757 0)
(1.00483 0.0131307 0)
(1.00502 -0.0226143 0)
(0.965751 0.0191215 0)
(1.00283 0.00205606 0)
(0.993903 -0.00352615 0)
(0.975375 -0.0132952 0)
(0.978556 0.0131957 0)
(1.02107 -0.0154347 0)
(0.955517 0.0272387 0)
(1.00213 0.0161028 0)
(0.988943 0.017762 0)
(0.981163 0.0199057 0)
(0.997409 0.00739126 0)
(0.99733 0.00756667 0)
(1.00191 -0.00747754 0)
(0.997453 -0.0104885 0)
(0.993627 -0.0148469 0)
(0.985949 -0.0193431 0)
(0.980682 -0.0112834 0)
(0.978943 -0.0166339 0)
(1.00824 0.0130333 0)
(0.999208 -0.0221896 0)
(0.9742 0.0189591 0)
(1.00434 0.00193485 0)
(0.997132 -0.00331863 0)
(0.979349 -0.0130594 0)
(0.984755 0.0126345 0)
(1.01197 -0.0150333 0)
(0.964085 0.0272943 0)
(1.00034 0.0158364 0)
(0.994963 0.0178252 0)
(0.989865 0.0197804 0)
(1.00462 0.00716645 0)
(1.00477 0.0072407 0)
(1.00793 -0.00719674 0)
(1.00279 -0.0104302 0)
(0.998267 -0.0143424 0)
(0.990337 -0.018822 0)
(0.984057 -0.0111752 0)
(0.981296 -0.0155081 0)
(1.01069 0.0129508 0)
(0.995204 -0.021791 0)
(0.981217 0.0187118 0)
(1.00675 0.00186628 0)
(0.999595 -0.00312488 0)
(0.982323 -0.0128538 0)
(0.991018 0.0122204 0)
(1.0044 -0.0146173 0)
(0.969191 0.0272066 0)
(1.00004 0.0155951 0)
(0.99909 0.0176951 0)
(0.996993 0.0196306 0)
(1.01047 0.00694453 0)
(1.01065 0.00694138 0)
(1.0126 -0.00685842 0)
(1.00694 -0.0103255 0)
(1.00206 -0.0138313 0)
(0.994209 -0.0181751 0)
(0.987266 -0.0109903 0)
(0.983806 -0.0143878 0)
(1.01207 0.0128759 0)
(0.993012 -0.0214154 0)
(0.986836 0.0183829 0)
(1.00918 0.00184861 0)
(1.00159 -0.00293371 0)
(0.984377 -0.0126834 0)
(0.996315 0.0119269 0)
(0.998775 -0.0141569 0)
(0.97271 0.0269668 0)
(1.00047 0.015369 0)
(1.00229 0.017405 0)
(1.00291 0.0194463 0)
(1.01516 0.00673084 0)
(1.01512 0.00668356 0)
(1.01596 -0.0064915 0)
(1.00983 -0.0101654 0)
(1.00478 -0.0132934 0)
(0.99725 -0.0174638 0)
(0.99001 -0.0107681 0)
(0.986126 -0.013287 0)
(1.01242 0.0128018 0)
(0.992417 -0.0210598 0)
(0.991006 0.0179876 0)
(1.01108 0.00187582 0)
(1.00326 -0.00273784 0)
(0.985712 -0.0125366 0)
(0.999968 0.0117165 0)
(0.995265 -0.0136531 0)
(0.9756 0.0265858 0)
(1.00159 0.0151666 0)
(1.0052 0.0169717 0)
(1.0078 0.0192389 0)
(1.01888 0.00654911 0)
(1.01823 0.0064749 0)
(1.01805 -0.00610248 0)
(1.01154 -0.00992718 0)
(1.00638 -0.0127585 0)
(0.9993 -0.016737 0)
(0.99207 -0.0105065 0)
(0.988018 -0.0121923 0)
(1.01194 0.0127223 0)
(0.99304 -0.0207187 0)
(0.993669 0.0175472 0)
(1.01215 0.00193806 0)
(1.00471 -0.00253433 0)
(0.986515 -0.012389 0)
(1.00183 0.0115447 0)
(0.993606 -0.0131153 0)
(0.978178 0.0260822 0)
(1.0033 0.0149839 0)
(1.00797 0.016423 0)
(1.01145 0.0190256 0)
(1.02155 0.00639937 0)
(1.02003 0.00632037 0)
(1.01904 -0.00568157 0)
(1.01231 -0.00963022 0)
(1.00706 -0.0122465 0)
(1.00045 -0.0160105 0)
(0.993432 -0.0101809 0)
(0.989401 -0.0111339 0)
(1.0109 0.0126328 0)
(0.994429 -0.0203841 0)
(0.994917 0.0170826 0)
(1.01233 0.00202074 0)
(1.006 -0.00232955 0)
(0.98697 -0.0122168 0)
(1.00225 0.0113751 0)
(0.993175 -0.0125566 0)
(0.980439 0.0254671 0)
(1.00516 0.0148088 0)
(1.0103 0.0158042 0)
(1.01351 0.0188231 0)
(1.02305 0.00627806 0)
(1.02068 0.00622225 0)
(1.01917 -0.00522937 0)
(1.01251 -0.00930063 0)
(1.00719 -0.0117249 0)
(1.00099 -0.0153084 0)
(0.994283 -0.0098035 0)
(0.990343 -0.0101526 0)
(1.00963 0.0125303 0)
(0.996155 -0.0200466 0)
(0.99506 0.0166105 0)
(1.01177 0.00210961 0)
(1.00716 -0.00213543 0)
(0.98727 -0.0120025 0)
(1.0018 0.0111852 0)
(0.993299 -0.011991 0)
(0.982302 0.0247529 0)
(1.0066 0.0146484 0)
(1.01177 0.0151536 0)
(1.01394 0.018647 0)
(1.02336 0.00618358 0)
(1.02047 0.00617389 0)
(1.01878 -0.0047704 0)
(1.01243 -0.00895673 0)
(1.00712 -0.0111467 0)
(1.00124 -0.014651 0)
(0.994893 -0.00941888 0)
(0.991012 -0.00923935 0)
(1.00836 0.0124134 0)
(0.997895 -0.0196978 0)
(0.99455 0.0161417 0)
(1.01073 0.00219391 0)
(1.00814 -0.00196154 0)
(0.987578 -0.0117337 0)
(1.00106 0.010966 0)
(0.993534 -0.0114226 0)
(0.983732 0.0239633 0)
(1.00728 0.0145184 0)
(1.01225 0.0145044 0)
(1.01309 0.0184977 0)
(1.0227 0.00609818 0)
(1.01974 0.00612892 0)
(1.01812 -0.00431815 0)
(1.01224 -0.00861766 0)
(1.00707 -0.0105209 0)
(1.00143 -0.0140214 0)
(0.995464 -0.00903759 0)
(0.99157 -0.00836325 0)
(1.00722 0.0122814 0)
(0.999465 -0.0193306 0)
(0.993798 0.0156804 0)
(1.00952 0.00226853 0)
(1.0089 -0.00181472 0)
(0.987969 -0.0114089 0)
(1.00033 0.0107182 0)
(0.993743 -0.0108442 0)
(0.984725 0.0231137 0)
(1.00719 0.0144428 0)
(1.01191 0.0138601 0)
(1.01154 0.0183673 0)
(1.02147 0.0060034 0)
(1.01874 0.00607069 0)
(1.01736 -0.00385054 0)
(1.01199 -0.00831499 0)
(1.00706 -0.00985157 0)
(1.00165 -0.0133966 0)
(0.996071 -0.00867101 0)
(0.992104 -0.00751208 0)
(1.00626 0.0121344 0)
(1.00079 -0.0189412 0)
(0.993064 0.0152266 0)
(1.00834 0.00233251 0)
(1.0094 -0.00169824 0)
(0.988428 -0.0110301 0)
(0.999669 0.0104439 0)
(0.993975 -0.0102453 0)
(0.985303 0.0222187 0)
(1.00651 0.0144223 0)
(1.01115 0.0132225 0)
(1.00976 0.018243 0)
(1.02001 0.0058894 0)
(1.01764 0.00597734 0)
(1.01655 -0.00336712 0)
(1.01169 -0.00806856 0)
(1.00704 -0.00914562 0)
(1.00186 -0.0127595 0)
(0.9967 -0.00834841 0)
(0.992626 -0.00666652 0)
(1.00548 0.011973 0)
(1.00185 -0.0185283 0)
(0.992468 0.0147772 0)
(1.00729 0.00238912 0)
(1.00967 -0.00161365 0)
(0.988894 -0.0105986 0)
(0.999051 0.0101435 0)
(0.994296 -0.00961862 0)
(0.985556 0.0212937 0)
(1.00547 0.0144439 0)
(1.01032 0.0125915 0)
(1.00808 0.0181103 0)
(1.01857 0.00578051 0)
(1.01657 0.00581091 0)
(1.0157 -0.00286296 0)
(1.01134 -0.00787522 0)
(1.00698 -0.00844019 0)
(1.00203 -0.0120791 0)
(0.997312 -0.0080836 0)
(0.993121 -0.00583589 0)
(1.00486 0.011798 0)
(1.00265 -0.0180909 0)
(0.992052 0.0143274 0)
(1.0064 0.00244606 0)
(1.00975 -0.00156197 0)
(0.989314 -0.0101207 0)
(0.998482 0.00981618 0)
(0.994701 -0.00895919 0)
(0.985649 0.0203446 0)
(1.00431 0.0145024 0)
(1.00962 0.0119528 0)
(1.00668 0.0179643 0)
(1.01727 0.00568902 0)
(1.01563 0.00558013 0)
(1.01485 -0.00231199 0)
(1.01096 -0.00772779 0)
(1.00688 -0.0077556 0)
(1.00214 -0.0113219 0)
(0.99788 -0.00790267 0)
(0.993588 -0.00506163 0)
(1.00438 0.0116099 0)
(1.00323 -0.017629 0)
(0.991829 0.0138726 0)
(1.00566 0.00250817 0)
(1.00969 -0.00153996 0)
(0.98967 -0.00960141 0)
(0.998004 0.0094602 0)
(0.995145 -0.00826734 0)
(0.985756 0.019383 0)
(1.00323 0.0145831 0)
(1.00913 0.0113092 0)
(1.00561 0.0177899 0)
(1.01615 0.00562542 0)
(1.01486 0.00528084 0)
(1.01403 -0.00172565 0)
(1.01061 -0.00758902 0)
(1.00675 -0.0071293 0)
(1.00218 -0.0104805 0)
(0.998392 -0.00778102 0)
(0.994048 -0.00437223 0)
(1.00401 0.0114096 0)
(1.00364 -0.0171439 0)
(0.991781 0.0134087 0)
(1.00506 0.00257914 0)
(1.00953 -0.00154418 0)
(0.989976 -0.00904107 0)
(0.997642 0.00907044 0)
(0.995592 -0.00754614 0)
(0.985981 0.0184145 0)
(1.00235 0.0146752 0)
(1.00884 0.0106674 0)
(1.00489 0.0175681 0)
(1.0152 0.00560715 0)
(1.01428 0.00491796 0)
(1.01327 -0.00112715 0)
(1.01028 -0.00741492 0)
(1.00663 -0.00659799 0)
(1.0022 -0.00955243 0)
(0.998852 -0.00766669 0)
(0.994527 -0.0038055 0)
(1.00372 0.011198 0)
(1.00392 -0.0166374 0)
(0.991871 0.0129337 0)
(1.00458 0.00266304 0)
(1.00929 -0.0015709 0)
(0.990263 -0.00844863 0)
(0.997381 0.00865313 0)
(0.99603 -0.00680338 0)
(0.986333 0.0174398 0)
(1.00171 0.014768 0)
(1.00868 0.0100363 0)
(1.00446 0.017286 0)
(1.01439 0.00565546 0)
(1.01387 0.00449347 0)
(1.01256 -0.000516182 0)
(1.01 -0.00718319 0)
(1.00652 -0.00618332 0)
(1.0022 -0.00853788 0)
(0.999261 -0.0075214 0)
(0.995049 -0.00341041 0)
(1.00347 0.010975 0)
(1.00412 -0.0161095 0)
(0.992054 0.0124437 0)
(1.00419 0.00276619 0)
(1.009 -0.00161896 0)
(0.990563 -0.00782931 0)
(0.997181 0.00820909 0)
(0.996468 -0.00603984 0)
(0.986774 0.0164618 0)
(1.00127 0.0148477 0)
(1.00859 0.00943452 0)
(1.00422 0.0169336 0)
(1.01367 0.0057754 0)
(1.01358 0.00402593 0)
(1.01188 7.29053e-05 0)
(1.00976 -0.00687067 0)
(1.00643 -0.00588632 0)
(1.00222 -0.0074822 0)
(0.999617 -0.00727742 0)
(0.995629 -0.00319089 0)
(1.00326 0.0107404 0)
(1.00428 -0.0155607 0)
(0.992293 0.0119364 0)
(1.00387 0.00289018 0)
(1.00866 -0.00168702 0)
(0.990901 -0.00718573 0)
(0.997008 0.00774142 0)
(0.996909 -0.00526881 0)
(0.987254 0.0154889 0)
(1.00097 0.0149052 0)
(1.00853 0.00887124 0)
(1.00412 0.0164989 0)
(1.01298 0.00595868 0)
(1.01338 0.00353553 0)
(1.01123 0.000596089 0)
(1.00954 -0.00645173 0)
(1.00639 -0.00569151 0)
(1.00226 -0.0064423 0)
(0.999917 -0.00689343 0)
(0.996266 -0.00312212 0)
(1.00307 0.0104946 0)
(1.00439 -0.0149927 0)
(0.992561 0.0114122 0)
(1.0036 0.00303562 0)
(1.0083 -0.00177318 0)
(0.991289 -0.00652348 0)
(0.996842 0.00726027 0)
(0.997349 -0.00450278 0)
(0.987743 0.0145296 0)
(1.00075 0.0149285 0)
(1.00846 0.00836641 0)
(1.00408 0.0159922 0)
(1.01229 0.00619587 0)
(1.01323 0.00303729 0)
(1.01062 0.00108053 0)
(1.00931 -0.00591381 0)
(1.00639 -0.0055826 0)
(1.00233 -0.00548256 0)
(1.00015 -0.00634901 0)
(0.996946 -0.00316219 0)
(1.0029 0.0102376 0)
(1.00448 -0.0144043 0)
(0.992848 0.0108669 0)
(1.00335 0.00320521 0)
(1.00794 -0.00187572 0)
(0.991722 -0.00584996 0)
(0.996687 0.00677892 0)
(0.997773 -0.00375422 0)
(0.988236 0.0136 0)
(1.00055 0.0148997 0)
(1.00837 0.00793071 0)
(1.00407 0.0154179 0)
(1.01159 0.00646827 0)
(1.0131 0.00257607 0)
(1.01006 0.00150166 0)
(1.00904 -0.00527626 0)
(1.00644 -0.00550754 0)
(1.00244 -0.0046401 0)
(1.00033 -0.00563201 0)
(0.997638 -0.00323621 0)
(1.00273 0.00996884 0)
(1.00453 -0.0137957 0)
(0.993149 0.0103042 0)
(1.00312 0.00339497 0)
(1.00759 -0.00199407 0)
(0.992183 -0.00516652 0)
(0.996553 0.00630553 0)
(0.998166 -0.00303927 0)
(0.988739 0.0127206 0)
(1.00035 0.0147998 0)
(1.00826 0.00755788 0)
(1.00406 0.0147699 0)
(1.01087 0.00677081 0)
(1.01296 0.00215301 0)
(1.00954 0.00180526 0)
(1.00873 -0.00454149 0)
(1.00651 -0.00542248 0)
(1.00262 -0.00395093 0)
(1.00045 -0.00478663 0)
(0.998301 -0.00325131 0)
(1.00258 0.00968852 0)
(1.00456 -0.0131681 0)
(0.993465 0.00972313 0)
(1.0029 0.00360605 0)
(1.00728 -0.0021264 0)
(0.992651 -0.00448121 0)
(0.996457 0.00584608 0)
(0.998518 -0.00235718 0)
(0.989264 0.011894 0)
(1.00012 0.014639 0)
(1.00813 0.00724298 0)
(1.00405 0.0140665 0)
(1.01015 0.00707594 0)
(1.01279 0.00178958 0)
(1.0091 0.00200028 0)
(1.00836 -0.00371662 0)
(1.00658 -0.00530431 0)
(1.00285 -0.00344991 0)
(1.00053 -0.00388531 0)
(0.998896 -0.00313293 0)
(1.00244 0.00939749 0)
(1.00455 -0.0125204 0)
(0.993797 0.00912073 0)
(1.00266 0.00383752 0)
(1.007 -0.00226782 0)
(0.993104 -0.00381085 0)
(0.996408 0.00542682 0)
(0.998826 -0.0017415 0)
(0.989824 0.0111406 0)
(0.999881 0.0144189 0)
(1.00799 0.00698592 0)
(1.00404 0.0133297 0)
(1.00941 0.00735723 0)
(1.01257 0.00150889 0)
(1.00873 0.00209456 0)
(1.00794 -0.00285362 0)
(1.00664 -0.00510654 0)
(1.00314 -0.00310659 0)
(1.0006 -0.00300486 0)
(0.999386 -0.00283784 0)
(1.0023 0.00909449 0)
(1.00453 -0.0118526 0)
(0.994147 0.00850031 0)
(1.0024 0.00408534 0)
(1.00675 -0.00241431 0)
(0.99353 -0.00315639 0)
(0.996405 0.00505015 0)
(0.999099 -0.00119646 0)
(0.99042 0.0104646 0)
(0.999638 0.0141341 0)
(1.00786 0.00677925 0)
(1.00403 0.0125825 0)
(1.00868 0.00761777 0)
(1.01232 0.00131284 0)
(1.00844 0.0021051 0)
(1.00748 -0.00197787 0)
(1.00665 -0.0048 0)
(1.00349 -0.00289187 0)
(1.00068 -0.00221526 0)
(0.999752 -0.00233051 0)
(1.00217 0.0087811 0)
(1.00449 -0.0111685 0)
(0.994516 0.00786508 0)
(1.00213 0.00434216 0)
(1.00653 -0.00255174 0)
(0.993924 -0.00252675 0)
(0.99644 0.00473545 0)
(0.999349 -0.000726005 0)
(0.991049 0.0098622 0)
(0.999405 0.013805 0)
(1.00772 0.00660383 0)
(1.00405 0.0118243 0)
(1.00796 0.00785516 0)
(1.01201 0.00121088 0)
(1.00823 0.00202904 0)
(1.007 -0.00111187 0)
(1.00661 -0.00436822 0)
(1.00387 -0.00277955 0)
(1.00082 -0.00157456 0)
(1 -0.00168033 0)
(1.00204 0.00845635 0)
(1.00445 -0.0104656 0)
(0.994904 0.00721361 0)
(1.00185 0.00461047 0)
(1.00633 -0.00268194 0)
(0.994294 -0.0019387 0)
(0.996499 0.00449364 0)
(0.999588 -0.000340609 0)
(0.991704 0.00931884 0)
(0.999192 0.0134418 0)
(1.00759 0.00644677 0)
(1.0041 0.0110791 0)
(1.00727 0.00805834 0)
(1.01166 0.00119957 0)
(1.00811 0.00187667 0)
(1.00653 -0.000303346 0)
(1.00649 -0.00381501 0)
(1.00427 -0.00271815 0)
(1.00105 -0.00109733 0)
(1.00017 -0.00099936 0)
(1.00191 0.00812063 0)
(1.00439 -0.0097466 0)
(0.995311 0.00654984 0)
(1.00155 0.00488231 0)
(1.00613 -0.00279485 0)
(0.994649 -0.00140193 0)
(0.996568 0.00432517 0)
(0.999825 -3.1243e-05 0)
(0.992378 0.00881666 0)
(0.999004 0.0130636 0)
(1.00745 0.00629988 0)
(1.00419 0.0103547 0)
(1.00659 0.00821658 0)
(1.01125 0.00127757 0)
(1.00806 0.00168355 0)
(1.0061 0.000408604 0)
(1.00629 -0.0031471 0)
(1.00465 -0.00263958 0)
(1.00136 -0.000783036 0)
(1.0003 -0.000357738 0)
(1.00178 0.00777389 0)
(1.00432 -0.00901217 0)
(0.995735 0.00587888 0)
(1.00125 0.00514464 0)
(1.00594 -0.00287701 0)
(0.995 -0.000928892 0)
(0.996637 0.00423487 0)
(1.00006 0.000211403 0)
(0.993066 0.00834537 0)
(0.998842 0.0126796 0)
(1.00731 0.0061587 0)
(1.00432 0.00962246 0)
(1.00595 0.00834001 0)
(1.01079 0.0014577 0)
(1.00806 0.00144722 0)
(1.00573 0.00101871 0)
(1.00602 -0.00237678 0)
(1.005 -0.00250295 0)
(1.00175 -0.000611026 0)
(1.00044 0.000193032 0)
(1.00166 0.00741669 0)
(1.00424 -0.00826641 0)
(0.996173 0.00520442 0)
(1.00095 0.00540127 0)
(1.00574 -0.00292103 0)
(0.995359 -0.000539266 0)
(0.996702 0.00422224 0)
(1.0003 0.000410252 0)
(0.993764 0.00787975 0)
(0.998704 0.0122986 0)
(1.00714 0.0060363 0)
(1.00449 0.00889308 0)
(1.00535 0.00842814 0)
(1.01026 0.00172448 0)
(1.00811 0.0011977 0)
(1.00545 0.00152595 0)
(1.00569 -0.00154517 0)
(1.00527 -0.00227425 0)
(1.00222 -0.000521549 0)
(1.00063 0.000619579 0)
(1.00154 0.00705053 0)
(1.00415 -0.00751262 0)
(0.996622 0.00453345 0)
(1.00066 0.00564256 0)
(1.00554 -0.00291165 0)
(0.995733 -0.000234962 0)
(0.996762 0.00428065 0)
(1.00052 0.000577968 0)
(0.99447 0.00741051 0)
(0.99859 0.011939 0)
(1.00695 0.00593951 0)
(1.00469 0.00817686 0)
(1.00481 0.00845453 0)
(1.00967 0.00206999 0)
(1.00818 0.000965707 0)
(1.00527 0.00189787 0)
(1.00532 -0.000691552 0)
(1.00545 -0.00194214 0)
(1.00272 -0.000474466 0)
(1.00092 0.000914459 0)
(1.00143 0.00667431 0)
(1.00404 -0.00675204 0)
(0.997079 0.00387436 0)
(1.00037 0.00585532 0)
(1.00533 -0.0028446 0)
(0.996128 -1.67084e-05 0)
(0.996819 0.00438267 0)
(1.00073 0.000736736 0)
(0.995184 0.00692747 0)
(0.9985 0.0115854 0)
(1.00673 0.0058781 0)
(1.00493 0.00745785 0)
(1.00434 0.00841436 0)
(1.00903 0.00250438 0)
(1.00825 0.00076749 0)
(1.00521 0.00211514 0)
(1.00494 0.000128614 0)
(1.00553 -0.0015027 0)
(1.00322 -0.000423515 0)
(1.00129 0.00110339 0)
(1.00132 0.00629091 0)
(1.00392 -0.00599002 0)
(0.997541 0.00323298 0)
(1.00011 0.00602827 0)
(1.0051 -0.00270723 0)
(0.996543 0.000106773 0)
(0.996878 0.00451827 0)
(1.00092 0.000908002 0)
(0.995904 0.00641176 0)
(0.998441 0.0112343 0)
(1.00646 0.00586494 0)
(1.00518 0.0067583 0)
(1.00396 0.0082874 0)
(1.00834 0.00300483 0)
(1.00829 0.00065105 0)
(1.00525 0.0021746 0)
(1.00458 0.00089276 0)
(1.0055 -0.000945474 0)
(1.0037 -0.00035424 0)
(1.00173 0.00120898 0)
(1.00122 0.00590037 0)
(1.00378 -0.00523192 0)
(0.998002 0.00261725 0)
(0.999863 0.00615325 0)
(1.00486 -0.00248684 0)
(0.996978 0.000145485 0)
(0.996947 0.00466733 0)
(1.00107 0.001103 0)
(0.996628 0.00587423 0)
(0.99842 0.010867 0)
(1.00615 0.00589812 0)
(1.00544 0.00609803 0)
(1.00367 0.00806073 0)
(1.00762 0.00355231 0)
(1.00827 0.000655541 0)
(1.00541 0.00210395 0)
(1.00428 0.00157041 0)
(1.00537 -0.000294315 0)
(1.00411 -0.000239118 0)
(1.00222 0.00127281 0)
(1.00113 0.00550594 0)
(1.00362 -0.00448283 0)
(0.998461 0.00203478 0)
(0.999645 0.00621792 0)
(1.00459 -0.00218639 0)
(0.997429 0.000120285 0)
(0.997031 0.00481052 0)
(1.00118 0.0013424 0)
(0.997349 0.00531938 0)
(0.998446 0.0104581 0)
(1.0058 0.00598553 0)
(1.00569 0.00548779 0)
(1.0035 0.00773657 0)
(1.00689 0.00410521 0)
(1.00817 0.000812587 0)
(1.00565 0.00194642 0)
(1.00408 0.00209832 0)
(1.00516 0.000399665 0)
(1.00444 -3.41654e-05 0)
(1.00273 0.00129912 0)
(1.00104 0.00510732 0)
(1.00345 -0.00374366 0)
(0.998911 0.00149226 0)
(0.99946 0.00621606 0)
(1.00431 -0.00180792 0)
(0.997891 4.65973e-05 0)
(0.997139 0.00492209 0)
(1.00125 0.00163884 0)
(0.998059 0.00476589 0)
(0.998532 0.0100026 0)
(1.00542 0.0061113 0)
(1.00591 0.00496541 0)
(1.00345 0.00731619 0)
(1.00619 0.00462244 0)
(1.00796 0.0011025 0)
(1.00593 0.00175961 0)
(1.004 0.00244391 0)
(1.00489 0.00109296 0)
(1.00465 0.000277124 0)
(1.00325 0.00130061 0)
(1.00097 0.00470904 0)
(1.00326 -0.00302393 0)
(0.999347 0.000994388 0)
(0.999312 0.00614472 0)
(1.004 -0.00135293 0)
(0.998354 -5.23733e-05 0)
(0.99728 0.00497419 0)
(1.00128 0.00198953 0)
(0.998743 0.00425471 0)
(0.998684 0.00948403 0)
(1.005 0.00626393 0)
(1.00609 0.00454719 0)
(1.0035 0.0068243 0)
(1.00555 0.00506264 0)
(1.00765 0.00152362 0)
(1.00621 0.00161148 0)
(1.00405 0.0025998 0)
(1.00463 0.00175612 0)
(1.00475 0.000698663 0)
(1.00372 0.00132693 0)
(1.0009 0.00431274 0)
(1.00305 -0.00232839 0)
(0.999763 0.000559958 0)
(0.999207 0.00598481 0)
(1.00367 -0.000838347 0)
(0.99881 -0.000160731 0)
(0.99746 0.00495142 0)
(1.00126 0.00238845 0)
(0.999387 0.00380433 0)
(0.998906 0.00890873 0)
(1.00458 0.00642388 0)
(1.0062 0.00425748 0)
(1.00366 0.00628053 0)
(1.005 0.00539001 0)
(1.00724 0.00203518 0)
(1.00645 0.0015588 0)
(1.00423 0.0026008 0)
(1.00442 0.00229596 0)
(1.00472 0.00120205 0)
(1.00411 0.00144279 0)
(1.00084 0.00392049 0)
(1.00282 -0.00166587 0)
(1.00015 0.000192554 0)
(0.999149 0.00574669 0)
(1.00332 -0.000287046 0)
(0.999243 -0.000257954 0)
(0.997685 0.0048335 0)
(1.0012 0.00281215 0)
(0.999973 0.00344199 0)
(0.999196 0.00828204 0)
(1.00418 0.00655461 0)
(1.00623 0.00411288 0)
(1.00388 0.00571902 0)
(1.00456 0.00557658 0)
(1.00677 0.00256039 0)
(1.00659 0.00162102 0)
(1.00448 0.00251507 0)
(1.0043 0.00266902 0)
(1.00463 0.00171607 0)
(1.00438 0.00166349 0)
(1.00078 0.00353942 0)
(1.00258 -0.00104984 0)
(1.0005 -9.71884e-05 0)
(0.999138 0.00542734 0)
(1.00296 0.000273138 0)
(0.999643 -0.000297478 0)
(0.997958 0.00462107 0)
(1.00113 0.00322069 0)
(1.00049 0.0032017 0)
(0.999546 0.00762524 0)
(1.00381 0.00662946 0)
(1.00617 0.004099 0)
(1.00415 0.00518014 0)
(1.00425 0.00560418 0)
(1.00626 0.00306315 0)
(1.00663 0.00179183 0)
(1.00478 0.00240674 0)
(1.00428 0.00289645 0)
(1.00452 0.00217231 0)
(1.00455 0.00194292 0)
(1.00074 0.00317226 0)
(1.00233 -0.000492739 0)
(1.00081 -0.000299406 0)
(0.999173 0.0050285 0)
(1.0026 0.000827394 0)
(0.999995 -0.000262538 0)
(0.998274 0.00433536 0)
(1.00105 0.00359151 0)
(1.00092 0.00309161 0)
(0.999937 0.00698099 0)
(1.00349 0.00661448 0)
(1.00604 0.00418701 0)
(1.00442 0.00470323 0)
(1.00407 0.00547859 0)
(1.00576 0.0035017 0)
(1.00657 0.00206438 0)
(1.00509 0.0023258 0)
(1.00437 0.00299527 0)
(1.00442 0.00254545 0)
(1.00464 0.00224808 0)
(1.0007 0.00282468 0)
(1.00207 -6.31929e-06 0)
(1.00107 -0.000414847 0)
(0.999254 0.00457683 0)
(1.00225 0.00135035 0)
(1.00029 -0.000118916 0)
(0.998628 0.00402324 0)
(1.00098 0.00388983 0)
(1.00127 0.00308556 0)
(1.00035 0.00637553 0)
(1.00324 0.00650318 0)
(1.00584 0.00432355 0)
(1.00465 0.00431957 0)
(1.004 0.00524432 0)
(1.00532 0.0038396 0)
(1.0064 0.00239802 0)
(1.00535 0.00231382 0)
(1.00454 0.00300978 0)
(1.00438 0.0028264 0)
(1.00466 0.00255386 0)
(1.00067 0.00249955 0)
(1.00181 0.000411985 0)
(1.00129 -0.000434577 0)
(0.999375 0.00409476 0)
(1.00193 0.00179869 0)
(1.00053 0.000140446 0)
(0.999 0.00370927 0)
(1.00094 0.00409908 0)
(1.00154 0.00314872 0)
(1.00075 0.00583247 0)
(1.00306 0.00631059 0)
(1.00559 0.00445869 0)
(1.00483 0.00404946 0)
(1.00402 0.00496001 0)
(1.00495 0.00405356 0)
(1.00618 0.00274232 0)
(1.00554 0.00238383 0)
(1.00476 0.00298743 0)
(1.0044 0.00300515 0)
(1.00466 0.0028325 0)
(1.00064 0.00220055 0)
(1.00156 0.000761723 0)
(1.00144 -0.000376951 0)
(0.999528 0.0036144 0)
(1.00164 0.00214696 0)
(1.00071 0.000472465 0)
(0.999377 0.003423 0)
(1.00093 0.00421185 0)
(1.00174 0.00325475 0)
(1.00114 0.00536935 0)
(1.00295 0.00605055 0)
(1.00533 0.00457668 0)
(1.00495 0.00388628 0)
(1.0041 0.00466067 0)
(1.00467 0.00414975 0)
(1.00592 0.00306092 0)
(1.00565 0.00251805 0)
(1.00499 0.00297554 0)
(1.00449 0.00310009 0)
(1.00466 0.00305757 0)
(1.00062 0.00192766 0)
(1.00131 0.00104039 0)
(1.00155 -0.000258644 0)
(0.999702 0.00316032 0)
(1.0014 0.00238532 0)
(1.00083 0.000837899 0)
(0.999741 0.00320268 0)
(1.00095 0.00424927 0)
(1.00188 0.00337182 0)
(1.00149 0.00498454 0)
(1.00291 0.0057481 0)
(1.00506 0.00466006 0)
(1.005 0.00380323 0)
(1.00422 0.00439624 0)
(1.00449 0.00415516 0)
(1.00567 0.00332334 0)
(1.0057 0.00268195 0)
(1.00521 0.0029932 0)
(1.00464 0.00315369 0)
(1.0047 0.00321181 0)
(1.00061 0.00168354 0)
(1.00108 0.00124409 0)
(1.00161 -9.71215e-05 0)
(0.999886 0.00275922 0)
(1.00121 0.00251719 0)
(1.00092 0.00120075 0)
(1.00008 0.00303453 0)
(1.001 0.00425068 0)
(1.00198 0.00348868 0)
(1.0018 0.00468367 0)
(1.00292 0.00543186 0)
(1.00482 0.00469638 0)
(1.005 0.00378902 0)
(1.00434 0.00418387 0)
(1.00439 0.00409538 0)
(1.00543 0.00351433 0)
(1.00569 0.00285443 0)
(1.00539 0.00303185 0)
(1.0048 0.00319604 0)
(1.00477 0.00330654 0)
(1.0006 0.00146887 0)
(1.00087 0.00138485 0)
(1.00163 9.29883e-05 0)
(1.00007 0.00241763 0)
(1.00108 0.00257053 0)
(1.00099 0.00153928 0)
(1.0004 0.00290981 0)
(1.00108 0.00420694 0)
(1.00206 0.00359761 0)
(1.00206 0.00444808 0)
(1.00296 0.00510343 0)
(1.00461 0.00467816 0)
(1.00495 0.00380537 0)
(1.00444 0.00402571 0)
(1.00435 0.00400667 0)
(1.00524 0.00364385 0)
(1.00564 0.00302206 0)
(1.00555 0.0030813 0)
(1.00498 0.00322692 0)
(1.00487 0.00337535 0)
(1.00059 0.00128036 0)
(1.00068 0.00145922 0)
(1.00162 0.000294549 0)
(1.00025 0.00213905 0)
(1.00099 0.00257829 0)
(1.00103 0.0018498 0)
(1.00069 0.00286202 0)
(1.00118 0.00416642 0)
(1.00211 0.00371268 0)
(1.00227 0.00429288 0)
(1.00304 0.00479224 0)
(1.00445 0.00460809 0)
(1.00488 0.00381874 0)
(1.00452 0.00392445 0)
(1.00435 0.00391518 0)
(1.00509 0.00371579 0)
(1.00557 0.00316401 0)
(1.00566 0.00312993 0)
(1.00516 0.00323073 0)
(1.00498 0.00342982 0)
(1.00058 0.00112891 0)
(1.00051 0.00151577 0)
(1.00158 0.000482401 0)
(1.00042 0.00189642 0)
(1.00096 0.00249657 0)
(1.00107 0.00205182 0)
(1.00096 0.00278793 0)
(1.00131 0.00407333 0)
(1.00214 0.00378404 0)
(1.00243 0.00418606 0)
(1.00313 0.00451784 0)
(1.00433 0.00449862 0)
(1.00481 0.00383221 0)
(1.00457 0.00387207 0)
(1.00438 0.00384 0)
(1.00499 0.00375126 0)
(1.0055 0.00328123 0)
(1.00573 0.00319459 0)
(1.00535 0.00321795 0)
(1.0051 0.00346783 0)
(1.00058 0.000964116 0)
(1.00036 0.00152104 0)
(1.00152 0.000696621 0)
(1.00055 0.00176549 0)
(1.00096 0.00246446 0)
(1.00111 0.00228978 0)
(1.0012 0.00278728 0)
(1.00146 0.00399881 0)
(1.00219 0.00383781 0)
(1.00254 0.00410225 0)
(1.00321 0.00426616 0)
(1.00425 0.00434315 0)
(1.00474 0.00380115 0)
(1.00461 0.00382022 0)
(1.00442 0.00376366 0)
(1.00492 0.00375608 0)
(1.00542 0.00336224 0)
(1.00577 0.0032691 0)
(1.00552 0.00319375 0)
(1.00524 0.00346454 0)
(1.00057 0.000866944 0)
(1.00025 0.00145336 0)
(1.00145 0.000782517 0)
(1.00068 0.00164486 0)
(1.001 0.0024116 0)
(1.00115 0.00246459 0)
(1.0014 0.00277376 0)
(1.00161 0.00390206 0)
(1.00222 0.00386974 0)
(1.00261 0.00407551 0)
(1.00327 0.00407918 0)
(1.0042 0.00419962 0)
(1.00469 0.00375584 0)
(1.00465 0.00378376 0)
(1.00448 0.0037104 0)
(1.00488 0.00375542 0)
(1.00537 0.00341877 0)
(1.00577 0.00334666 0)
(1.00567 0.00319088 0)
(1.0054 0.00342422 0)
(1.00058 0.000773425 0)
(1.00014 0.00139559 0)
(1.00138 0.000867517 0)
(1.00081 0.00160004 0)
(1.00107 0.00238003 0)
(1.0012 0.00262466 0)
(1.0016 0.00278359 0)
(1.0018 0.00377682 0)
(1.0023 0.00385167 0)
(1.00267 0.00406527 0)
(1.00334 0.00393304 0)
(1.00419 0.00404704 0)
(1.00467 0.00367858 0)
(1.0047 0.00372766 0)
(1.00455 0.00365025 0)
(1.00487 0.00373878 0)
(1.00533 0.00343934 0)
(1.00576 0.00339902 0)
(1.00577 0.00321171 0)
(1.00558 0.00336019 0)
(1.00057 0.000666393 0)
(1.00006 0.00138023 0)
(1.00131 0.00105406 0)
(1.00093 0.00162335 0)
(1.00116 0.00233343 0)
(1.00124 0.00272862 0)
(1.00174 0.00276303 0)
(1.00196 0.00359611 0)
(1.00237 0.00375511 0)
(1.00269 0.00402158 0)
(1.00335 0.0038194 0)
(1.00417 0.00390047 0)
(1.00467 0.00357841 0)
(1.00474 0.00365407 0)
(1.00463 0.00357411 0)
(1.00488 0.00371591 0)
(1.00531 0.00344951 0)
(1.00576 0.00342285 0)
(1.00583 0.00324888 0)
(1.00573 0.00331492 0)
(1.00057 0.00062261 0)
(0.999995 0.00134771 0)
(1.00124 0.00113072 0)
(1.001 0.00158085 0)
(1.00125 0.00221329 0)
(1.00128 0.00275351 0)
(1.00186 0.00274046 0)
(1.00213 0.00343404 0)
(1.00249 0.00364927 0)
(1.00273 0.00399291 0)
(1.00336 0.00376925 0)
(1.00415 0.00380905 0)
(1.00467 0.00348799 0)
(1.0048 0.00358067 0)
(1.00472 0.00348689 0)
(1.00491 0.00366607 0)
(1.0053 0.00345231 0)
(1.00576 0.00341353 0)
(1.00587 0.0032622 0)
(1.00584 0.00329252 0)
(1.00056 0.000561706 0)
(0.999942 0.00130077 0)
(1.00116 0.00123146 0)
(1.00107 0.00162646 0)
(1.00136 0.00216025 0)
(1.00135 0.0028055 0)
(1.00194 0.00277761 0)
(1.00227 0.00330999 0)
(1.00261 0.00349531 0)
(1.00277 0.00391939 0)
(1.00335 0.00370994 0)
(1.0041 0.00373265 0)
(1.00466 0.00339433 0)
(1.00484 0.0034948 0)
(1.00482 0.00339365 0)
(1.00498 0.00358205 0)
(1.0053 0.00343893 0)
(1.00576 0.00340332 0)
(1.00591 0.0032434 0)
(1.00591 0.00328733 0)
(1.00055 0.000515836 0)
(0.999911 0.00128366 0)
(1.00109 0.00131376 0)
(1.00109 0.00165658 0)
(1.00145 0.00207874 0)
(1.0014 0.0027868 0)
(1.00199 0.00278792 0)
(1.00237 0.00320813 0)
(1.00274 0.00332021 0)
(1.00285 0.00380119 0)
(1.00334 0.00364997 0)
(1.00405 0.00367473 0)
(1.00464 0.00331588 0)
(1.00488 0.00339756 0)
(1.00491 0.00329482 0)
(1.00506 0.00347385 0)
(1.00532 0.00337767 0)
(1.00574 0.00338677 0)
(1.00594 0.00319547 0)
(1.00595 0.00326109 0)
(1.00055 0.000489038 0)
(0.999883 0.00121601 0)
(1.00102 0.00134396 0)
(1.00111 0.00169425 0)
(1.00154 0.00202824 0)
(1.00148 0.00275808 0)
(1.00203 0.00279928 0)
(1.00244 0.00314378 0)
(1.00285 0.00316941 0)
(1.00292 0.00364608 0)
(1.00333 0.00357579 0)
(1.00397 0.00363229 0)
(1.00459 0.00326599 0)
(1.0049 0.00331088 0)
(1.00499 0.003198 0)
(1.00514 0.00337232 0)
(1.00537 0.00327826 0)
(1.00573 0.00335006 0)