/*--------------------------------*- C++ -*----------------------------------*\
| =========                 |                                                 |
| \\      /  F ield         | OpenFOAM: The Open Source CFD Toolbox           |
|  \\    /   O peration     | Version:  v1906                                 |
|   \\  /    A nd           | Web:      www.OpenFOAM.com                      |
|    \\/     M anipulation  |                                                 |
\*---------------------------------------------------------------------------*/
FoamFile
{
    version     2.0;
    format      ascii;
    class       volScalarField;
    location    "2.9";
    object      p;
}
// * * * * * * * * * * * * * * * * * * * * * * * * * * * * * * * * * * * * * //

dimensions      [0 2 -2 0 0 0 0];


internalField   nonuniform List<scalar> 
9600
(
-1.97795e-11
0.000128053
-0.000182322
-0.00175873
-0.000344161
0.00254775
0.000344891
-0.00093507
0.0013502
0.00183604
0.00156043
0.00336388
0.00419797
0.0050698
0.00596087
0.00663907
0.00867543
0.0100898
0.0122892
0.0171855
2.15559e-06
0.00011507
-0.00018231
-0.00173825
-0.000343295
0.00250483
0.000344107
-0.000932182
0.00134895
0.00184973
0.00156149
0.00335951
0.00420707
0.00505031
0.00596181
0.00659894
0.0086708
0.00996936
0.0123137
0.0164923
3.57648e-06
0.000102247
-0.00017885
-0.00171817
-0.00035206
0.00245169
0.000344927
-0.000923137
0.00135125
0.0018602
0.00156108
0.00335107
0.00421761
0.00501795
0.00595356
0.00654947
0.00865578
0.00987639
0.0123061
0.0158082
4.53552e-06
9.31014e-05
-0.000175023
-0.00170205
-0.000359468
0.00240061
0.000342137
-0.000904111
0.00135595
0.00186453
0.00156189
0.0033375
0.00422881
0.00497741
0.0059418
0.00650137
0.00863937
0.0097926
0.0122506
0.0152491
5.66893e-06
8.74844e-05
-0.000172046
-0.00168757
-0.000359745
0.00235079
0.000336307
-0.000874755
0.00136183
0.00186453
0.0015639
0.00331989
0.00424246
0.0049333
0.00593371
0.00645115
0.0086258
0.00970201
0.0121675
0.0148046
7.1802e-06
8.56015e-05
-0.000170303
-0.00167266
-0.000352172
0.00230151
0.000329476
-0.000836661
0.00136879
0.0018619
0.00156627
0.00330087
0.00425792
0.00488835
0.00592787
0.0063984
0.00861254
0.00960692
0.0120582
0.0143258
9.14105e-06
8.70922e-05
-0.00016994
-0.00165581
-0.00033726
0.00225327
0.000323533
-0.00079178
0.00137722
0.00185782
0.0015687
0.00328182
0.00427403
0.00484297
0.00592244
0.00634424
0.00859505
0.00951302
0.0119161
0.0138714
1.15702e-05
9.10475e-05
-0.000170691
-0.00163591
-0.000316085
0.00220595
0.000319496
-0.000742033
0.00138751
0.00185307
0.00157096
0.00326319
0.00429052
0.0047968
0.0059166
0.00628915
0.00857057
0.00942242
0.0117382
0.01344
1.44562e-05
9.65037e-05
-0.000172013
-0.00161264
-0.000290629
0.00215894
0.000317556
-0.000689144
0.00139977
0.00184808
0.00157294
0.00324518
0.00430734
0.00474929
0.00590901
0.00623445
0.00853678
0.00933589
0.0115246
0.0130279
1.77923e-05
0.00010272
-0.000173403
-0.00158649
-0.000262958
0.0021117
0.000317349
-0.000634557
0.00141385
0.00184312
0.00157448
0.00322778
0.00432432
0.0047001
0.00589816
0.00618204
0.00849111
0.00925364
0.0112769
0.0126301
2.15948e-05
0.000109189
-0.000174551
-0.00155829
-0.000234478
0.00206388
0.000318399
-0.000579398
0.00142943
0.00183839
0.00157526
0.00321087
0.00434124
0.00464944
0.00588261
0.00613343
0.00843106
0.00917483
0.0109986
0.0122399
2.58959e-05
0.000115573
-0.000175317
-0.00152872
-0.000205898
0.00201528
0.000320349
-0.00052448
0.00144617
0.00183409
0.00157491
0.00319436
0.00435769
0.00459797
0.00586095
0.00608933
0.00835462
0.0090978
0.0106944
0.0118504
3.07312e-05
0.000121648
-0.000175638
-0.0014982
-0.000177484
0.00196582
0.000322981
-0.000470306
0.00146376
0.00183046
0.00157311
0.00317815
0.00437297
0.0045467
0.00583187
0.00604971
0.00826073
0.00901965
0.0103706
0.0114559
3.61362e-05
0.000127266
-0.000175464
-0.00146692
-0.000149324
0.00191547
0.00032625
-0.000417142
0.0014819
0.00182784
0.00156947
0.00316213
0.0043865
0.00449656
0.00579399
0.00601428
0.00814939
0.00893608
0.0100339
0.0110529
4.21489e-05
0.000132323
-0.000174745
-0.00143492
-0.000121469
0.00186434
0.000330199
-0.000365099
0.00150028
0.00182664
0.00156359
0.00314623
0.00439782
0.0044481
0.00574637
0.00598206
0.00802169
0.00884282
0.00969105
0.01064
4.88097e-05
0.000136741
-0.000173439
-0.00140221
-9.39567e-05
0.00181259
0.000334856
-0.000314155
0.00151855
0.00182726
0.00155517
0.00313036
0.0044064
0.00440159
0.0056888
0.00595114
0.00787965
0.00873646
0.0093472
0.0102171
5.61569e-05
0.000140457
-0.000171509
-0.00136874
-6.68506e-05
0.00176039
0.000340229
-0.000264199
0.00153627
0.0018301
0.00154404
0.00311443
0.00441188
0.00435697
0.00562145
0.00591929
0.0077254
0.00861412
0.00900639
0.00978533
6.42221e-05
0.000143423
-0.000168924
-0.00133445
-4.02666e-05
0.00170796
0.000346248
-0.00021507
0.00155301
0.00183547
0.00153005
0.00309817
0.00441426
0.00431365
0.00554486
0.00588428
0.00756037
0.00847413
0.00867154
0.00934627
7.30338e-05
0.000145605
-0.000165674
-0.00129926
-1.43786e-05
0.00165555
0.000352783
-0.000166612
0.00156838
0.0018436
0.00151319
0.00308105
0.00441386
0.0042707
0.00545984
0.00584431
0.00738563
0.0083161
0.00834455
0.00890157
8.26159e-05
0.000146996
-0.000161784
-0.00126308
1.05999e-05
0.00160348
0.000359677
-0.000118708
0.00158198
0.00185464
0.00149382
0.00306231
0.00441103
0.00422695
0.00536713
0.00579814
0.00720191
0.00814039
0.00802679
0.00845307
9.2969e-05
0.00014762
-0.000157301
-0.00122577
3.44231e-05
0.00155203
0.000366744
-7.12566e-05
0.00159341
0.00186854
0.00147248
0.00304098
0.00440631
0.00418124
0.00526698
0.00574518
0.00700949
0.00794704
0.00771978
0.00800344
0.00010407
0.000147546
-0.000152296
-0.00118718
5.68092e-05
0.0015015
0.000373801
-2.41903e-05
0.00160239
0.00188505
0.00144967
0.00301589
0.00440062
0.00413298
0.00515891
0.00568583
0.00680886
0.007735
0.0074249
0.00755647
0.000115879
0.000146896
-0.000146883
-0.00114714
7.74862e-05
0.00145213
0.000380645
2.25101e-05
0.00160887
0.00190363
0.00142642
0.00298557
0.00439438
0.00408207
0.00504194
0.00562097
0.00660099
0.00750247
0.00714273
0.00711681
0.00012832
0.000145846
-0.000141194
-0.00110551
9.62235e-05
0.00140423
0.00038712
6.87138e-05
0.00161292
0.0019236
0.00140397
0.00294868
0.00438732
0.0040289
0.00491486
0.00555055
0.00638784
0.0072483
0.00687254
0.00668958
0.000141287
0.000144632
-0.000135383
-0.00106217
0.000112758
0.00135808
0.00039325
0.000114125
0.00161468
0.00194394
0.0013833
0.00290461
0.00437884
0.00397428
0.0047764
0.00547343
0.00617279
0.00697235
0.00661213
0.00628072
0.000154638
0.000143568
-0.000129619
-0.00101702
0.000126856
0.00131374
0.000399101
0.000158419
0.00161466
0.00196358
0.00136505
0.00285303
0.00436786
0.00391925
0.0046255
0.00538787
0.00596013
0.0066753
0.0063575
0.00589746
0.000168209
0.000143012
-0.000124069
-0.000970041
0.000138381
0.00127118
0.000404958
0.000200891
0.00161329
0.00198197
0.00134964
0.00279392
0.00435296
0.00386499
0.00446153
0.00529132
0.00575418
0.00635908
0.00610241
0.00554747
0.000181803
0.00014335
-0.000118869
-0.000921228
0.000147242
0.00123042
0.000411401
0.000240546
0.00161063
0.00199875
0.00133733
0.00272742
0.00433235
0.00381253
0.00428452
0.00518052
0.00555873
0.00602802
0.00583833
0.00523626
0.000195175
0.000145031
-0.000114122
-0.000870723
0.000153528
0.00119114
0.000419104
0.000276799
0.00160656
0.00201346
0.00132806
0.00265383
0.00430404
0.00376245
0.00409536
0.00505223
0.00537645
0.00568951
0.00555536
0.00496257
0.000208063
0.000148509
-0.000109872
-0.000818811
0.00015754
0.00115278
0.000428971
0.000309369
0.00160054
0.00202612
0.00132137
0.00257328
0.00426633
0.00371532
0.00389611
0.00490302
0.00520736
0.00535328
0.00524577
0.00471541
0.000220194
0.000154196
-0.000106032
-0.000765845
0.000159686
0.00111465
0.000441802
0.000338034
0.00159162
0.00203683
0.00131703
0.00248581
0.00421746
0.00367151
0.00368937
0.00472971
0.0050486
0.00503008
0.00490886
0.00447713
0.000231293
0.000162525
-0.000102486
-0.000712327
0.000160658
0.00107578
0.000457945
0.000363336
0.00157854
0.00204521
0.00131514
0.00239193
0.00415558
0.00363072
0.00347815
0.00453062
0.00489554
0.0047291
0.00455238
0.00422763
0.00024108
0.000173884
-9.90077e-05
-0.000659131
0.000161643
0.00103547
0.000477252
0.000386735
0.00156001
0.00205021
0.00131571
0.00229206
0.00407879
0.00359242
0.00326622
0.00430552
0.00474222
0.00445512
0.00418894
0.00395226
0.000249315
0.000188498
-9.50624e-05
-0.000607328
0.00016387
0.00099338
0.000498853
0.000409923
0.00153538
0.00205047
0.00131854
0.00218672
0.00398516
0.00355576
0.00305762
0.00405515
0.00458281
0.00420843
0.0038305
0.00364812
0.000255793
0.000206372
-8.97286e-05
-0.00055801
0.000167983
0.000949653
0.000521222
0.000434171
0.00150461
0.0020445
0.0013233
0.00207688
0.0038729
0.00351911
0.00285688
0.00378121
0.00441241
0.00398767
0.00348556
0.00332116
0.00026038
0.000227198
-8.17621e-05
-0.000512132
0.000174312
0.000905277
0.000542453
0.000460007
0.00146824
0.00203052
0.00132932
0.00196363
0.00374061
0.00348042
0.00266904
0.00348626
0.00422578
0.00379189
0.00316005
0.00297955
0.000263054
0.000250188
-6.97229e-05
-0.000469951
0.000182609
0.000861483
0.000561018
0.000487227
0.00142705
0.00200679
0.00133523
0.00184865
0.00358826
0.00343696
0.0024989
0.00317437
0.0040165
0.00361933
0.00286004
0.00262978
0.000263869
0.000274212
-5.20861e-05
-0.000430664
0.000190978
0.000819025
0.000576172
0.000514957
0.00138175
0.00197216
0.0013397
0.0017341
0.00341677
0.0033851
0.00235038
0.00285232
0.00377747
0.0034647
0.00259321
0.00227798
0.000263034
0.000298191
-2.79161e-05
-0.000392998
0.000197625
0.000778077
0.000587113
0.000541744
0.00133334
0.00192674
0.00134236
0.00162147
0.00322751
0.00332041
0.00222498
0.00252903
0.00350342
0.00331745
0.00236668
0.00193353
0.000260817
0.000321342
2.96516e-06
-0.000355638
0.000202054
0.000738182
0.000592396
0.000566131
0.0012837
0.00187148
0.0013423
0.00150675
0.00302303
0.00323836
0.00212102
0.00221392
0.00319381
0.00316313
0.00218271
0.00161028
0.000257703
0.000342761
4.02077e-05
-0.000317155
0.000204033
0.000698606
0.00059055
0.000586978
0.00123459
0.00180782
0.00133827
0.001403
0.00280695
0.00313543
0.00203444
0.00191511
0.00285319
0.00298736
0.00203593
0.0013232
0.00025494
0.000361702
8.24284e-05
-0.000276294
0.000203519
0.000659389
0.000580711
0.000601577
0.00118609
0.00173875
0.00132869
0.00130626
0.00258287
0.00300972
0.00196032
0.00163928
0.00248963
0.00277936
0.00191414
0.00108319
0.00025333
0.000377952
0.000127591
-0.000232183
0.000200675
0.000621217
0.000563554
0.000603044
0.00113565
0.00166806
0.00131636
0.00121649
0.00235428
0.00286041
0.0018931
0.00139249
0.00211331
0.00253374
0.001802
0.000893849
0.000253241
0.000391454
0.000174539
-0.00018437
0.000195699
0.000583254
0.000540392
0.000587433
0.00108166
0.00159705
0.0013006
0.00113338
0.00212468
0.00268722
0.00182599
0.00117865
0.00173548
0.00224945
0.00168396
0.00075051
0.000255657
0.000402208
0.000221786
-0.000133641
0.000191711
0.000543114
0.000510033
0.000559534
0.00102605
0.00152404
0.00128009
0.00105681
0.00189727
0.00249101
0.0017513
0.000997882
0.00136849
0.00192925
0.00154543
0.000641901
0.000261175
0.00041025
0.000266759
-8.20238e-05
0.000176228
0.000501889
0.000481952
0.000534136
0.000966358
0.00144493
0.00125172
0.000985424
0.00167402
0.00227375
0.00166155
0.0008458
0.00102477
0.00158187
0.00137528
0.000553035
0.000269963
0.000416091
0.00030677
-3.08344e-05
0.000161807
0.000461147
0.000457798
0.000506974
0.00089995
0.00136696
0.00121492
0.000918164
0.00145752
0.00203963
0.00155201
0.000715195
0.000712853
0.00122027
0.00116811
0.000466898
0.000282028
0.000420042
0.000340516
1.97903e-05
0.000149111
0.00041891
0.000434291
0.000478735
0.000828689
0.00127001
0.00116664
0.00085362
0.00125179
0.00179464
0.00142111
0.000598187
0.000435777
0.000857363
0.000925578
0.000369062
0.000297053
0.000422725
0.00036779
6.89015e-05
0.000136973
0.000373961
0.000409842
0.000451334
0.000755042
0.00116439
0.00110521
0.000789088
0.00105872
0.00154502
0.00126925
0.000486724
0.000192846
0.000504731
0.000653604
0.000249081
0.000314924
0.000425092
0.000388013
0.000114459
0.000127133
0.000326981
0.000382523
0.000424153
0.000680937
0.00105239
0.00103106
0.000722841
0.000877325
0.00129414
0.00109778
0.000373651
-1.86339e-05
0.000172647
0.000360833
0.000101217
0.000335176
0.000427878
0.000400848
0.000154918
0.000120065
0.000278546
0.000350339
0.000396216
0.000608545
0.000936106
0.000943453
0.000651612
0.000706952
0.00104551
0.000910242
0.000254827
-0.000203322
-0.000131346
5.78377e-05
-7.57257e-05
0.000357234
0.000431678
0.000406446
0.000188688
0.000116105
0.000230277
0.000312243
0.000365932
0.000538437
0.000817341
0.000842479
0.000573181
0.000548432
0.000804306
0.000710221
0.000126572
-0.000369692
-0.000405978
-0.000245193
-0.000279586
0.00038028
0.000436407
0.000405639
0.000215129
0.000115886
0.000183808
0.000267179
0.000330446
0.000470291
0.000700236
0.000732207
0.000486431
0.000398523
0.000571742
0.000500127
-1.33326e-05
-0.00052476
-0.000652352
-0.000537149
-0.000503077
0.000402933
0.000441697
0.000400761
0.000233852
0.000122201
0.000140641
0.000215434
0.000287252
0.000403222
0.000586469
0.000615835
0.000391454
0.000253164
0.00034765
0.000284457
-0.000163614
-0.000671679
-0.000871916
-0.000810026
-0.000737505
0.000424029
0.000447763
0.000393572
0.000244286
0.000124106
0.000101572
0.000158742
0.000235137
0.000334518
0.000475598
0.000494889
0.000289219
0.000113434
0.000134068
6.67951e-05
-0.000323742
-0.000814999
-0.00106965
-0.00106199
-0.000974823
0.00044286
0.000454095
0.000385567
0.000246519
0.0001228
6.66158e-05
9.98982e-05
0.000174255
0.000261178
0.000367208
0.000371823
0.000180423
-2.06348e-05
-6.73531e-05
-0.000151154
-0.000493453
-0.000958565
-0.00125039
-0.00129222
-0.00120622
0.000459103
0.000460093
0.000377283
0.000241353
0.000116418
3.49192e-05
4.14831e-05
0.00010574
0.000181261
0.000260195
0.000249355
6.62504e-05
-0.000152469
-0.000256362
-0.000365402
-0.000670449
-0.00110338
-0.00141755
-0.00150117
-0.00142535
0.000472563
0.000465276
0.000368768
0.000230059
0.000103693
4.63513e-06
-1.52194e-05
3.2226e-05
9.50773e-05
0.000151678
0.000126974
-5.04436e-05
-0.000282615
-0.000433739
-0.000571481
-0.000851825
-0.00125064
-0.00157484
-0.00169253
-0.00163015
0.000483036
0.000469513
0.000359913
0.000213917
8.40428e-05
-2.65994e-05
-7.01062e-05
-4.33994e-05
4.24855e-06
4.06994e-05
3.09636e-06
-0.000169167
-0.000409102
-0.000600008
-0.000767714
-0.00103437
-0.00140163
-0.00172526
-0.00186965
-0.00182062
0.000490355
0.000469789
0.000350049
0.000194151
5.77037e-05
-6.10828e-05
-0.000123776
-0.000119375
-8.99472e-05
-7.15833e-05
-0.000121704
-0.000291057
-0.000533041
-0.000754959
-0.00095336
-0.00121448
-0.00155511
-0.00187027
-0.00203347
-0.00199757
0.000494363
0.000467073
0.00033838
0.000171205
2.52967e-05
-0.000100327
-0.000177365
-0.000194562
-0.000185791
-0.0001849
-0.000245683
-0.000414742
-0.000657147
-0.00089977
-0.00112645
-0.00138907
-0.00170838
-0.00201118
-0.00218514
-0.00216218
0.00049482
0.000460979
0.000324213
0.000146109
-1.20907e-05
-0.000144754
-0.000232663
-0.000268909
-0.000280899
-0.00029866
-0.000369392
-0.000537515
-0.00078069
-0.00103696
-0.00128542
-0.00155516
-0.00185958
-0.00214915
-0.00232729
-0.00231513
0.000491417
0.000451241
0.000309086
0.000118354
-5.33023e-05
-0.000194023
-0.000291167
-0.000343448
-0.000373985
-0.000410183
-0.000492582
-0.000659349
-0.000900757
-0.00116752
-0.00143157
-0.00170961
-0.00200631
-0.0022837
-0.00246181
-0.00245689
0.000483808
0.000437474
0.000287727
8.74865e-05
-9.74951e-05
-0.000247659
-0.000353315
-0.00041899
-0.000465939
-0.000517813
-0.00061195
-0.000780009
-0.00101689
-0.0012897
-0.00156642
-0.001851
-0.00214455
-0.00241255
-0.00258847
-0.00258848
0.000471569
0.000419359
0.000262207
5.29727e-05
-0.000144545
-0.000305105
-0.000419018
-0.000495652
-0.000556888
-0.000622569
-0.000725763
-0.000896157
-0.00112939
-0.00140233
-0.00168817
-0.00197882
-0.00227062
-0.00253247
-0.0027056
-0.00270937
0.000454207
0.000396591
0.000232267
1.44036e-05
-0.00019478
-0.00036589
-0.000488184
-0.000573797
-0.000646151
-0.000723874
-0.000834315
-0.00100494
-0.00123565
-0.00150587
-0.00179506
-0.00209166
-0.00238299
-0.0026411
-0.00281176
-0.00281903
0.000431338
0.000368703
0.000197681
-2.85845e-05
-0.000248622
-0.000429728
-0.000560255
-0.000653843
-0.000734235
-0.000820498
-0.000936996
-0.001106
-0.00133192
-0.00159906
-0.00188717
-0.00218696
-0.00247947
-0.00273552
-0.00290537
-0.00291587
0.000402655
0.00033547
0.000157961
-7.62794e-05
-0.000306402
-0.000496771
-0.000634903
-0.000735415
-0.000821929
-0.000912833
-0.00103227
-0.0011989
-0.00141662
-0.00167821
-0.00196362
-0.00226224
-0.00255603
-0.00281176
-0.00298244
-0.00299685
0.000367615
0.000296439
0.000112962
-0.000128914
-0.000368226
-0.000567305
-0.000712565
-0.000818617
-0.000909297
-0.00100216
-0.00112017
-0.00128179
-0.00148853
-0.00173877
-0.00201903
-0.00231388
-0.00260716
-0.00286466
-0.00303818
-0.00305852
0.000325843
0.000251201
6.22731e-05
-0.000186743
-0.000434413
-0.00064172
-0.00079346
-0.000903944
-0.000996903
-0.00108934
-0.00120257
-0.0013545
-0.00154642
-0.00177796
-0.0020439
-0.00233154
-0.00262215
-0.00288337
-0.00306454
-0.0030965
0.000276815
0.000199701
5.27598e-06
-0.000249709
-0.000505243
-0.000720575
-0.000878654
-0.000992318
-0.00108564
-0.00117506
-0.00128015
-0.00141807
-0.0015897
-0.00179526
-0.00203404
-0.00230195
-0.0025811
-0.00284308
-0.00303818
-0.00309343
0.000219477
0.000139691
-5.68618e-05
-0.000317189
-0.000580939
-0.000803854
-0.000968998
-0.00108653
-0.00117844
-0.00126105
-0.00135304
-0.00147115
-0.00161609
-0.0017889
-0.00199047
-0.00222036
-0.00246934
-0.00271292
-0.00290829
-0.00298737
0.000153889
7.31537e-05
-0.000125633
-0.00039127
-0.000661789
-0.000891793
-0.00106488
-0.00118988
-0.0012839
-0.00135527
-0.00142434
-0.0015111
-0.0016174
-0.00175044
-0.0019133
-0.00210476
-0.00231832
-0.0025246
-0.00268665
-0.00274175
8.19673e-05
7.19155e-07
-0.000203345
-0.000473249
-0.000746256
-0.000982243
-0.00116614
-0.00130417
-0.00141349
-0.00149044
-0.00152872
-0.0015403
-0.00152803
-0.00152399
-0.00157092
-0.00169988
-0.00192974
-0.00223486
-0.00255606
-0.00279851
-3.44274e-07
-8.47422e-05
-0.000289808
-0.000556777
-0.000827273
-0.00106755
-0.00126534
-0.00142418
-0.00155873
-0.00168329
-0.00180768
-0.00191136
-0.00188882
-0.00167794
-0.00139007
-0.00113997
-0.000951783
-0.000802134
-0.000685175
-0.000646597
-9.74649e-05
-0.000184377
-0.000385904
-0.000644714
-0.000904013
-0.00113846
-0.00134276
-0.00152429
-0.00168249
-0.00175691
-0.00166886
-0.00147407
-0.00127258
-0.0011346
-0.00107599
-0.00107395
-0.00110484
-0.00114999
-0.00121186
-0.0013246
-0.000210461
-0.000280214
-0.000480505
-0.000744465
-0.0010237
-0.00128693
-0.00148759
-0.00156581
-0.00153007
-0.00146071
-0.0014158
-0.0014163
-0.00142291
-0.00140831
-0.00134863
-0.001217
-0.00102815
-0.000811627
-0.000625839
-0.000556371
-0.000371471
-0.000427644
-0.000540585
-0.000708575
-0.000907017
-0.0011004
-0.00125933
-0.00135808
-0.00141121
-0.00143053
-0.00140977
-0.00138752
-0.00137067
-0.00137125
-0.00144685
-0.00161406
-0.00187545
-0.00221176
-0.00256017
-0.0029303
-0.000532376
-0.000603358
-0.00065988
-0.000754274
-0.000902075
-0.00108174
-0.00126111
-0.0013933
-0.00146993
-0.00151643
-0.00151522
-0.00148481
-0.00145693
-0.00139138
-0.00128676
-0.0011503
-0.00098599
-0.000824394
-0.000733488
-0.000717324
-0.000619568
-0.000688742
-0.000755725
-0.000838064
-0.000945744
-0.00106822
-0.0011796
-0.00126689
-0.00132
-0.00136463
-0.0013935
-0.001392
-0.00139706
-0.00140202
-0.00139634
-0.00139297
-0.00139354
-0.00141415
-0.00147725
-0.00163075
0.0196597
0.0131741
0.00419787
-0.00192032
-0.00378244
-0.00330881
-0.00239205
-0.00181351
-0.00176456
-0.00210708
-0.00252828
-0.00277505
-0.00282573
-0.00283362
-0.00291649
-0.00308667
-0.00332293
-0.00352091
-0.00354357
-0.00345061
-0.00342451
-0.0035116
-0.00363594
-0.0037274
-0.00376572
-0.00380722
-0.00392254
-0.00409195
-0.00424192
-0.00435728
-0.00447978
-0.00461524
-0.00471786
-0.004768
-0.00481167
-0.00488927
-0.00497624
-0.00503881
-0.00510193
-0.00520795
-0.0053424
-0.00546275
-0.00557411
-0.00570179
-0.00582602
-0.00591678
-0.00599783
-0.00609617
-0.00619451
-0.0062733
-0.00636138
-0.00648228
-0.00659948
-0.00670086
-0.00682175
-0.00694243
-0.00704278
-0.00714765
-0.00725687
-0.00736065
-0.00747509
-0.00759714
-0.00771671
-0.00783634
-0.00795306
-0.00806345
-0.00817751
-0.00829974
-0.00842587
-0.00855279
-0.00867621
-0.00879517
-0.00891495
-0.00903931
-0.00916759
-0.00929843
-0.00942879
-0.00955677
-0.00968482
-0.00981514
-0.00995034
-0.010086
-0.0102231
-0.0103603
-0.0105005
-0.0106397
-0.0107835
-0.0109266
-0.0110761
-0.0112234
-0.0113757
-0.0115259
-0.0116844
-0.0118391
-0.0120043
-0.0121652
-0.0123347
-0.0125191
-0.0126353
-0.0127824
0.0187232
0.0130453
0.00429717
-0.00179825
-0.00370952
-0.00327003
-0.00236527
-0.00179356
-0.00174981
-0.00209618
-0.00252019
-0.00276885
-0.00282056
-0.0028289
-0.00291203
-0.00308246
-0.00331918
-0.00351783
-0.00354089
-0.00344794
-0.00342187
-0.00350919
-0.00363383
-0.00372557
-0.00376404
-0.00380556
-0.00392094
-0.00409051
-0.00424062
-0.00435603
-0.00447856
-0.00461412
-0.00471684
-0.00476703
-0.0048107
-0.00488835
-0.00497541
-0.00503803
-0.00510115
-0.00520718
-0.00534169
-0.00546209
-0.00557347
-0.00570118
-0.00582545
-0.00591625
-0.00599731
-0.00609568
-0.00619404
-0.00627286
-0.00636094
-0.00648186
-0.0065991
-0.00670048
-0.00682138
-0.00694209
-0.00704245
-0.00714734
-0.00725657
-0.00736036
-0.00747481
-0.00759687
-0.00771646
-0.0078361
-0.00795283
-0.00806323
-0.00817729
-0.00829953
-0.00842567
-0.0085526
-0.00867602
-0.00879499
-0.00891478
-0.00903914
-0.00916743
-0.00929827
-0.00942864
-0.00955662
-0.00968468
-0.009815
-0.00995021
-0.0100858
-0.0102229
-0.0103602
-0.0105004
-0.0106396
-0.0107834
-0.0109265
-0.011076
-0.0112233
-0.0113756
-0.0115258
-0.0116843
-0.011839
-0.0120042
-0.0121651
-0.0123346
-0.0125191
-0.0126353
-0.0127823
0.0179227
0.0129807
0.00452928
-0.00155436
-0.00358484
-0.00322393
-0.00234225
-0.00177466
-0.00173338
-0.00208238
-0.00250871
-0.00275965
-0.00281359
-0.00282376
-0.002908
-0.00307882
-0.00331576
-0.00351484
-0.00353824
-0.00344539
-0.00341943
-0.00350693
-0.00363181
-0.00372379
-0.00376243
-0.003804
-0.00391949
-0.00408924
-0.00423948
-0.00435493
-0.00447752
-0.00461318
-0.00471598
-0.00476617
-0.00480983
-0.00488754
-0.00497468
-0.00503733
-0.00510044
-0.00520649
-0.00534108
-0.00546152
-0.00557291
-0.00570065
-0.00582498
-0.00591579
-0.00599685
-0.00609524
-0.00619365
-0.00627247
-0.00636054
-0.00648149
-0.00659877
-0.00670015
-0.00682107
-0.00694181
-0.00704217
-0.00714706
-0.00725631
-0.00736011
-0.00747456
-0.00759664
-0.00771624
-0.00783589
-0.00795263
-0.00806304
-0.0081771
-0.00829935
-0.00842549
-0.00855243
-0.00867586
-0.00879483
-0.00891462
-0.00903899
-0.00916728
-0.00929813
-0.00942851
-0.0095565
-0.00968456
-0.00981488
-0.0099501
-0.0100857
-0.0102228
-0.0103601
-0.0105003
-0.0106395
-0.0107833
-0.0109264
-0.0110759
-0.0112232
-0.0113755
-0.0115257
-0.0116843
-0.0118389
-0.0120042
-0.012165
-0.0123345
-0.012519
-0.0126352
-0.0127822
0.0171812
0.0129078
0.00481105
-0.00124768
-0.00341909
-0.00316534
-0.00231405
-0.00174982
-0.00171145
-0.00206386
-0.00249181
-0.00274431
-0.0028014
-0.00281556
-0.00290283
-0.00307475
-0.0033115
-0.00351053
-0.00353455
-0.00344253
-0.003417
-0.00350444
-0.0036292
-0.0037214
-0.0037604
-0.00380219
-0.00391781
-0.00408773
-0.00423817
-0.00435376
-0.00447646
-0.00461221
-0.00471507
-0.00476525
-0.0048089
-0.00488666
-0.00497389
-0.00503657
-0.00509967
-0.00520576
-0.00534042
-0.00546092
-0.00557233
-0.00570011
-0.00582449
-0.00591531
-0.00599637
-0.00609479
-0.00619323
-0.00627206
-0.00636012
-0.00648112
-0.00659843
-0.0066998
-0.00682074
-0.00694152
-0.00704188
-0.00714678
-0.00725605
-0.00735984
-0.0074743
-0.00759641
-0.00771601
-0.00783568
-0.00795243
-0.00806284
-0.0081769
-0.00829916
-0.00842531
-0.00855226
-0.0086757
-0.00879467
-0.00891447
-0.00903884
-0.00916714
-0.009298
-0.00942837
-0.00955637
-0.00968443
-0.00981476
-0.00994998
-0.0100856
-0.0102227
-0.01036
-0.0105002
-0.0106394
-0.0107832
-0.0109263
-0.0110759
-0.0112231
-0.0113754
-0.0115256
-0.0116842
-0.0118389
-0.0120041
-0.012165
-0.0123344
-0.012519
-0.0126352
-0.0127822
0.016426
0.012777
0.00509199
-0.000922291
-0.003238
-0.00310182
-0.00228379
-0.00172083
-0.00168469
-0.00204056
-0.00246895
-0.00272189
-0.00278266
-0.00280273
-0.00289521
-0.0030693
-0.00330538
-0.0035036
-0.00352876
-0.00343897
-0.00341464
-0.00350171
-0.00362575
-0.00371803
-0.0037577
-0.00379995
-0.00391559
-0.00408553
-0.00423628
-0.0043523
-0.00447525
-0.00461107
-0.00471397
-0.00476421
-0.00480788
-0.00488565
-0.00497291
-0.00503564
-0.00509878
-0.00520491
-0.00533964
-0.00546022
-0.00557168
-0.0056995
-0.00582391
-0.00591475
-0.00599583
-0.00609428
-0.00619275
-0.00627158
-0.00635965
-0.00648069
-0.00659804
-0.00669941
-0.00682038
-0.00694119
-0.00704155
-0.00714646
-0.00725575
-0.00735955
-0.00747402
-0.00759615
-0.00771576
-0.00783544
-0.00795221
-0.00806262
-0.00817668
-0.00829895
-0.00842512
-0.00855208
-0.00867553
-0.0087945
-0.0089143
-0.00903868
-0.00916698
-0.00929785
-0.00942823
-0.00955623
-0.0096843
-0.00981463
-0.00994985
-0.0100855
-0.0102226
-0.0103599
-0.0105001
-0.0106393
-0.0107831
-0.0109262
-0.0110758
-0.011223
-0.0113754
-0.0115256
-0.0116841
-0.0118388
-0.012004
-0.0121649
-0.0123344
-0.0125189
-0.0126352
-0.0127821
0.0156576
0.0125841
0.00536618
-0.000583567
-0.003045
-0.00303483
-0.00225362
-0.00169028
-0.00165505
-0.00201432
-0.00244254
-0.00269491
-0.00275914
-0.00278596
-0.00288487
-0.0030618
-0.00329667
-0.00349334
-0.00352025
-0.00343437
-0.00341231
-0.00349879
-0.00362143
-0.00371364
-0.00375445
-0.00379746
-0.00391281
-0.0040823
-0.0042334
-0.00435024
-0.00447369
-0.00460959
-0.00471256
-0.00476303
-0.00480682
-0.0048845
-0.00497171
-0.00503452
-0.00509773
-0.00520385
-0.00533864
-0.00545936
-0.00557094
-0.00569878
-0.00582321
-0.00591409
-0.0059952
-0.00609367
-0.00619215
-0.006271
-0.0063591
-0.00648019
-0.00659758
-0.00669896
-0.00681996
-0.00694082
-0.00704117
-0.0071461
-0.00725541
-0.00735921
-0.00747369
-0.00759585
-0.00771548
-0.00783517
-0.00795195
-0.00806237
-0.00817644
-0.00829872
-0.0084249
-0.00855188
-0.00867533
-0.00879431
-0.00891411
-0.0090385
-0.00916681
-0.00929769
-0.00942808
-0.00955608
-0.00968415
-0.00981449
-0.00994972
-0.0100854
-0.0102225
-0.0103597
-0.0104999
-0.0106392
-0.010783
-0.0109261
-0.0110757
-0.0112229
-0.0113753
-0.0115255
-0.011684
-0.0118387
-0.0120039
-0.0121648
-0.0123343
-0.0125189
-0.0126352
-0.012782
0.0148905
0.0123393
0.00563478
-0.000229872
-0.00283835
-0.00296341
-0.00222404
-0.00165927
-0.00162324
-0.00198595
-0.00241433
-0.00266595
-0.00273346
-0.00276711
-0.00287267
-0.00305235
-0.00328533
-0.00347984
-0.00350908
-0.00342858
-0.00340978
-0.00349559
-0.00361632
-0.0037084
-0.00375091
-0.00379511
-0.00390979
-0.00407813
-0.00422933
-0.00434727
-0.00447146
-0.00460746
-0.00471062
-0.00476161
-0.00480573
-0.00488328
-0.00497033
-0.00503326
-0.00509654
-0.00520253
-0.00533728
-0.00545822
-0.00557002
-0.00569791
-0.00582233
-0.0059133
-0.00599451
-0.00609296
-0.00619141
-0.00627031
-0.00635846
-0.00647958
-0.00659701
-0.00669843
-0.00681948
-0.00694036
-0.00704073
-0.00714567
-0.007255
-0.00735881
-0.00747331
-0.0075955
-0.00771515
-0.00783486
-0.00795166
-0.00806208
-0.00817616
-0.00829846
-0.00842466
-0.00855165
-0.00867512
-0.0087941
-0.0089139
-0.0090383
-0.00916662
-0.00929751
-0.00942791
-0.00955592
-0.00968398
-0.00981433
-0.00994956
-0.0100852
-0.0102223
-0.0103596
-0.0104998
-0.010639
-0.0107828
-0.010926
-0.0110755
-0.0112228
-0.0113752
-0.0115254
-0.0116839
-0.0118386
-0.0120038
-0.0121647
-0.0123342
-0.0125188
-0.0126352
-0.0127819
0.0141382
0.0120481
0.00589335
0.000136914
-0.00261776
-0.00288733
-0.00219564
-0.00162859
-0.00158959
-0.00195558
-0.00238476
-0.00263591
-0.00270673
-0.00274724
-0.00285937
-0.00304152
-0.00327202
-0.00346391
-0.00349582
-0.00342167
-0.00340686
-0.00349203
-0.00361053
-0.0037025
-0.00374728
-0.00379315
-0.00390696
-0.00407346
-0.00422434
-0.00434334
-0.00446832
-0.0046044
-0.00470788
-0.00475978
-0.00480451
-0.00488195
-0.00496883
-0.00503199
-0.00509538
-0.00520102
-0.00533554
-0.00545672
-0.00556885
-0.00569675
-0.00582118
-0.00591236
-0.00599373
-0.00609214
-0.00619053
-0.00626949
-0.0063577
-0.00647882
-0.0065963
-0.0066978
-0.00681891
-0.00693982
-0.00704019
-0.00714516
-0.00725451
-0.00735833
-0.00747286
-0.00759508
-0.00771475
-0.00783449
-0.00795131
-0.00806173
-0.00817582
-0.00829815
-0.00842437
-0.00855138
-0.00867486
-0.00879385
-0.00891365
-0.00903806
-0.0091664
-0.0092973
-0.00942772
-0.00955573
-0.0096838
-0.00981415
-0.00994939
-0.0100851
-0.0102222
-0.0103595
-0.0104997
-0.0106389
-0.0107827
-0.0109258
-0.0110754
-0.0112227
-0.011375
-0.0115253
-0.0116838
-0.0118385
-0.0120037
-0.0121646
-0.0123341
-0.0125187
-0.0126352
-0.0127818
0.0134125
0.0117137
0.00613264
0.000512191
-0.00238329
-0.00280553
-0.00216812
-0.00159864
-0.00155426
-0.0019231
-0.00235379
-0.00260486
-0.00267907
-0.00272652
-0.00284533
-0.00302984
-0.00325749
-0.00344639
-0.00348103
-0.00341377
-0.00340346
-0.00348809
-0.00360421
-0.00369609
-0.00374353
-0.00379155
-0.00390452
-0.00406881
-0.00421896
-0.00433876
-0.00446429
-0.00460028
-0.00470421
-0.00475738
-0.00480302
-0.00488041
-0.0049672
-0.00503081
-0.00509441
-0.00519951
-0.0053335
-0.00545486
-0.00556735
-0.00569523
-0.00581963
-0.00591116
-0.00599286
-0.00609122
-0.00618951
-0.00626857
-0.00635683
-0.00647789
-0.00659539
-0.00669702
-0.00681821
-0.00693915
-0.00703957
-0.00714457
-0.00725392
-0.00735774
-0.0074723
-0.00759456
-0.00771428
-0.00783405
-0.00795088
-0.00806132
-0.00817543
-0.00829777
-0.00842403
-0.00855106
-0.00867456
-0.00879355
-0.00891336
-0.00903779
-0.00916615
-0.00929707
-0.00942749
-0.00955551
-0.00968358
-0.00981394
-0.0099492
-0.0100849
-0.010222
-0.0103593
-0.0104995
-0.0106387
-0.0107826
-0.0109257
-0.0110753
-0.0112226
-0.0113749
-0.0115251
-0.0116837
-0.0118384
-0.0120036
-0.0121645
-0.0123339