/*--------------------------------*- C++ -*----------------------------------*\
| =========                 |                                                 |
| \\      /  F ield         | OpenFOAM: The Open Source CFD Toolbox           |
|  \\    /   O peration     | Version:  v1906                                 |
|   \\  /    A nd           | Web:      www.OpenFOAM.com                      |
|    \\/     M anipulation  |                                                 |
\*---------------------------------------------------------------------------*/
FoamFile
{
    version     2.0;
    format      ascii;
    class       surfaceScalarField;
    location    "2.9";
    object      phi;
}
// * * * * * * * * * * * * * * * * * * * * * * * * * * * * * * * * * * * * * //

dimensions      [0 3 -1 0 0 0 0];
oriented        oriented;


internalField   nonuniform List<scalar> 
19000
(
1.18197e-06
2.37321e-07
1.12538e-06
2.18954e-07
1.14919e-06
-6.93359e-07
1.23561e-06
-5.06947e-07
1.2127e-06
5.43549e-07
1.10674e-06
4.9314e-07
1.13208e-06
3.84101e-07
1.12741e-06
-2.88656e-07
1.13558e-06
-6.98768e-07
1.17574e-06
-3.23e-07
1.16805e-06
-3.45392e-07
1.1711e-06
-9.59277e-08
1.1785e-06
1.37843e-07
1.15507e-06
1.46449e-07
1.15515e-06
5.5017e-07
1.12295e-06
1.77333e-07
1.12906e-06
3.90769e-07
1.10146e-06
5.37362e-08
1.11057e-06
2.29299e-07
-2.83723e-08
1.06013e-06
1.23569e-06
2.2589e-07
1.18313e-06
2.71516e-07
1.20682e-06
-7.17053e-07
1.29159e-06
-5.91712e-07
1.26637e-06
5.68771e-07
1.16877e-06
5.90736e-07
1.18382e-06
3.69052e-07
1.18601e-06
-2.90845e-07
1.19431e-06
-7.07072e-07
1.23273e-06
-3.61415e-07
1.22495e-06
-3.37613e-07
1.22988e-06
-1.00862e-07
1.23222e-06
1.35507e-07
1.21679e-06
1.61877e-07
1.20271e-06
5.64249e-07
1.18741e-06
1.92631e-07
1.17134e-06
4.06846e-07
1.17047e-06
5.46025e-08
1.14993e-06
2.49837e-07
-2.56203e-08
1.14718e-06
1.29037e-06
2.18302e-07
1.2477e-06
3.14183e-07
1.266e-06
-7.35352e-07
1.34575e-06
-6.71461e-07
1.32234e-06
5.92183e-07
1.2406e-06
6.7248e-07
1.24185e-06
3.67795e-07
1.25259e-06
-3.01583e-07
1.2559e-06
-7.10382e-07
1.29132e-06
-3.96834e-07
1.28393e-06
-3.30222e-07
1.29058e-06
-1.0751e-07
1.28741e-06
1.38672e-07
1.27838e-06
1.70908e-07
1.26061e-06
5.82023e-07
1.25013e-06
2.03103e-07
1.23624e-06
4.20744e-07
1.23423e-06
5.66086e-08
1.22803e-06
2.56038e-07
-1.06718e-08
1.21308e-06
1.34723e-06
2.15175e-07
1.31796e-06
3.43449e-07
1.327e-06
-7.44391e-07
1.39773e-06
-7.42186e-07
1.38085e-06
6.09057e-07
1.31814e-06
7.35194e-07
1.30741e-06
3.78527e-07
1.32284e-06
-3.17011e-07
1.32069e-06
-7.0823e-07
1.34995e-06
-4.261e-07
1.3458e-06
-3.26072e-07
1.34992e-06
-1.11628e-07
1.34494e-06
1.43648e-07
1.33681e-06
1.79046e-07
1.32416e-06
5.94668e-07
1.31279e-06
2.14478e-07
1.30589e-06
4.27637e-07
1.29973e-06
6.27728e-08
1.30133e-06
2.54435e-07
9.07782e-09
1.28158e-06
1.40759e-06
2.15937e-07
1.39197e-06
3.59074e-07
1.39017e-06
-7.42597e-07
1.44798e-06
-7.99996e-07
1.4422e-06
6.14838e-07
1.39813e-06
7.79262e-07
1.38042e-06
3.9624e-07
1.39446e-06
-3.31055e-07
1.3889e-06
-7.02669e-07
1.41011e-06
-4.47305e-07
1.41047e-06
-3.26432e-07
1.41076e-06
-1.11919e-07
1.40471e-06
1.49702e-07
1.39566e-06
1.88093e-07
1.38864e-06
6.01691e-07
1.37784e-06
2.25272e-07
1.37592e-06
4.29562e-07
1.36799e-06
7.07032e-08
1.37272e-06
2.49704e-07
2.97344e-08
1.35206e-06
1.47273e-06
2.18888e-07
1.46815e-06
3.63647e-07
1.45653e-06
-7.30973e-07
1.49872e-06
-8.42189e-07
1.50599e-06
6.07565e-07
1.47879e-06
8.06465e-07
1.45949e-06
4.15544e-07
1.46806e-06
-3.39623e-07
1.46027e-06
-6.94886e-07
1.47397e-06
-4.61002e-07
1.47698e-06
-3.29446e-07
1.475e-06
-1.09933e-07
1.46758e-06
1.57125e-07
1.45786e-06
1.9781e-07
1.45524e-06
6.04313e-07
1.44665e-06
2.33857e-07
1.44884e-06
4.27369e-07
1.4402e-06
7.9344e-08
1.4472e-06
2.42703e-07
5.0763e-08
1.42617e-06
1.54321e-06
2.21892e-07
1.54606e-06
3.60804e-07
1.5272e-06
-7.12115e-07
1.55305e-06
-8.68045e-07
1.57168e-06
5.88933e-07
1.55947e-06
8.18678e-07
1.54237e-06
4.32643e-07
1.54463e-06
-3.41877e-07
1.53424e-06
-6.84502e-07
1.54207e-06
-4.6883e-07
1.54521e-06
-3.32581e-07
1.54252e-06
-1.07246e-07
1.53444e-06
1.65199e-07
1.52498e-06
2.07276e-07
1.52602e-06
6.03276e-07
1.51999e-06
2.39886e-07
1.52594e-06
4.21419e-07
1.51669e-06
8.8588e-08
1.52562e-06
2.33773e-07
7.20729e-08
1.50431e-06
1.61867e-06
2.23353e-07
1.62582e-06
3.53647e-07
1.60268e-06
-6.88968e-07
1.61368e-06
-8.79042e-07
1.63937e-06
5.63235e-07
1.64004e-06
8.18017e-07
1.62712e-06
4.45554e-07
1.62435e-06
-3.39107e-07
1.61075e-06
-6.70895e-07
1.61399e-06
-4.72076e-07
1.61575e-06
-3.34337e-07
1.61307e-06
-1.04567e-07
1.60557e-06
1.727e-07
1.59754e-06
2.15306e-07
1.60196e-06
5.98854e-07
1.59799e-06
2.43858e-07
1.60717e-06
4.1224e-07
1.59704e-06
9.87114e-08
1.60741e-06
2.23406e-07
9.33712e-08
1.58611e-06
1.69818e-06
2.22749e-07
1.70766e-06
3.44164e-07
1.68273e-06
-6.64034e-07
1.682e-06
-8.78312e-07
1.71006e-06
5.35176e-07
1.72083e-06
8.07244e-07
1.71275e-06
4.5363e-07
1.70687e-06
-3.33228e-07
1.69021e-06
-6.54233e-07
1.68958e-06
-4.7145e-07
1.68938e-06
-3.3413e-07
1.68691e-06
-1.02097e-07
1.68098e-06
1.78624e-07
1.67535e-06
2.20937e-07
1.68312e-06
5.91085e-07
1.68038e-06
2.46603e-07
1.69206e-06
4.00553e-07
1.6807e-06
1.10075e-07
1.69185e-06
2.12254e-07
1.14159e-07
1.67106e-06
1.78101e-06
2.20462e-07
1.79176e-06
3.33413e-07
1.76683e-06
-6.39107e-07
1.75803e-06
-8.69511e-07
1.78497e-06
5.08237e-07
1.80268e-06
7.89537e-07
1.79923e-06
4.57084e-07
1.79187e-06
-3.25877e-07
1.77309e-06
-6.35443e-07
1.76913e-06
-4.67497e-07
1.76681e-06
-3.31805e-07
1.7645e-06
-9.97854e-08
1.7607e-06
1.82421e-07
1.75788e-06
2.23755e-07
1.7689e-06
5.80061e-07
1.76655e-06
2.48958e-07
1.78001e-06
3.87093e-07
1.76721e-06
1.22872e-07
1.7784e-06
2.01067e-07
1.33761e-07
1.7588e-06
1.86699e-06
2.17219e-07
1.87846e-06
3.21939e-07
1.85465e-06
-6.1529e-07
1.84093e-06
-8.55792e-07
1.86493e-06
4.84239e-07
1.88666e-06
7.67799e-07
1.88717e-06
4.5658e-07
1.87941e-06
-3.18122e-07
1.85963e-06
-6.15657e-07
1.853e-06
-4.60867e-07
1.84867e-06
-3.27475e-07
1.84627e-06
-9.73861e-08
1.84466e-06
1.84028e-07
1.84444e-06
2.23973e-07
1.85842e-06
5.66084e-07
1.85579e-06
2.5159e-07
1.8704e-06
3.72482e-07
1.85633e-06
1.36939e-07
1.86683e-06
1.90573e-07
1.5141e-07
1.84918e-06
1.95642e-06
2.13638e-07
1.96831e-06
3.1005e-07
1.94609e-06
-5.93071e-07
1.92961e-06
-8.39317e-07
1.95016e-06
4.63692e-07
1.97381e-06
7.44156e-07
1.9775e-06
4.52885e-07
1.96989e-06
-3.10508e-07
1.94997e-06
-5.95746e-07
1.94136e-06
-4.52255e-07
1.9354e-06
-3.21517e-07
1.93259e-06
-9.45719e-08
1.93284e-06
1.83773e-07
1.93452e-06
2.22294e-07
1.95096e-06
5.49649e-07
1.94767e-06
2.54875e-07
1.96295e-06
3.57203e-07
1.94815e-06
1.51743e-07
1.95731e-06
1.81411e-07
1.6637e-07
1.94235e-06
2.04978e-06
2.10047e-07
2.0619e-06
2.97929e-07
2.04127e-06
-5.72438e-07
2.02328e-06
-8.21325e-07
2.04067e-06
4.46295e-07
2.06496e-06
7.19873e-07
2.07115e-06
4.46691e-07
2.06386e-06
-3.03215e-07
2.0443e-06
-5.76184e-07
2.03426e-06
-4.42222e-07
2.02722e-06
-3.14475e-07
2.02373e-06
-9.10772e-08
2.02535e-06
1.82146e-07
2.02803e-06
2.1962e-07
2.04634e-06
5.31341e-07
2.04235e-06
2.5886e-07
2.05788e-06
3.41675e-07
2.0431e-06
1.66519e-07
2.05042e-06
1.74092e-07
1.78082e-07
2.03871e-06
2.14751e-06
2.06533e-07
2.15976e-06
2.85684e-07
2.14039e-06
-5.53067e-07
2.1215e-06
-8.02435e-07
2.13645e-06
4.31347e-07
2.16076e-06
6.95563e-07
2.16889e-06
4.38555e-07
2.16187e-06
-2.96195e-07
2.14283e-06
-5.57145e-07
2.1317e-06
-4.3109e-07
2.12413e-06
-3.06903e-07
2.11982e-06
-8.67709e-08
2.12239e-06
1.79583e-07
2.12528e-06
2.16724e-07
2.14489e-06
5.11731e-07
2.14042e-06
2.63328e-07
2.1558e-06
3.26302e-07
2.14182e-06
1.80495e-07
2.14699e-06
1.68928e-07
1.8632e-07
2.13875e-06
2.24997e-06
2.03053e-07
2.26228e-06
2.73374e-07
2.24372e-06
-5.34512e-07
2.22423e-06
-7.82937e-07
2.23756e-06
4.18011e-07
2.26167e-06
6.71456e-07
2.27131e-06
4.28909e-07
2.26439e-06
-2.89267e-07
2.24589e-06
-5.38647e-07
2.23377e-06
-4.18966e-07
2.2261e-06
-2.99237e-07
2.22098e-06
-8.16515e-08
2.22418e-06
1.76386e-07
2.22683e-06
2.14066e-07
2.24724e-06
4.91329e-07
2.24266e-06
2.67903e-07
2.25745e-06
3.11512e-07
2.24493e-06
1.93017e-07
2.24793e-06
1.65922e-07
1.91311e-07
2.24294e-06
2.35741e-06
1.99523e-07
2.36974e-06
2.61042e-07
2.3516e-06
-5.16373e-07
2.33162e-06
-7.62953e-07
2.34412e-06
4.05502e-07
2.36798e-06
6.47604e-07
2.37882e-06
4.18065e-07
2.37174e-06
-2.82189e-07
2.35376e-06
-5.2067e-07
2.34063e-06
-4.05834e-07
2.33315e-06
-2.91755e-07
2.32732e-06
-7.58158e-08
2.33094e-06
1.72757e-07
2.33323e-06
2.11779e-07
2.354e-06
4.70565e-07
2.34973e-06
2.72171e-07
2.36355e-06
2.97694e-07
2.35292e-06
2.03648e-07
2.35399e-06
1.64852e-07
1.93595e-07
2.3517e-06
2.47006e-06
1.95863e-07
2.48237e-06
2.48732e-07
2.46437e-06
-4.98377e-07
2.44394e-06
-7.42524e-07
2.45626e-06
3.93187e-07
2.47984e-06
6.24022e-07
2.49169e-06
4.06211e-07
2.48421e-06
-2.74708e-07
2.46675e-06
-5.03212e-07
2.45256e-06
-3.91644e-07
2.4454e-06
-2.84592e-07
2.43902e-06
-6.94347e-08
2.44291e-06
1.68863e-07
2.44495e-06
2.09739e-07
2.46568e-06
4.49832e-07
2.46211e-06
2.75746e-07
2.47467e-06
2.85127e-07
2.46609e-06
2.12228e-07
2.46555e-06
1.65396e-07
1.93797e-07
2.46535e-06
2.58814e-06
1.92013e-07
2.60037e-06
2.36503e-07
2.5824e-06
-4.80405e-07
2.56151e-06
-7.21628e-07
2.57408e-06
3.80611e-07
2.59736e-06
6.00744e-07
2.61014e-06
3.93431e-07
2.60204e-06
-2.66606e-07
2.58512e-06
-4.86297e-07
2.56985e-06
-3.76375e-07
2.56302e-06
-2.77758e-07
2.55633e-06
-6.27402e-08
2.56029e-06
1.64898e-07
2.56235e-06
2.07683e-07
2.58269e-06
4.2949e-07
2.58007e-06
2.7836e-07
2.5913e-06
2.73897e-07
2.58465e-06
2.18879e-07
2.58289e-06
1.67161e-07
1.92499e-07
2.58419e-06
2.71191e-06
1.87931e-07
2.72398e-06
2.24432e-07
2.70605e-06
-4.62469e-07
2.68462e-06
-7.00203e-07
2.69775e-06
3.67478e-07
2.72065e-06
5.77851e-07
2.73434e-06
3.79735e-07
2.72546e-06
-2.57726e-07
2.70913e-06
-4.69963e-07
2.69283e-06
-3.60073e-07
2.68624e-06
-2.71166e-07
2.6795e-06
-5.60058e-08
2.68331e-06
1.6109e-07
2.68568e-06
2.05308e-07
2.70531e-06
4.09861e-07
2.7038e-06
2.79876e-07
2.71378e-06
2.63912e-07
2.70878e-06
2.23881e-07
2.70619e-06
1.69749e-07
1.90197e-07
2.70849e-06
2.84161e-06
1.83585e-07
2.85343e-06
2.1262e-07
2.83564e-06
-4.44681e-07
2.81359e-06
-6.78158e-07
2.82748e-06
3.53597e-07
2.84987e-06
5.55456e-07
2.8645e-06
3.65107e-07
2.85476e-06
-2.47983e-07
2.83902e-06
-4.54226e-07
2.8218e-06
-3.42859e-07
2.81528e-06
-2.64646e-07
2.80881e-06
-4.95333e-08
2.81221e-06
1.57693e-07
2.81515e-06
2.02365e-07
2.83387e-06
3.91149e-07
2.8334e-06
2.80344e-07
2.84236e-06
2.54954e-07
2.83874e-06
2.27499e-07
2.83561e-06
1.72875e-07
1.87248e-07
2.83856e-06
2.97753e-06
1.78951e-07
2.98896e-06
2.01187e-07
2.97149e-06
-4.27212e-07
2.94872e-06
-6.55386e-07
2.96348e-06
3.38835e-07
2.98525e-06
5.33685e-07
3.00082e-06
3.4954e-07
2.99021e-06
-2.3737e-07
2.97504e-06
-4.39058e-07
2.95711e-06
-3.24929e-07
2.95042e-06
-2.57961e-07
2.94452e-06
-4.36292e-08
2.94728e-06
1.54934e-07
2.95091e-06
1.98732e-07
2.96868e-06
3.73377e-07
2.96903e-06
2.79992e-07
2.97723e-06
2.46763e-07
2.97485e-06
2.29875e-07
2.97132e-06
1.76406e-07
1.83892e-07
2.97467e-06
3.11995e-06
1.74008e-07
3.13087e-06
1.90263e-07
3.11392e-06
-4.10255e-07
3.09031e-06
-6.31779e-07
3.10605e-06
3.231e-07
3.12708e-06
5.12651e-07
3.14355e-06
3.3307e-07
3.13214e-06
-2.25954e-07
3.11745e-06
-4.2437e-07
3.09906e-06
-3.06544e-07
3.09194e-06
-2.50837e-07
3.08687e-06
-3.85574e-08
3.08884e-06
1.52962e-07
3.09314e-06
1.94434e-07
3.11009e-06
3.56425e-07
3.11096e-06
2.79122e-07
3.11856e-06
2.3916e-07
3.11745e-06
2.30983e-07
3.11355e-06
1.80311e-07
1.8033e-07
3.11711e-06
3.26918e-06
1.68734e-07
3.27947e-06
1.79982e-07
3.26322e-06
-3.94012e-07
3.23869e-06
-6.07244e-07
3.25545e-06
3.06334e-07
3.27568e-06
4.92421e-07
3.29296e-06
3.15788e-07
3.28089e-06
-2.13879e-07
3.26652e-06
-4.10002e-07
3.24799e-06
-2.88011e-07
3.24015e-06
-2.42994e-07
3.2361e-06
-3.45073e-08
3.23725e-06
1.51804e-07
3.24203e-06
1.89657e-07
3.25839e-06
3.40069e-07
3.25951e-06
2.78001e-07
3.26655e-06
2.32122e-07
3.26684e-06
2.30694e-07
3.26262e-06
1.84525e-07
1.76811e-07
3.26614e-06
3.42555e-06
1.63111e-07
3.43506e-06
1.70471e-07
3.41972e-06
-3.78669e-07
3.39419e-06
-5.81715e-07
3.412e-06
2.88525e-07
3.43142e-06
4.73007e-07
3.44935e-06
2.97853e-07
3.43683e-06
-2.01359e-07
3.42257e-06
-3.95739e-07
3.40421e-06
-2.69657e-07
3.3954e-06
-2.34183e-07
3.39246e-06
-3.1567e-08
3.39291e-06
1.51362e-07
3.39785e-06
1.84711e-07
3.41387e-06
3.24052e-07
3.41509e-06
2.76784e-07
3.42141e-06
2.25801e-07
3.42326e-06
2.28842e-07
3.41893e-06
1.88854e-07
1.73672e-07
3.42207e-06
3.5894e-06
1.57123e-07
3.59802e-06
1.61847e-07
3.58374e-06
-3.64385e-07
3.55719e-06
-5.55169e-07
3.576e-06
2.69722e-07
3.59465e-06
4.54357e-07
3.61303e-06
2.79472e-07
3.60034e-06
-1.88676e-07
3.58593e-06
-3.81324e-07
3.56807e-06
-2.51797e-07
3.55811e-06
-2.24227e-07
3.55624e-06
-2.96981e-08
3.55617e-06
1.51432e-07
3.56093e-06
1.79949e-07
3.57681e-06
3.0818e-07
3.57813e-06
2.75458e-07
3.58351e-06
2.20425e-07
3.58695e-06
2.25404e-07
3.58287e-06
1.9293e-07
1.71301e-07
3.58524e-06
3.76107e-06
1.50758e-07
3.76872e-06
1.54197e-07
3.75561e-06
-3.51278e-07
3.72809e-06
-5.27642e-07
3.74776e-06
2.5005e-07
3.76576e-06
4.36351e-07
3.78431e-06
2.60921e-07
3.77181e-06
-1.76171e-07
3.75698e-06
-3.66497e-07
3.73987e-06
-2.34685e-07
3.72871e-06
-2.13069e-07
3.72774e-06
-2.87219e-08
3.72743e-06
1.51734e-07
3.73166e-06
1.75724e-07
3.74748e-06
2.92363e-07
3.74908e-06
2.73855e-07
3.75331e-06
2.16196e-07
3.75814e-06
2.20571e-07
3.75481e-06
1.9626e-07
1.70037e-07
3.75608e-06
3.94093e-06
1.44012e-07
3.94755e-06
1.47577e-07
3.93568e-06
-3.39406e-07
3.90728e-06
-4.99242e-07
3.92762e-06
2.29713e-07
3.94517e-06
4.18796e-07
3.96356e-06
2.42534e-07
3.95161e-06
-1.64223e-07
3.93614e-06
-3.51026e-07
3.91994e-06
-2.1848e-07
3.90766e-06
-2.00791e-07
3.90729e-06
-2.83564e-08
3.90705e-06
1.51977e-07
3.91047e-06
1.72303e-07
3.92621e-06
2.76621e-07
3.92834e-06
2.71732e-07
3.9313e-06
2.13233e-07
3.93716e-06
2.14706e-07
3.93507e-06
1.98356e-07
1.70019e-07
3.93509e-06
4.12937e-06
1.36888e-07
4.13494e-06
1.4201e-07
4.1243e-06
-3.28767e-07
4.09521e-06
-4.70154e-07
4.11593e-06
2.08994e-07
4.1333e-06
4.0143e-07
4.15115e-06
2.24685e-07
4.14012e-06
-1.53195e-07
4.12386e-06
-3.34769e-07
4.10859e-06
-2.03206e-07
4.09539e-06
-1.87595e-07
4.09531e-06
-2.82764e-08
4.09537e-06
1.51925e-07
4.09786e-06
1.69805e-07
4.11336e-06
2.61122e-07
4.11626e-06
2.68831e-07
4.11798e-06
2.11514e-07
4.1244e-06
2.08294e-07
4.12391e-06
1.98846e-07
1.71086e-07
4.12284e-06
4.32679e-06
1.29401e-07
4.33131e-06
1.37487e-07
4.32184e-06
-3.1929e-07
4.29233e-06
-4.40648e-07
4.31307e-06
1.88251e-07
4.33057e-06
3.83929e-07
4.34748e-06
2.07777e-07
4.33769e-06
-1.43403e-07
4.32064e-06
-3.17719e-07
4.30618e-06
-1.8875e-07
4.29233e-06
-1.73738e-07
4.29227e-06
-2.82195e-08
4.29274e-06
1.51451e-07
4.29432e-06
1.68228e-07
4.30934e-06
2.46103e-07
4.31325e-06
2.64924e-07
4.31387e-06
2.1089e-07
4.32029e-06
2.01877e-07
4.3216e-06
1.9754e-07
1.72762e-07
4.31992e-06
4.5336e-06
1.21577e-07
4.53713e-06
1.33958e-07
4.52866e-06
-3.10826e-07
4.49909e-06
-4.11079e-07
4.51945e-06
1.67896e-07
4.53745e-06
3.6593e-07
4.553e-06
1.9222e-07
4.54466e-06
-1.35055e-07
4.52697e-06
-3.00034e-07
4.51312e-06
-1.74895e-07
4.49886e-06
-1.59485e-07
4.49863e-06
-2.79848e-08
4.49958e-06
1.50498e-07
4.50032e-06
1.67487e-07
4.51459e-06
2.31836e-07
4.51966e-06
2.59853e-07
4.51948e-06
2.11067e-07
4.52537e-06
1.95992e-07
4.52842e-06
1.94488e-07
1.74341e-07
4.52684e-06
4.75023e-06
1.1346e-07
4.75286e-06
1.31331e-07
4.74518e-06
-3.03147e-07
4.71598e-06
-3.81883e-07
4.73547e-06
1.48414e-07
4.75438e-06
3.4702e-07
4.76823e-06
1.78368e-07
4.76129e-06
-1.28117e-07
4.74336e-06
-2.82108e-07
4.72986e-06
-1.61386e-07
4.71541e-06
-1.45039e-07
4.71486e-06
-2.74358e-08
4.71633e-06
1.49033e-07
4.71628e-06
1.67528e-07
4.72964e-06
2.18478e-07
4.73591e-06
2.53588e-07
4.73525e-06
2.11723e-07
4.74027e-06
1.90971e-07
4.74472e-06
1.90036e-07
1.75094e-07
4.74397e-06
4.97715e-06
1.05109e-07
4.97902e-06
1.29463e-07
4.9718e-06
-2.95929e-07
4.9435e-06
-3.53584e-07
4.96158e-06
1.30329e-07
4.98181e-06
3.26792e-07
4.99374e-06
1.66443e-07
4.9879e-06
-1.22277e-07
4.97027e-06
-2.6448e-07
4.95692e-06
-1.48033e-07
4.9424e-06
-1.30516e-07
4.94144e-06
-2.64789e-08
4.94343e-06
1.47038e-07
4.94268e-06
1.68279e-07
4.95498e-06
2.06178e-07
4.9624e-06
2.46175e-07
4.96162e-06
2.12499e-07
4.96564e-06
1.8695e-07
4.97095e-06
1.84732e-07
1.74488e-07
4.97155e-06
5.21482e-06
9.66061e-08
5.21613e-06
1.28156e-07
5.20895e-06
-2.88753e-07
5.18212e-06
-3.26759e-07
5.1983e-06
1.14153e-07
5.22016e-06
3.04928e-07
5.23026e-06
1.56342e-07
5.22495e-06
-1.16959e-07
5.2081e-06
-2.47634e-07
5.19487e-06
-1.348e-07
5.18027e-06
-1.15924e-07
5.17886e-06
-2.506e-08
5.18138e-06
1.44518e-07
5.17999e-06
1.6966e-07
5.19105e-06
1.95118e-07
5.1996e-06
2.37632e-07
5.19904e-06
2.13054e-07
5.20208e-06
1.83907e-07
5.20766e-06
1.79156e-07
1.72359e-07
5.20979e-06
5.46374e-06
8.8052e-08
5.46474e-06
1.27156e-07
5.45707e-06
-2.81075e-07
5.43235e-06
-3.02047e-07
5.44618e-06
1.00322e-07
5.46977e-06
2.8134e-07
5.4786e-06
1.4751e-07
5.47308e-06
-1.11433e-07
5.45726e-06
-2.31815e-07
5.44426e-06
-1.21804e-07
5.42954e-06
-1.01196e-07
5.4276e-06
-2.31205e-08
5.43059e-06
1.41527e-07
5.42874e-06
1.71507e-07
5.43836e-06
1.85496e-07
5.448e-06
2.27991e-07
5.44798e-06
2.13075e-07
5.45012e-06
1.81767e-07
5.45558e-06
1.73703e-07
1.68954e-07
5.45898e-06
5.72445e-06
7.95648e-08
5.72544e-06
1.26165e-07
5.71658e-06
-2.72222e-07
5.69466e-06
-2.80124e-07
5.70597e-06
8.90113e-08
5.73087e-06
2.56438e-07
5.73932e-06
1.39061e-07
5.73308e-06
-1.05189e-07
5.71822e-06
-2.16961e-07
5.70562e-06
-1.09203e-07
5.69069e-06
-8.62651e-08
5.6881e-06
-2.05278e-08
5.69151e-06
1.38112e-07
5.68945e-06
1.73576e-07
5.69753e-06
1.77415e-07
5.70811e-06
2.17408e-07
5.70895e-06
2.12231e-07
5.71029e-06
1.80427e-07
5.71541e-06
1.6859e-07
1.64714e-07
5.71964e-06
5.99748e-06
7.12742e-08
5.99879e-06
1.24859e-07
5.98786e-06
-2.61288e-07
5.9695e-06
-2.61764e-07
5.97864e-06
7.98707e-08
6.00381e-06
2.31259e-07
6.01277e-06
1.30105e-07
6.00568e-06
-9.80943e-08
5.99144e-06
-2.02726e-07
5.97933e-06
-9.70913e-08
5.96413e-06
-7.10677e-08
5.96075e-06
-1.71447e-08
5.9646e-06
1.3426e-07
5.96267e-06
1.75502e-07
5.96919e-06
1.70902e-07
5.98044e-06
2.06155e-07
5.98249e-06
2.10178e-07
5.98314e-06
1.79781e-07
5.98778e-06
1.63944e-07
1.60021e-07
5.99248e-06
6.28345e-06
6.3313e-08
6.28541e-06
1.22904e-07
6.27177e-06
-2.47651e-07
6.25719e-06
-2.47185e-07
6.26504e-06
7.20186e-08
6.28927e-06
2.0703e-07
6.29911e-06
1.20263e-07
6.29122e-06
-9.02045e-08
6.27695e-06
-1.88455e-07
6.26525e-06
-8.53863e-08
6.25006e-06
-5.58791e-08
6.2459e-06
-1.299e-08
6.25041e-06
1.29756e-07
6.24904e-06
1.76868e-07
6.25402e-06
1.65927e-07
6.26559e-06
1.94586e-07
6.26912e-06
2.06644e-07
6.26928e-06
1.79622e-07
6.2733e-06
1.59924e-07
1.55086e-07
6.27823e-06
6.58299e-06
5.57938e-08
6.58589e-06
1.20003e-07
6.57015e-06
-2.31917e-07
6.55811e-06
-2.35144e-07
6.56574e-06
6.43948e-08
6.58813e-06
1.84634e-07
6.59839e-06
1.10007e-07
6.58939e-06
-8.12048e-08
6.57461e-06
-1.73672e-07
6.56358e-06
-7.43613e-08
6.54902e-06
-4.13151e-08
6.54426e-06
-8.2347e-09
6.54958e-06
1.24437e-07
6.5492e-06
1.7725e-07
6.55274e-06
1.62384e-07
6.56414e-06
1.83189e-07
6.56935e-06
2.01429e-07
6.56936e-06
1.79619e-07
6.57256e-06
1.56721e-07
1.5004e-07
6.57761e-06
6.89677e-06
4.88134e-08
6.90093e-06
1.15842e-07
6.88369e-06
-2.14679e-07
6.87297e-06
-2.2442e-07
6.88105e-06
5.63105e-08
6.90145e-06
1.6424e-07
6.91132e-06
1.00135e-07
6.90128e-06
-7.11633e-08
6.88628e-06
-1.58673e-07
6.87606e-06
-6.41441e-08
6.8623e-06
-2.75502e-08
6.85686e-06
-2.79383e-09
6.86287e-06
1.18425e-07
6.86372e-06
1.76394e-07
6.86609e-06
1.60019e-07
6.8768e-06
1.7248e-07
6.88368e-06
1.94547e-07
6.884e-06
1.79304e-07
6.88626e-06
1.54455e-07
1.4508e-07
6.89122e-06
7.2255e-06
4.24485e-08
7.23138e-06
1.09964e-07
7.21286e-06
-1.9616e-07
7.20265e-06
-2.14211e-07
7.21142e-06
4.75452e-08
7.23003e-06
1.45626e-07
7.23945e-06
9.07134e-08
7.22905e-06
-6.07643e-08
7.21348e-06
-1.43098e-07
7.20381e-06
-5.44772e-08
7.19086e-06
-1.4598e-08
7.18469e-06
3.37329e-09
7.19104e-06
1.12078e-07
7.19326e-06
1.74175e-07
7.19475e-06
1.58531e-07
7.20435e-06
1.62876e-07
7.21264e-06
1.8626e-07
7.21377e-06
1.7817e-07
7.21518e-06
1.53042e-07
1.40521e-07
7.21974e-06
7.56992e-06
3.67529e-08
7.578e-06
1.01886e-07
7.55839e-06
-1.7655e-07
7.54817e-06
-2.03992e-07
7.55739e-06
3.83298e-08
7.57476e-06
1.28253e-07
7.58393e-06
8.15443e-08
7.57347e-06
-5.03031e-08
7.557e-06
-1.26632e-07
7.54734e-06
-4.4817e-08
7.53538e-06
-2.64172e-09
7.52868e-06
1.00824e-08
7.53493e-06
1.05829e-07
7.53848e-06
1.70624e-07
7.53943e-06
1.5758e-07
7.54762e-06
1.5468e-07
7.55689e-06
1.76989e-07
7.55924e-06
1.75823e-07
7.56011e-06
1.52174e-07
1.36675e-07
7.56396e-06
7.93083e-06
3.17348e-08
7.94093e-06
9.17869e-08
7.9213e-06
-1.56921e-07
7.91051e-06
-1.93203e-07
7.92005e-06
2.87875e-08
7.93631e-06
1.11995e-07
7.9464e-06
7.14515e-08
7.93605e-06
-3.99492e-08
7.91739e-06
-1.0797e-07
7.90736e-06
-3.47884e-08
7.89658e-06
8.13482e-09
7.88959e-06
1.70702e-08
7.89536e-06
1.00058e-07
7.90009e-06
1.65898e-07
7.90087e-06
1.56798e-07
7.90753e-06
1.48023e-07
7.91725e-06
1.67268e-07
7.92101e-06
1.72068e-07
7.92178e-06
1.51405e-07
1.33689e-07
7.92476e-06
8.30903e-06
2.73902e-08
8.32032e-06
8.04902e-08
8.30236e-06
-1.38963e-07
8.2908e-06
-1.81642e-07
8.30039e-06
1.91995e-08
8.31489e-06
9.75e-08
8.32572e-06
6.06161e-08
8.3148e-06
-2.90315e-08
8.29465e-06
-8.78147e-08
8.28479e-06
-2.49306e-08
8.27525e-06
1.76744e-08
8.2681e-06
2.42267e-08
8.27321e-06
9.49441e-08
8.27884e-06
1.60264e-07
8.27982e-06
1.55821e-07
8.28495e-06
1.42891e-07
8.29462e-06
1.57604e-07
8.29977e-06
1.66916e-07
8.30087e-06
1.50302e-07
1.31458e-07
8.3031e-06
8.70534e-06
2.37089e-08
8.71749e-06
6.83422e-08
8.70097e-06
-1.22444e-07
8.68898e-06
-1.69653e-07
8.69811e-06
1.00776e-08
8.7088e-06
8.68091e-08
8.71348e-06
5.59365e-08
8.70481e-06
-2.037e-08
8.68931e-06
-7.23067e-08
8.68066e-06
-1.62885e-08
8.67213e-06
2.62059e-08
8.66494e-06
3.14174e-08
8.66929e-06
9.05934e-08
8.67562e-06
1.53935e-07
8.67707e-06
1.5437e-07
8.68085e-06
1.39114e-07
8.68996e-06
1.48494e-07
8.69635e-06
1.6053e-07
8.69809e-06
1.48558e-07
1.29709e-07
8.69984e-06
9.12068e-06
2.0644e-08
9.13343e-06
5.55934e-08
9.11773e-06
-1.06738e-07
9.1029e-06
-1.54829e-07
9.10644e-06
6.54075e-09
9.1146e-06
7.86484e-08
9.12068e-06
4.98523e-08
9.11648e-06
-1.61663e-08
9.10356e-06
-5.93843e-08
9.09577e-06
-8.50074e-09
9.08806e-06
3.39118e-08
9.08096e-06
3.85268e-08
9.08447e-06
8.70789e-08
9.09129e-06
1.47118e-07
9.09341e-06
1.52251e-07
9.09615e-06
1.36368e-07
9.1043e-06
1.40348e-07
9.11163e-06
1.53201e-07
9.11424e-06
1.45947e-07
1.28148e-07
9.1158e-06
9.55598e-06
1.81192e-08
9.56841e-06
4.3167e-08
9.55389e-06
-9.22121e-08
9.53764e-06
-1.38584e-07
9.54216e-06
2.01757e-09
9.54978e-06
7.10303e-08
9.55397e-06
4.56671e-08
9.54957e-06
-1.17664e-08
9.53799e-06
-4.78113e-08
9.53077e-06
-1.27936e-09
9.52395e-06
4.07364e-08
9.51708e-06
4.53937e-08
9.51974e-06
8.44165e-08
9.52676e-06
1.40101e-07
9.52964e-06
1.49369e-07
9.53174e-06
1.34273e-07
9.53865e-06
1.33434e-07
9.54649e-06
1.45361e-07
9.55009e-06
1.42351e-07
1.26493e-07
9.55174e-06
1.00122e-05
1.60602e-08
1.00236e-05
3.17974e-08
1.00112e-05
-7.98538e-08
9.99484e-06
-1.22218e-07
9.99881e-06
-1.95432e-09
1.00059e-05
6.39244e-08
1.00086e-05
4.30207e-08
1.00038e-05
-7.04879e-09
9.99333e-06
-3.72913e-08
9.98665e-06
5.39509e-09
9.98074e-06
4.66489e-08
9.97421e-06
5.192e-08
9.97605e-06
8.25815e-08
9.98302e-06
1.33132e-07
9.98666e-06
1.45727e-07
9.9885e-06
1.32436e-07
9.99414e-06
1.27791e-07
1.0002e-05
1.37478e-07
1.00066e-05
1.37777e-07
1.2449e-07
1.00086e-05
1.04903e-05
1.4365e-08
1.05005e-05
2.16049e-08
1.04904e-05
-6.96949e-08
1.04743e-05
-1.06107e-07
1.04771e-05
-4.78578e-09
1.04838e-05
5.71727e-08
1.04854e-05
4.14339e-08
1.04802e-05
-1.83776e-09
1.04704e-05
-2.75149e-08
1.04644e-05
1.14417e-08
1.04594e-05
5.16533e-08
1.04534e-05
5.79536e-08
1.04544e-05
8.14998e-08
1.04612e-05
1.26413e-07
1.04655e-05
1.41404e-07
1.04674e-05
1.30542e-07
1.04719e-05
1.23289e-07
1.04794e-05
1.29988e-07
1.04847e-05
1.32401e-07
1.21973e-07
1.04873e-05
1.09914e-05
1.29402e-08
1.10003e-05
1.27542e-08
1.09922e-05
-6.16459e-08
1.09765e-05
-9.03706e-08
1.0978e-05
-6.31119e-09
1.09844e-05
5.07685e-08
1.09854e-05
4.04521e-08
1.09798e-05
3.83031e-09
1.09705e-05
-1.82637e-08
1.09651e-05
1.68538e-08
1.0961e-05
5.57655e-08
1.09555e-05
6.34237e-08
1.09559e-05
8.10776e-08
1.09622e-05
1.20116e-07
1.09671e-05
1.36552e-07
1.09693e-05
1.28345e-07
1.09729e-05
1.1966e-07
1.09797e-05
1.23191e-07
1.09856e-05
1.26487e-07
1.18846e-07
1.09887e-05
1.15166e-05
1.16991e-08
1.1524e-05
5.35448e-09
1.15176e-05
-5.52612e-08
1.15025e-05
-7.52505e-08
1.15027e-05
-6.47549e-09
1.15088e-05
4.46553e-08
1.15096e-05
3.96519e-08
1.15036e-05
9.79503e-09
1.14947e-05
-9.3339e-09
1.14898e-05
2.17748e-08
1.14865e-05
5.90298e-08
1.14817e-05
6.81879e-08
1.14816e-05
8.11658e-08
1.14874e-05
1.14329e-07
1.14926e-05
1.31349e-07
1.14953e-05
1.25721e-07
1.14983e-05
1.16598e-07
1.15043e-05
1.17247e-07
1.15104e-05
1.20355e-07
1.15121e-07
1.15141e-05
1.20669e-05
1.05774e-08
1.20727e-05
-3.75709e-10
1.20675e-05
-5.00395e-08
1.20533e-05
-6.11286e-08
1.20522e-05
-5.38868e-09
1.2058e-05
3.89277e-08
1.20589e-05
3.87216e-08
1.20529e-05
1.57695e-08
1.20442e-05
-6.10285e-10
1.20396e-05
2.63746e-08
1.20371e-05
6.14918e-08
1.20332e-05
7.21475e-08
1.20327e-05
8.16047e-08
1.20379e-05
1.09137e-07
1.20433e-05
1.25989e-07
1.20463e-05
1.22679e-07
1.20491e-05
1.138e-07
1.20542e-05
1.12144e-07
1.20603e-05
1.14307e-07
1.10867e-07
1.20645e-05
1.26436e-05
9.54741e-09
1.26474e-05
-4.13265e-09
1.26427e-05
-4.53692e-08
1.26303e-05
-4.87008e-08
1.26282e-05
-3.32646e-09
1.26332e-05
3.38982e-08
1.26345e-05
3.7474e-08
1.26288e-05
2.14307e-08
1.26203e-05
7.87653e-09
1.26159e-05
3.08347e-08
1.26141e-05
6.32823e-08
1.2611e-05
7.52801e-08
1.26103e-05
8.22519e-08
1.26149e-05
1.0455e-07
1.26203e-05
1.20579e-07
1.26237e-05
1.19255e-07
1.26265e-05
1.11036e-07
1.26309e-05
1.07725e-07
1.26366e-05
1.08613e-07
1.06202e-07
1.26413e-05
1.32479e-05
8.58609e-09
1.32494e-05
-5.62389e-09
1.32453e-05
-4.12933e-08
1.32349e-05
-3.8298e-08
1.32321e-05
-4.91115e-10
1.3236e-05
2.99396e-08
1.32375e-05
3.59865e-08
1.32325e-05
2.64502e-08
1.32244e-05
1.60217e-08
1.32199e-05
3.52775e-08
1.32186e-05
6.45568e-08
1.32163e-05
7.76025e-08
1.32156e-05
8.29175e-08
1.32197e-05
1.00537e-07
1.3225e-05
1.15226e-07
1.32288e-05
1.15503e-07
1.32316e-05
1.08204e-07
1.32355e-05
1.03804e-07
1.32407e-05
1.03434e-07
1.01342e-07
1.32456e-05
1.38811e-05
7.67852e-09
1.38811e-05
-5.64873e-09
1.38772e-05
-3.73716e-08
1.38686e-05
-2.97512e-08
1.38652e-05
2.92021e-09
1.38678e-05
2.73631e-08
1.38693e-05
3.44829e-08
1.38651e-05
3.06618e-08
1.38575e-05
2.36142e-08
1.3853e-05
3.9725e-08
1.38521e-05
6.5502e-08
1.38506e-05
7.91127e-08
1.385e-05
8.34839e-08
1.38535e-05
9.70553e-08
1.38587e-05
1.10062e-07
1.38627e-05
1.11503e-07
1.38656e-05
1.0525e-07
1.38692e-05
1.00203e-07
1.38739e-05
9.8739e-08
9.65238e-08
1.38787e-05
1.45445e-05
6.85407e-09
1.45434e-05
-4.55462e-09
1.45395e-05
-3.34367e-08
1.45326e-05
-2.291e-08
1.4529e-05
6.5559e-09
1.45301e-05
2.6265e-08
1.45313e-05
3.32989e-08
1.45279e-05
3.40555e-08
1.45211e-05
3.04006e-08
1.45167e-05
4.40983e-08
1.45159e-05
6.6314e-08
1.45151e-05
7.99051e-08
1.45147e-05
8.38523e-08
1.45178e-05
9.40348e-08
1.45227e-05
1.05129e-07
1.45269e-05
1.07338e-07
1.453e-05
1.02121e-07
1.45334e-05
9.67878e-08
1.45377e-05
9.44287e-08
9.19305e-08
1.45423e-05
1.52396e-05
6.15149e-09
1.5238e-05
-2.99635e-09
1.52338e-05
-2.91657e-08
1.52282e-05
-1.73608e-08
1.52247e-05
1.00772e-08
1.52244e-05
2.65132e-08
1.5225e-05
3.27531e-08
1.52223e-05
3.67532e-08
1.52165e-05
3.62137e-08
1.52123e-05
4.82615e-08
1.52115e-05
6.70974e-08
1.52113e-05
8.01495e-08
1.52112e-05
8.39152e-08
1.52139e-05
9.13904e-08
1.52185e-05
1.00446e-07
1.52228e-05
1.0307e-07
1.52261e-05
9.88237e-08
1.52294e-05
9.3468e-08
1.52334e-05
9.04234e-08
8.76303e-08
1.52377e-05
1.59679e-05
5.61416e-09
1.59662e-05
-1.3265e-09
1.59615e-05
-2.44917e-08
1.59568e-05
-1.26655e-08
1.59537e-05
1.32382e-08
1.59524e-05
2.77983e-08
1.59521e-05
3.30482e-08
1.59499e-05
3.8955e-08
1.59451e-05
4.1047e-08
1.59413e-05
5.20461e-08
1.59405e-05
6.78415e-08
1.59407e-05
7.99892e-08
1.5941e-05
8.36341e-08
1.59433e-05
8.90284e-08
1.59477e-05
9.60821e-08
1.5952e-05
9.8735e-08
1.59555e-05
9.53893e-08
1.59587e-05
9.01857e-08
1.59625e-05
8.66295e-08
8.35953e-08
1.59666e-05
1.67309e-05
5.27867e-09
1.67292e-05
4.49427e-10
1.67242e-05
-1.95752e-08
1.67201e-05
-8.50074e-09
1.67174e-05
1.59356e-08
1.67154e-05
2.97382e-08
1.67143e-05
3.41787e-08
1.67123e-05
4.0946e-08
1.67084e-05
4.49737e-08
1.67051e-05
5.53101e-08
1.67044e-05
6.85348e-08
1.67049e-05
7.95079e-08
1.67055e-05
8.30326e-08
1.67077e-05
8.68373e-08
1.67117e-05
9.20703e-08
1.6716e-05
9.44086e-08
1.67196e-05
9.1794e-08
1.67229e-05
8.69228e-08
1.67266e-05
8.29564e-08
7.97677e-08
1.67304e-05
1.75305e-05
5.15651e-09
1.75288e-05
2.11647e-09
1.75237e-05
-1.44728e-08
1.75197e-05
-4.48893e-09
1.75174e-05
1.82307e-08
1.75152e-05
3.19635e-08
1.75134e-05
3.60083e-08
1.75113e-05
4.29788e-08
1.75082e-05
4.81228e-08
1.75055e-05
5.79815e-08
1.75049e-05
6.9134e-08
1.75056e-05
7.87847e-08
1.75065e-05
8.21202e-08
1.75086e-05
8.47499e-08
1.75123e-05
8.83475e-08
1.75166e-05
9.01948e-08
1.75203e-05
8.80281e-08
1.75236e-05
8.36438e-08
1.75272e-05
7.93904e-08
7.60751e-08
1.75309e-05
1.83683e-05
5.24479e-09
1.83666e-05
3.73496e-09
1.83616e-05
-9.39604e-09
1.83575e-05
-4.32644e-10
1.83555e-05
2.0273e-08
1.83532e-05
3.42007e-08
1.83509e-05
3.83297e-08
1.83487e-05
4.51598e-08
1.83461e-05
5.07176e-08
1.8344e-05
6.0064e-08
1.83436e-05
6.95465e-08
1.83445e-05
7.79029e-08
1.83457e-05
8.08966e-08
1.83478e-05
8.27265e-08
1.83512e-05
8.48674e-08
1.83553e-05
8.61257e-08
1.83592e-05
8.41791e-08
1.83625e-05
8.02678e-08
1.8366e-05
7.59463e-08
7.24505e-08
1.83696e-05
1.92461e-05
5.51445e-09
1.92445e-05
5.35888e-09
1.92396e-05
-4.48933e-09
1.92354e-05
3.75317e-09
1.92334e-05
2.22466e-08
1.92313e-05
3.63278e-08
1.92287e-05
4.09004e-08
1.92264e-05
4.74746e-08
1.92242e-05