/*--------------------------------*- C++ -*----------------------------------*\
| =========                 |                                                 |
| \\      /  F ield         | OpenFOAM: The Open Source CFD Toolbox           |
|  \\    /   O peration     | Version:  v1812                                 |
|   \\  /    A nd           | Web:      www.OpenFOAM.com                      |
|    \\/     M anipulation  |                                                 |
\*---------------------------------------------------------------------------*/
FoamFile
{
    version     2.0;
    format      ascii;
    class       volScalarField;
    location    "3";
    object      p;
}
// * * * * * * * * * * * * * * * * * * * * * * * * * * * * * * * * * * * * * //

dimensions      [0 2 -2 0 0 0 0];


internalField   nonuniform List<scalar> 
9600
(
-2.52132e-11
-0.000520524
-0.000143116
-0.00160637
-0.00145909
0.000789475
-0.000669042
-0.00355181
-0.00139079
-0.00066076
-0.000488491
-6.80858e-06
0.00144346
0.00129864
0.00221164
0.00242301
0.00312208
0.00362538
0.00342839
0.00437327
4.45294e-07
-0.000525138
-0.000145669
-0.00160058
-0.00144899
0.000756975
-0.000677345
-0.00354129
-0.00139669
-0.000654459
-0.000479719
-1.35155e-05
0.00145627
0.00127736
0.00222138
0.00236086
0.00312144
0.00351978
0.0034409
0.00408325
5.09136e-07
-0.000529233
-0.000148106
-0.00159311
-0.00144065
0.000716508
-0.000686334
-0.00351667
-0.00140414
-0.000649224
-0.000472677
-2.51518e-05
0.00146713
0.00124307
0.0022254
0.00228403
0.00310831
0.0034082
0.00344209
0.00373818
3.1718e-07
-0.000532305
-0.000151559
-0.00158607
-0.001432
0.000675411
-0.000696765
-0.00348117
-0.00141371
-0.000645774
-0.000465602
-4.26898e-05
0.00147606
0.00119638
0.00222129
0.00220515
0.00308753
0.00331376
0.00341622
0.00343119
-1.28633e-08
-0.000534608
-0.000156797
-0.00157864
-0.0014187
0.000632554
-0.000708656
-0.00343491
-0.00142401
-0.000642521
-0.00045826
-6.44934e-05
0.00148539
0.00113986
0.00222063
0.00212432
0.00307126
0.00322278
0.00336469
0.00318448
-4.68353e-07
-0.000536207
-0.000163585
-0.00156953
-0.00140075
0.000587098
-0.000719498
-0.00337902
-0.00143279
-0.000638666
-0.000451336
-8.7416e-05
0.00149527
0.00108034
0.00222439
0.00204318
0.00305863
0.00313067
0.00329609
0.00297525
-1.01621e-06
-0.000537185
-0.000171407
-0.00155828
-0.00137936
0.000539783
-0.000727724
-0.00331512
-0.00143852
-0.000634116
-0.000444979
-0.000109406
0.00150616
0.00102077
0.00222843
0.00196452
0.00304103
0.00304399
0.00320683
0.00278761
-1.5902e-06
-0.000537707
-0.000179812
-0.00154492
-0.00135539
0.000491239
-0.000733068
-0.00324493
-0.00144067
-0.000628911
-0.000439226
-0.000129486
0.00151865
0.000961426
0.00223121
0.00188902
0.00301373
0.00296686
0.00309029
0.0026173
-2.146e-06
-0.000537972
-0.000188454
-0.00152983
-0.00132962
0.000441681
-0.000735892
-0.00317009
-0.00143935
-0.000623098
-0.000434194
-0.000147192
0.00153281
0.000902358
0.00223183
0.00181768
0.00297479
0.00290025
0.00294616
0.00246193
-2.65383e-06
-0.000538134
-0.000197152
-0.00151354
-0.00130277
0.000391232
-0.000736781
-0.00309207
-0.00143503
-0.000616688
-0.000430054
-0.00016253
0.00154807
0.000844151
0.00222855
0.00175287
0.0029217
0.00284422
0.00277676
0.00231464
-3.09766e-06
-0.000538301
-0.000205855
-0.00149658
-0.00127529
0.000340043
-0.000736347
-0.00301211
-0.00142829
-0.000609644
-0.00042702
-0.000175831
0.00156352
0.000787907
0.00221923
0.00169701
0.00285166
0.00279751
0.00258532
0.002167
-3.48323e-06
-0.000538548
-0.000214542
-0.00147927
-0.00124738
0.000288278
-0.000735125
-0.0029312
-0.0014197
-0.00060185
-0.000425297
-0.000187487
0.001578
0.000735137
0.00220151
0.00165144
0.00276275
0.0027573
0.00237728
0.00201144
-3.81216e-06
-0.000538917
-0.000223194
-0.00146175
-0.0012192
0.000236102
-0.000733533
-0.00285004
-0.00140975
-0.000593109
-0.000425058
-0.000197869
0.00159036
0.000687466
0.00217284
0.00161661
0.00265439
0.00271966
0.00216004
0.00184173
-4.07728e-06
-0.000539436
-0.000231794
-0.00144403
-0.0011908
0.000183683
-0.000731865
-0.00276902
-0.00139883
-0.000583142
-0.000426503
-0.000207253
0.00159957
0.000646089
0.00213099
0.00159236
0.00252762
0.00267952
0.00194138
0.00165435
-4.27102e-06
-0.000540125
-0.000240328
-0.00142606
-0.00116226
0.000131203
-0.000730304
-0.00268838
-0.00138734
-0.000571572
-0.000429876
-0.000215829
0.00160491
0.000611675
0.00207442
0.00157759
0.00238516
0.00263088
0.00172834
0.00144897
-4.38409e-06
-0.000541005
-0.000248786
-0.00140781
-0.00113364
7.88654e-05
-0.000728991
-0.00260818
-0.00137564
-0.000558057
-0.000435319
-0.000223774
0.00160578
0.000584675
0.00200232
0.00157
0.00223091
0.00256781
0.00152692
0.00122767
-4.40672e-06
-0.00054209
-0.000257163
-0.00138925
-0.00110503
2.68915e-05
-0.000728071
-0.00252838
-0.00136407
-0.000542353
-0.000442935
-0.000231226
0.00160165
0.000565033
0.00191488
0.00156653
0.00206903
0.00248581
0.00134144
0.000993718
-4.33057e-06
-0.000543393
-0.000265462
-0.00137037
-0.00107656
-2.44868e-05
-0.000727688
-0.00244884
-0.00135297
-0.000524189
-0.000452825
-0.000238453
0.00159231
0.00055204
0.00181352
0.00156378
0.0019032
0.0023827
0.00117447
0.000750959
-4.14851e-06
-0.000544919
-0.000273688
-0.00135112
-0.00104836
-7.499e-05
-0.000728042
-0.00236935
-0.00134271
-0.00050341
-0.000464704
-0.000246111
0.0015778
0.000545196
0.00170012
0.00155836
0.00173668
0.00225779
0.00102646
0.000503924
-3.85544e-06
-0.000546671
-0.000281846
-0.00133149
-0.00102063
-0.000124283
-0.000729378
-0.00228972
-0.00133362
-0.000480166
-0.000477901
-0.000254912
0.00155826
0.000546429
0.00157641
0.00154765
0.00157249
0.00211101
0.000895816
0.000257962
-3.45654e-06
-0.000548636
-0.000289953
-0.00131136
-0.000993604
-0.000172015
-0.00073194
-0.00220987
-0.00132587
-0.000454704
-0.000491744
-0.000265722
0.0015341
0.000544477
0.00144411
0.00152958
0.00141261
0.00194295
0.000780287
1.91997e-05
-2.96533e-06
-0.000550774
-0.000298061
-0.00129063
-0.000967538
-0.000217835
-0.000735978
-0.00212975
-0.0013196
-0.000427367
-0.000505478
-0.000279933
0.00150635
0.000543418
0.00130459
0.00150235
0.00125824
0.00175502
0.000677106
-0.000206114
-2.40536e-06
-0.000553024
-0.000306248
-0.00126918
-0.000942682
-0.000261382
-0.000741748
-0.00204936
-0.00131478
-0.000398928
-0.000517794
-0.000298812
0.00147548
0.000543252
0.00115836
0.00146472
0.00111157
0.00154842
0.00058209
-0.000411693
-1.82639e-06
-0.000555278
-0.000314598
-0.00124686
-0.000919327
-0.000302293
-0.000749464
-0.00196875
-0.00131118
-0.000370513
-0.000526955
-0.000323089
0.0014408
0.000543806
0.00100572
0.00141568
0.000974986
0.00132421
0.00049008
-0.000591171
-1.29751e-06
-0.000557391
-0.000323227
-0.00122352
-0.000897752
-0.000340297
-0.000759197
-0.00188805
-0.00130841
-0.000343365
-0.000531638
-0.000353253
0.00140178
0.000545364
0.000847231
0.0013534
0.000850623
0.00108522
0.000395101
-0.000739403
-9.10812e-07
-0.000559174
-0.0003323
-0.00119904
-0.000878166
-0.000375248
-0.00077091
-0.00180751
-0.00130576
-0.000318854
-0.0005311
-0.000389488
0.00135778
0.000548538
0.000683654
0.0012754
0.000741044
0.00083654
0.000290008
-0.000853198
-7.97846e-07
-0.000560288
-0.000341946
-0.00117337
-0.00086073
-0.000407016
-0.00078448
-0.00172738
-0.00130224
-0.000298236
-0.000524873
-0.000431101
0.00130705
0.000553752
0.000516449
0.00117924
0.000648057
0.000584421
0.000166735
-0.000932203
-1.09951e-06
-0.00056043
-0.00035228
-0.00114653
-0.00084559
-0.000435582
-0.000799379
-0.00164878
-0.00129715
-0.000282557
-0.000512765
-0.0004767
0.00124703
0.000561186
0.00034743
0.00106209
0.000571779
0.000337312
1.77299e-05
-0.000981873
-1.9758e-06
-0.00055927
-0.000363413
-0.00111851
-0.000832827
-0.000461145
-0.000814791
-0.00157382
-0.00129003
-0.000272528
-0.000495255
-0.000524863
0.00117567
0.000570305
0.000179109
0.000921622
0.000509629
0.000105747
-0.000160781
-0.00101378
-3.6307e-06
-0.000556373
-0.000375389
-0.00108945
-0.000822311
-0.00048409
-0.000829993
-0.00150453
-0.00128045
-0.000268702
-0.000473326
-0.000574245
0.00109186
0.000579795
1.51222e-05
0.000757259
0.000456201
-0.000100153
-0.000366475
-0.00104479
-6.2685e-06
-0.00055148
-0.000388184
-0.0010596
-0.000813694
-0.00050509
-0.000844257
-0.00144033
-0.00126837
-0.00027141
-0.00044818
-0.000623197
0.000994419
0.000587747
-0.000140162
0.000569651
0.000404156
-0.000272513
-0.000590626
-0.00109454
-1.00812e-05
-0.000544324
-0.00040164
-0.0010294
-0.000806452
-0.000524865
-0.000856947
-0.0013805
-0.00125411
-0.000280854
-0.000421471
-0.000669863
0.000882671
0.000591159
-0.000282723
0.000361219
0.0003456
-0.000407654
-0.00082013
-0.00117932
-1.52213e-05
-0.000534694
-0.000415481
-0.00099957
-0.000799871
-0.000543759
-0.000867668
-0.001324
-0.00123799
-0.000297468
-0.000395218
-0.000712968
0.000757046
0.000586934
-0.000409471
0.000136506
0.000272811
-0.00050763
-0.00103989
-0.00130427
-2.18274e-05
-0.000522452
-0.000429258
-0.000970988
-0.000793257
-0.000561956
-0.000876601
-0.00127022
-0.00122003
-0.000321244
-0.000371738
-0.000751963
0.000618689
0.000572331
-0.000517876
-9.91243e-05
0.0001795
-0.000578535
-0.00123659
-0.00146174
-3.00371e-05
-0.000507661
-0.000442095
-0.000944423
-0.00078624
-0.000579314
-0.000884395
-0.00121968
-0.0012001
-0.000351879
-0.000353275
-0.000786397
0.000469319
0.000544789
-0.000606494
-0.000340106
6.19309e-05
-0.000627741
-0.00140186
-0.00163788
-3.98722e-05
-0.000490836
-0.000452753
-0.00092021
-0.000778895
-0.000595134
-0.000891517
-0.00117217
-0.00117834
-0.000388925
-0.000342248
-0.000816249
0.000311669
0.000501918
-0.000674979
-0.00057978
-8.20829e-05
-0.000663552
-0.00153227
-0.00181914
-5.12392e-05
-0.000472892
-0.000460101
-0.000898016
-0.000771996
-0.000608718
-0.00089798
-0.00112887
-0.0011553
-0.000431711
-0.000341007
-0.000842101
0.000149197
0.000441778
-0.00072407
-0.000810105
-0.000253187
-0.000695112
-0.00162737
-0.00199464
-6.39682e-05
-0.000454825
-0.000463324
-0.000876564
-0.000766885
-0.000620076
-0.000903273
-0.00108934
-0.00113236
-0.000479222
-0.000350653
-0.000864381
-1.48074e-05
0.000363128
-0.000755913
-0.00102319
-0.000450342
-0.000732223
-0.00168773
-0.00215506
-7.78592e-05
-0.000437417
-0.000461993
-0.000854294
-0.000764462
-0.000630422
-0.000906967
-0.00106227
-0.00111118
-0.000529632
-0.00037091
-0.000883322
-0.000177385
0.000265471
-0.000774976
-0.00121257
-0.000669897
-0.000785677
-0.00171674
-0.0022909
-9.2618e-05
-0.000421333
-0.000456234
-0.000829704
-0.000764732
-0.000642058
-0.000909713
-0.00104531
-0.00109274
-0.000580883
-0.000400204
-0.000899725
-0.000335444
0.000149081
-0.000787917
-0.00137328
-0.00090397
-0.000865507
-0.00172281
-0.00239339
-0.000107613
-0.000407145
-0.000447174
-0.000801531
-0.000766802
-0.000657066
-0.000912849
-0.00102924
-0.00107776
-0.00063118
-0.000436487
-0.000914382
-0.000486529
1.54259e-05
-0.00080187
-0.00150343
-0.00114237
-0.000977286
-0.00171822
-0.00245767
-0.000121832
-0.000395237
-0.000436814
-0.000768834
-0.00076894
-0.000676553
-0.000917887
-0.00101343
-0.00106764
-0.000679663
-0.000476828
-0.000926942
-0.00062931
-0.000133655
-0.000823062
-0.00160402
-0.00137491
-0.00112093
-0.00171711
-0.00248515
-0.000134684
-0.000385399
-0.000427009
-0.000731801
-0.000769029
-0.00070024
-0.000926513
-0.00100626
-0.00106624
-0.000726373
-0.000517526
-0.000936933
-0.000762388
-0.000295492
-0.000856375
-0.00167805
-0.00159254
-0.00129133
-0.0017315
-0.00248318
-0.00014594
-0.000376709
-0.00041861
-0.000691566
-0.000765809
-0.000729029
-0.000939933
-0.0010523
-0.00107524
-0.000771622
-0.000557886
-0.000945586
-0.000882964
-0.000465354
-0.000905879
-0.00173106
-0.001788
-0.00148048
-0.0017693
-0.00246335
-0.000155269
-0.000368549
-0.000412223
-0.000650581
-0.000757881
-0.000764192
-0.000959881
-0.00110511
-0.00108568
-0.000816797
-0.000601332
-0.000954829
-0.000989662
-0.000638149
-0.000974218
-0.00176985
-0.00195609
-0.00167944
-0.0018347
-0.00243885
-0.000162496
-0.000359996
-0.000409343
-0.000614554
-0.000749301
-0.000799185
-0.000980068
-0.00107379
-0.00109615
-0.000864852
-0.000652549
-0.00096609
-0.00108187
-0.00080898
-0.0010614
-0.00180218
-0.00209474
-0.00187876
-0.00192749
-0.00242066
-0.000167734
-0.000350768
-0.000410999
-0.000585396
-0.000735861
-0.000830103
-0.00100202
-0.00107801
-0.00110735
-0.000917525
-0.000713369
-0.000982583
-0.00116023
-0.000972322
-0.00116416
-0.00183477
-0.00220534
-0.00206898
-0.00204369
-0.00241687
-0.000171299
-0.000340725
-0.000416013
-0.000563973
-0.000719371
-0.000855984
-0.00102611
-0.00108734
-0.0011193
-0.000971981
-0.000781752
-0.00100714
-0.00122761
-0.0011237
-0.00127789
-0.00187296
-0.00229246
-0.00224268
-0.00217698
-0.00243307
-0.000173582
-0.000329478
-0.000422754
-0.000551848
-0.000702941
-0.000875493
-0.00105178
-0.00110164
-0.00113182
-0.00102402
-0.000855221
-0.00104192
-0.0012875
-0.00126095
-0.00139775
-0.00192026
-0.00236222
-0.00239536
-0.00231908
-0.00247115
-0.000174883
-0.000317002
-0.000429629
-0.000549613
-0.000690418
-0.000888406
-0.00107682
-0.00112086
-0.00114542
-0.00107256
-0.000933616
-0.00108683
-0.00134387
-0.00138453
-0.00151865
-0.00197735
-0.00242118
-0.0025258
-0.00246134
-0.00252886
-0.000175416
-0.000303327
-0.000435905
-0.000557399
-0.000684058
-0.000894594
-0.00109859
-0.00114482
-0.00116254
-0.00111776
-0.00101099
-0.00114023
-0.00139954
-0.00149635
-0.00163717
-0.00204294
-0.00247482
-0.00263503
-0.00259634
-0.00260115
-0.000175357
-0.000289138
-0.000441145
-0.00057378
-0.000684955
-0.000895448
-0.00111596
-0.00117285
-0.00118464
-0.00116023
-0.00108543
-0.00120032
-0.00145584
-0.00159762
-0.00175112
-0.00211437
-0.00252657
-0.00272613
-0.00271978
-0.002683
-0.000175102
-0.000275836
-0.000444538
-0.000595098
-0.000694212
-0.000894467
-0.00112834
-0.00120287
-0.00121287
-0.00120139
-0.00115576
-0.00126406
-0.00151362
-0.0016901
-0.00185918
-0.00218924
-0.00257842
-0.00280339
-0.00282933
-0.00276939
-0.000175292
-0.000264992
-0.000444924
-0.000617197
-0.000712203
-0.000895599
-0.00113586
-0.00123266
-0.00124704
-0.00124457
-0.00122242
-0.00132794
-0.00157227
-0.00177614
-0.00196099
-0.0022656
-0.00263091
-0.00287003
-0.0029234
-0.00285476
-0.000176156
-0.0002573
-0.000442721
-0.00063773
-0.000738303
-0.000902073
-0.00113963
-0.00126031
-0.00128602
-0.00129068
-0.00128658
-0.00139075
-0.00162949
-0.00185591
-0.00205673
-0.00234205
-0.00268435
-0.00292926
-0.00300295
-0.00293449
-0.000177708
-0.000252933
-0.000439096
-0.000655452
-0.000770409
-0.000915901
-0.001142
-0.00128406
-0.00132728
-0.00133984
-0.0013498
-0.00145343
-0.00168478
-0.00192817
-0.00214597
-0.00241739
-0.00273826
-0.00298375
-0.00307078
-0.00300515
-0.000179919
-0.00025192
-0.000436293
-0.000669855
-0.000805741
-0.000938065
-0.00114616
-0.0013034
-0.00136786
-0.00139183
-0.00141303
-0.00151598
-0.00173918
-0.00199299
-0.00222749
-0.00249057
-0.00279123
-0.00303439
-0.00312999
-0.00306569
-0.00018278
-0.000254213
-0.000436272
-0.000679935
-0.000841369
-0.00096837
-0.00115496
-0.00131908
-0.00140524
-0.00144506
-0.00147729
-0.00157819
-0.00179239
-0.00205189
-0.00230035
-0.00256031
-0.00284259
-0.00308069
-0.00318288
-0.00311774
-0.000186548
-0.000259585
-0.000439729
-0.000689252
-0.000875135
-0.00100514
-0.00117061
-0.00133331
-0.00143823
-0.00149639
-0.00154195
-0.00164143
-0.00184412
-0.00210503
-0.00236427
-0.00262476
-0.00289277
-0.00312268
-0.00322993
-0.00316351
-0.000191557
-0.00026754
-0.000447338
-0.000698605
-0.000906022
-0.00104571
-0.00119402
-0.00134894
-0.00146718
-0.00154335
-0.00160423
-0.00170591
-0.00189601
-0.00215245
-0.00241956
-0.00268243
-0.002941
-0.00316121
-0.00327059
-0.00320412
-0.000198256
-0.000277785
-0.00045915
-0.000709956
-0.000934152
-0.00108747
-0.00122486
-0.0013682
-0.00149297
-0.00158555
-0.00166167
-0.00176844
-0.00194931
-0.0021964
-0.00246681
-0.00273256
-0.00298492
-0.0031966
-0.00330514
-0.00323953
-0.000207213
-0.000290233
-0.000474792
-0.000724572
-0.00096035
-0.00112848
-0.00126157
-0.00139276
-0.00151733
-0.00162275
-0.00171393
-0.00182651
-0.0020013
-0.00223889
-0.00250714
-0.00277487
-0.00302301
-0.00322787
-0.00333447
-0.00326945
-0.000218923
-0.000305
-0.00049384
-0.000743105
-0.000986148
-0.0011679
-0.00130178
-0.00142287
-0.00154273
-0.00165492
-0.00175997
-0.00187996
-0.00204943
-0.00227876
-0.00254192
-0.00280917
-0.00305494
-0.00325375
-0.00335823
-0.00329348
-0.000233853
-0.000322418
-0.000515924
-0.000765798
-0.00101312
-0.00120588
-0.00134337
-0.00145736
-0.00157079
-0.00168424
-0.00179851
-0.00192728
-0.00209364
-0.00231393
-0.00257095
-0.00283516
-0.00307962
-0.00327359
-0.00337529
-0.0033113
-0.000252456
-0.000343006
-0.000540819
-0.000792461
-0.00104245
-0.00124314
-0.00138529
-0.00149485
-0.00160119
-0.00171287
-0.0018308
-0.00196563
-0.0021323
-0.00234389
-0.00259275
-0.00285229
-0.00309487
-0.00328605
-0.00338466
-0.00332161
-0.000275156
-0.000367254
-0.000568731
-0.000822859
-0.00107481
-0.00128071
-0.00142731
-0.0015345
-0.00163347
-0.00174041
-0.00185853
-0.00199497
-0.0021617
-0.00236698
-0.00260619
-0.00285953
-0.00309915
-0.00328918
-0.00338577
-0.00332398
-0.000302327
-0.000395633
-0.00059998
-0.000856967
-0.00111075
-0.0013197
-0.0014695
-0.00157543
-0.00166782
-0.00176682
-0.00188131
-0.00201659
-0.00218029
-0.00237977
-0.00260978
-0.00285518
-0.00309086
-0.00328022
-0.00337707
-0.00331734
-0.000334292
-0.000428565
-0.000635147
-0.000894829
-0.00115037
-0.00136125
-0.00151291
-0.00161696
-0.00170352
-0.00179332
-0.00189875
-0.00202966
-0.00218813
-0.00237959
-0.00260119
-0.00283778
-0.00306785
-0.0032558
-0.00335413
-0.00329773
-0.0003715
-0.000466483
-0.000674856
-0.000936904
-0.00119382
-0.00140578
-0.00155851
-0.00166006
-0.00174005
-0.00182043
-0.00191271
-0.00203289
-0.00218289
-0.00236291
-0.00257527
-0.00280423
-0.00302794
-0.00321419
-0.00331458
-0.0032625
-0.000414454
-0.000509793
-0.000719476
-0.00098357
-0.00124188
-0.00145433
-0.00160654
-0.0017054
-0.00177881
-0.00184858
-0.00192623
-0.00202902
-0.00216259
-0.00232473
-0.00252118
-0.002742
-0.00296131
-0.00314861
-0.00325618
-0.00321431
-0.000463776
-0.000558687
-0.00076972
-0.001035
-0.00129441
-0.00150805
-0.00165908
-0.00175399
-0.00182097
-0.00187861
-0.00194057
-0.00202363
-0.00213097
-0.00226562
-0.00243244
-0.00262944
-0.00284036
-0.00303155
-0.00315601
-0.00313963
-0.000520522
-0.000615278
-0.000825334
-0.00109089
-0.00135214
-0.00156693
-0.00171791
-0.00180897
-0.00186832
-0.00191246
-0.00195404
-0.00201535
-0.0020935
-0.00219161
-0.00231589
-0.00246719
-0.00264325
-0.00281459
-0.00294007
-0.00295354
-0.000584723
-0.000678684
-0.000887182
-0.00115319
-0.00141608
-0.00163186
-0.00178454
-0.0018749
-0.00192802
-0.00195652
-0.00197
-0.00199552
-0.00203728
-0.0020948
-0.00218036
-0.00229423
-0.00243203
-0.00255827
-0.00262825
-0.00258924
-0.000655102
-0.000747435
-0.000957689
-0.00122404
-0.00148479
-0.00170091
-0.00185827
-0.00195732
-0.00201794
-0.00204032
-0.00201427
-0.00195882
-0.00188578
-0.00181153
-0.00178506
-0.00184398
-0.00200657
-0.00225421
-0.00251252
-0.00267343
-0.000735875
-0.000829152
-0.00103719
-0.00129761
-0.00155133
-0.0017661
-0.00192979
-0.00204726
-0.00213742
-0.00221316
-0.00226648
-0.0022828
-0.00217498
-0.00187963
-0.00152222
-0.0012162
-0.000951026
-0.000707566
-0.000501088
-0.000400279
-0.000831476
-0.000924683
-0.0011265
-0.0013766
-0.00161738
-0.00182268
-0.00198863
-0.00211861
-0.00221343
-0.00221833
-0.00206916
-0.00181527
-0.0015469
-0.00133775
-0.00121025
-0.00115182
-0.00113472
-0.00111951
-0.0011091
-0.00113836
-0.000944792
-0.00101838
-0.00121587
-0.00146766
-0.00172135
-0.00194661
-0.00210003
-0.00212707
-0.00204447
-0.00192304
-0.00180654
-0.00172483
-0.00166328
-0.00158342
-0.00144126
-0.00121594
-0.00093319
-0.000625188
-0.000355785
-0.000203015
-0.00110552
-0.00116217
-0.00127313
-0.00142637
-0.0015953
-0.00175187
-0.00186591
-0.00191291
-0.0019029
-0.00185928
-0.00178626
-0.00170492
-0.00162659
-0.00156014
-0.00156216
-0.00165725
-0.00184966
-0.00211306
-0.0024198
-0.00266796
-0.00127233
-0.00134123
-0.00138504
-0.00145433
-0.00157375
-0.00172094
-0.00185684
-0.00194527
-0.00196682
-0.00194772
-0.00188605
-0.00177804
-0.00166682
-0.00152944
-0.00134555
-0.0011185
-0.000864288
-0.000627085
-0.000427768
-0.000369756
-0.00137114
-0.00143953
-0.00148234
-0.00152018
-0.001588
-0.00168561
-0.00177227
-0.00182475
-0.00182736
-0.00180652
-0.00178874
-0.00174138
-0.00168855
-0.00163748
-0.0015689
-0.00149076
-0.00140719
-0.00133548
-0.00129489
-0.00134714
0.00632853
0.00325749
-0.00354212
-0.00831265
-0.00906292
-0.00772922
-0.00612985
-0.00490267
-0.00419866
-0.00399014
-0.0040717
-0.00410464
-0.00389701
-0.00355866
-0.00325985
-0.00304815
-0.00293595
-0.00286647
-0.0026805
-0.00235571
-0.00204597
-0.00183184
-0.00167329
-0.00150752
-0.0012885
-0.00104399
-0.000849631
-0.000713923
-0.000577733
-0.000408665
-0.000234321
-8.49645e-05
6.08747e-05
0.000249828
0.000480405
0.00071017
0.000926023
0.00115834
0.00141627
0.00166113
0.00187265
0.00207852
0.00229695
0.002508
0.00271384
0.00295225
0.00321812
0.00348243
0.00375508
0.00404999
0.0043387
0.00459257
0.00484895
0.00513288
0.00540798
0.00568759
0.00600676
0.00633453
0.00665543
0.00698694
0.00731934
0.00764619
0.00797909
0.00832306
0.00867745
0.00904212
0.00941614
0.00979984
0.0101868
0.0105773
0.0109749
0.0113844
0.011803
0.012231
0.0126639
0.0131059
0.013557
0.0140221
0.0144941
0.0149762
0.0154641
0.0159656
0.0164773
0.0170024
0.0175343
0.0180785
0.0186325
0.0191987
0.0197766
0.0203658
0.0209672
0.0215768
0.0222
0.0228355
0.0234816
0.0241407
0.0248268
0.0255016
0.0262916
0.0271001
0.00576472
0.00317069
-0.00343383
-0.00819618
-0.0089964
-0.00769361
-0.00610474
-0.00488282
-0.00418291
-0.00397772
-0.00406229
-0.00409768
-0.00389155
-0.00355392
-0.00325545
-0.00304389
-0.00293195
-0.00286307
-0.00267762
-0.00235294
-0.00204321
-0.00182925
-0.00167096
-0.00150548
-0.00128668
-0.00104224
-0.000847938
-0.000712378
-0.000576356
-0.00040739
-0.00023309
-8.37961e-05
6.19321e-05
0.000250787
0.000481325
0.000711062
0.000926851
0.00115909
0.00141699
0.00166185
0.00187334
0.00207916
0.00229756
0.0025086
0.0027144
0.00295276
0.00321862
0.00348291
0.00375553
0.00405042
0.00433914
0.004593
0.00484934
0.00513326
0.00540835
0.00568793
0.00600708
0.00633485
0.00665574
0.00698724
0.00731963
0.00764646
0.00797935
0.00832331
0.00867769
0.00904235
0.00941636
0.00980006
0.010187
0.0105775
0.0109751
0.0113846
0.0118032
0.0122312
0.012664
0.0131061
0.0135571
0.0140223
0.0144942
0.0149763
0.0154643
0.0159657
0.0164775
0.0170025
0.0175344
0.0180786
0.0186326
0.0191988
0.0197767
0.0203659
0.0209672
0.0215769
0.0222001
0.0228356
0.0234816
0.0241408
0.0248269
0.0255016
0.0262916
0.0271003
0.00523186
0.00314787
-0.00317966
-0.00795558
-0.0088778
-0.00764881
-0.00608352
-0.00486637
-0.0041682
-0.00396462
-0.00405047
-0.00408744
-0.00388343
-0.00354799
-0.00325114
-0.00304024
-0.00292846
-0.0028599
-0.00267483
-0.00235032
-0.00204071
-0.0018269
-0.00166878
-0.00150353
-0.00128493
-0.00104058
-0.000846373
-0.000710973
-0.000575103
-0.000406228
-0.000231987
-8.27757e-05
6.28405e-05
0.000251624
0.000482149
0.000711861
0.000927579
0.00115976
0.00141765
0.00166251
0.00187396
0.00207972
0.0022981
0.00250912
0.00271487
0.0029532
0.00321905
0.00348333
0.00375592
0.00405081
0.00433954
0.00459337
0.00484967
0.00513359
0.00540867
0.00568821
0.00600735
0.00633513
0.006656
0.00698749
0.00731988
0.0076467
0.00797957
0.00832352
0.00867789
0.00904255
0.00941655
0.00980024
0.0101871
0.0105777
0.0109753
0.0113847
0.0118034
0.0122313
0.0126642
0.0131062
0.0135573
0.0140224
0.0144943
0.0149764
0.0154644
0.0159658
0.0164776
0.0170026
0.0175345
0.0180787
0.0186327
0.0191989
0.0197768
0.020366
0.0209673
0.021577
0.0222002
0.0228356
0.0234817
0.0241408
0.0248269
0.0255017
0.0262917
0.0271006
0.00474633
0.0031342
-0.00286486
-0.00764669
-0.00871767
-0.00759134
-0.00605904
-0.00484671
-0.00415042
-0.00394942
-0.00403555
-0.00407181
-0.0038693
-0.00353775
-0.00324489
-0.00303606
-0.00292445
-0.00285565
-0.00267092
-0.0023472
-0.00203824
-0.00182452
-0.0016662
-0.00150102
-0.00128274
-0.00103866
-0.000844582
-0.000709279
-0.000573559
-0.000404873
-0.000230788
-8.16829e-05
6.3837e-05
0.000252552
0.00048305
0.000712728
0.000928377
0.00116049
0.00141838
0.00166323
0.00187462
0.00208031
0.00229867
0.00250966
0.00271535
0.00295365
0.00321951
0.00348376
0.00375633
0.00405123
0.00433996
0.00459376
0.00485
0.00513393
0.00540899
0.00568849
0.00600764
0.00633543
0.00665627
0.00698775
0.00732014
0.00764694
0.0079798
0.00832374
0.0086781
0.00904275
0.00941674
0.00980043
0.0101873
0.0105779
0.0109755
0.0113849
0.0118035
0.0122315
0.0126643
0.0131064
0.0135574
0.0140225
0.0144945
0.0149766
0.0154645
0.015966
0.0164777
0.0170027
0.0175346
0.0180788
0.0186328
0.019199
0.0197769
0.020366
0.0209674
0.021577
0.0222002
0.0228357
0.0234818
0.0241409
0.024827
0.0255017
0.0262917
0.0271011
0.0042589
0.00307445
-0.00254381
-0.0073122
-0.00854009
-0.00752851
-0.00603325
-0.00482431
-0.00412965
-0.00393216
-0.00401735
-0.00405028
-0.00384827
-0.00352197
-0.00323542
-0.00303035
-0.00291898
-0.00284908
-0.00266467
-0.00234294
-0.00203569
-0.00182211
-0.00166303
-0.00149759
-0.00127987
-0.00103639
-0.000842409
-0.000706923
-0.000571282
-0.000403006
-0.000229303
-8.03459e-05
6.51136e-05
0.000253723
0.000484118
0.000713745
0.000929358
0.00116141
0.00141925
0.00166408
0.00187541
0.00208102
0.00229931
0.00251027
0.0027159
0.00295417
0.00322002
0.00348425
0.0037568
0.0040517
0.00434044
0.00459419
0.00485038
0.00513431
0.00540935
0.0056888
0.00600795
0.00633575
0.00665658
0.00698805
0.00732043
0.00764721
0.00798005
0.00832398
0.00867833
0.00904297
0.00941696
0.00980064
0.0101875
0.0105781
0.0109756
0.0113851
0.0118037
0.0122316
0.0126645
0.0131065
0.0135575
0.0140227
0.0144946
0.0149767
0.0154646
0.0159661
0.0164778
0.0170028
0.0175347
0.0180789
0.0186329
0.0191991
0.019777
0.0203661
0.0209675
0.0215771
0.0222003
0.0228358
0.0234819
0.0241409
0.0248271
0.0255018
0.0262917
0.0271018
0.00375933
0.00295941
-0.00222324
-0.00695655
-0.00834792
-0.00746159
-0.00600711
-0.00480043
-0.00410657
-0.00391319
-0.00399718
-0.00402525
-0.00382276
-0.00350212
-0.00322311
-0.00302278
-0.0029114
-0.0028394
-0.0026553
-0.00233696
-0.00203284
-0.00181964
-0.00165919
-0.00149309
-0.00127627
-0.00103397
-0.000840033
-0.000703814
-0.000567955
-0.000400311
-0.000227303
-7.85463e-05
6.68962e-05
0.000255291
0.000485399
0.000714926
0.000930568
0.00116258
0.00142034
0.00166513
0.00187641
0.00208191
0.00230008
0.00251097
0.00271656
0.00295478
0.0032206
0.00348482
0.00375737
0.00405226
0.00434098
0.00459468
0.00485083
0.00513474
0.00540975
0.00568916
0.00600832
0.00633612
0.00665692
0.00698839
0.00732076
0.00764751
0.00798033
0.00832425
0.00867859
0.00904322
0.0094172
0.00980087
0.0101878
0.0105783
0.0109758
0.0113853
0.0118039
0.0122318
0.0126647
0.0131067
0.0135577
0.0140228
0.0144948
0.0149768
0.0154648
0.0159662
0.0164779
0.0170029
0.0175348
0.018079
0.018633
0.0191992
0.0197771
0.0203662
0.0209676
0.0215772
0.0222004
0.0228359
0.0234819
0.024141
0.0248271
0.0255018
0.0262916
0.0271026
0.00326156
0.00280053
-0.00190126
-0.0065781
-0.00813955
-0.00738984
-0.00598099
-0.00477587
-0.00408137
-0.00389234
-0.00397569
-0.00399876
-0.0037955
-0.00348062
-0.00320947
-0.00301388
-0.00290174
-0.00282658
-0.00264275
-0.00232907
-0.00202937
-0.0018169
-0.00165462
-0.0014875
-0.00127201
-0.00103158
-0.000837748
-0.000700187
-0.000563637
-0.000396684
-0.000224587
-7.60182e-05
6.94785e-05
0.000257484
0.000487003
0.000716303
0.000932017
0.00116399
0.00142161
0.0016664
0.00187773
0.00208309
0.00230105
0.00251183
0.00271737
0.00295551
0.00322126
0.00348548
0.00375808
0.00405295
0.00434162
0.00459529
0.00485138
0.00513524
0.00541021
0.00568959
0.00600875
0.00633654
0.00665732
0.00698878
0.00732114
0.00764786
0.00798066
0.00832456
0.00867889
0.0090435
0.00941747
0.00980114
0.010188
0.0105785
0.0109761
0.0113855
0.0118041
0.012232
0.0126649
0.0131069
0.0135579
0.014023
0.0144949
0.014977
0.0154649
0.0159663
0.0164781
0.0170031
0.0175349
0.0180791
0.0186331
0.0191993
0.0197772
0.0203663
0.0209677
0.0215773
0.0222005
0.022836
0.023482
0.0241411
0.0248272
0.0255018
0.0262916
0.0271036
0.0027823
0.00260398
-0.00158375
-0.00617971
-0.00791468
-0.00731322
-0.00595561
-0.00475144
-0.00405425
-0.00386943
-0.00395302
-0.00397146
-0.00376742
-0.00345843
-0.00319528
-0.00300423
-0.00289059
-0.00281138
-0.00262768
-0.00231944
-0.00202511
-0.00181369
-0.00164932
-0.00148096
-0.00126713
-0.00102924
-0.000835707
-0.000696406
-0.000558732
-0.000392382
-0.000221196
-7.2623e-05
7.30892e-05
0.000260535
0.000489109
0.000717989
0.000933748
0.0011656
0.00142297
0.00166782
0.00187936
0.00208465
0.00230233
0.00251298
0.00271847
0.00295642
0.00322199
0.00348623
0.00375891
0.00405375
0.00434238
0.00459605
0.00485207
0.00513584
0.00541075
0.0056901
0.00600925
0.00633702
0.0066578
0.00698926
0.00732158
0.00764826
0.00798104
0.00832492
0.00867923
0.00904384
0.0094178
0.00980146
0.0101883
0.0105788
0.0109763
0.0113857
0.0118043
0.0122323
0.0126651
0.0131071
0.0135581
0.0140232
0.0144951
0.0149772
0.0154651
0.0159665
0.0164782
0.0170032
0.0175351
0.0180793
0.0186332
0.0191994
0.0197773
0.0203665
0.0209678
0.0215774
0.0222006
0.0228361
0.0234821
0.0241412
0.0248273
0.0255019
0.0262915
0.0271047
0.0023332
0.00237174
-0.00128208
-0.00576646
-0.00767282
-0.00723078
-0.00593083
-0.00472744
-0.00402526
-0.00384425
-0.00392902
-0.00394336
-0.00373851
-0.00343541
-0.00318046
-0.00299407
-0.00287859
-0.00279472
-0.00261087
-0.00230843
-0.00202002
-0.00180995
-0.0016434
-0.00147367
-0.00126172
-0.00102679
-0.000833818
-0.000692673
-0.000553685
-0.00038785
-0.000217411
-6.84663e-05
7.7748e-05
0.000264541
0.000491859
0.00072013
0.000935866
0.00116741
0.00142431
0.00166921
0.00188117
0.00208653
0.00230394
0.00251452
0.00271998
0.00295761
0.00322284
0.00348707
0.00375985
0.00405464
0.00434325
0.004597
0.00485299
0.00513659
0.0054114
0.00569073
0.00600982
0.00633756
0.00665836
0.00698982
0.0073221
0.00764875
0.0079815
0.00832535
0.00867963
0.00904423
0.00941818
0.00980183
0.0101887
0.0105791
0.0109767
0.011386
0.0118046
0.0122325
0.0126654
0.0131073
0.0135583
0.0140234
0.0144953
0.0149774