/*--------------------------------*- C++ -*----------------------------------*\
| =========                 |                                                 |
| \\      /  F ield         | OpenFOAM: The Open Source CFD Toolbox           |
|  \\    /   O peration     | Version:  v1906                                 |
|   \\  /    A nd           | Web:      www.OpenFOAM.com                      |
|    \\/     M anipulation  |                                                 |
\*---------------------------------------------------------------------------*/
FoamFile
{
    version     2.0;
    format      ascii;
    class       surfaceScalarField;
    location    "3";
    object      phi;
}
// * * * * * * * * * * * * * * * * * * * * * * * * * * * * * * * * * * * * * //

dimensions      [0 3 -1 0 0 0 0];
oriented        oriented;


internalField   nonuniform List<scalar> 
19000
(
1.17045e-06
1.72006e-07
1.15229e-06
5.35111e-08
1.15006e-06
-2.39973e-07
1.19392e-06
-7.23433e-07
1.2161e-06
5.29263e-07
1.12997e-06
3.33636e-07
1.12021e-06
6.22144e-07
1.12664e-06
2.38266e-08
1.12179e-06
-7.1727e-07
1.16426e-06
-6.82614e-07
1.18127e-06
-5.02004e-07
1.17389e-06
-5.73865e-07
1.19749e-06
2.29349e-07
1.16007e-06
-2.62037e-07
1.17383e-06
6.55868e-07
1.12588e-06
1.84393e-07
1.13389e-06
5.83114e-07
1.08945e-06
1.62361e-07
1.0972e-06
3.62855e-07
1.71818e-07
1.05238e-06
1.22398e-06
1.7229e-07
1.20852e-06
6.89655e-08
1.20515e-06
-2.36599e-07
1.24793e-06
-7.66217e-07
1.26835e-06
5.08843e-07
1.1898e-06
4.12185e-07
1.16914e-06
6.42803e-07
1.18544e-06
7.52811e-09
1.18098e-06
-7.1281e-07
1.21723e-06
-7.18863e-07
1.23447e-06
-5.19237e-07
1.2293e-06
-5.68695e-07
1.2485e-06
2.10146e-07
1.21856e-06
-2.32096e-07
1.21673e-06
6.57699e-07
1.18992e-06
2.11197e-07
1.17078e-06
6.02256e-07
1.15819e-06
1.74948e-07
1.13144e-06
3.89607e-07
1.63059e-07
1.1402e-06
1.27916e-06
1.75913e-07
1.26844e-06
7.96863e-08
1.26343e-06
-2.31586e-07
1.3018e-06
-8.04589e-07
1.32029e-06
4.90348e-07
1.25716e-06
4.75321e-07
1.22698e-06
6.72979e-07
1.24868e-06
-1.41706e-08
1.24408e-06
-7.08205e-07
1.27257e-06
-7.47362e-07
1.28986e-06
-5.36524e-07
1.28852e-06
-5.67353e-07
1.30291e-06
1.95757e-07
1.28046e-06
-2.09646e-07
1.27153e-06
6.6663e-07
1.25391e-06
2.28811e-07
1.23445e-06
6.21724e-07
1.22504e-06
1.84356e-07
1.2124e-06
4.02241e-07
1.69393e-07
1.20607e-06
1.33731e-06
1.8271e-07
1.33209e-06
8.48991e-08
1.32552e-06
-2.25017e-07
1.35688e-06
-8.35946e-07
1.3738e-06
4.73431e-07
1.32872e-06
5.20396e-07
1.29575e-06
7.05955e-07
1.31608e-06
-3.4507e-08
1.3111e-06
-7.03218e-07
1.33083e-06
-7.67098e-07
1.3482e-06
-5.53896e-07
1.35001e-06
-5.69154e-07
1.36076e-06
1.85004e-07
1.34307e-06
-1.91956e-07
1.33449e-06
6.75208e-07
1.31829e-06
2.45013e-07
1.30727e-06
6.32742e-07
1.29458e-06
1.97049e-07
1.29407e-06
4.02743e-07
1.8259e-07
1.28088e-06
1.39978e-06
1.91285e-07
1.39922e-06
8.54589e-08
1.39186e-06
-2.17662e-07
1.41405e-06
-8.58128e-07
1.43025e-06
4.57226e-07
1.40211e-06
5.48536e-07
1.37344e-06
7.34624e-07
1.38772e-06
-4.87862e-08
1.38172e-06
-6.97212e-07
1.39295e-06
-7.78329e-07
1.40923e-06
-5.70179e-07
1.41288e-06
-5.72798e-07
1.42132e-06
1.76561e-07
1.40524e-06
-1.75881e-07
1.39951e-06
6.80945e-07
1.38328e-06
2.61238e-07
1.38e-06
6.36029e-07
1.36605e-06
2.10998e-07
1.37167e-06
3.97121e-07
1.97322e-07
1.35694e-06
1.46739e-06
1.99573e-07
1.46974e-06
8.3112e-08
1.46237e-06
-2.10295e-07
1.47435e-06
-8.70106e-07
1.49017e-06
4.41398e-07
1.47633e-06
5.62383e-07
1.45624e-06
7.5471e-07
1.46378e-06
-5.63267e-08
1.45551e-06
-6.88941e-07
1.45944e-06
-7.82262e-07
1.47257e-06
-5.83307e-07
1.47664e-06
-5.76862e-07
1.48447e-06
1.68731e-07
1.46852e-06
-1.59939e-07
1.46576e-06
6.83711e-07
1.45063e-06
2.76368e-07
1.45375e-06
6.32907e-07
1.44005e-06
2.24693e-07
1.44995e-06
3.87225e-07
2.12495e-07
1.43478e-06
1.53998e-06
2.05808e-07
1.54366e-06
7.9438e-08
1.53651e-06
-2.03154e-07
1.53875e-06
-8.72343e-07
1.55377e-06
4.26379e-07
1.55139e-06
5.64768e-07
1.54098e-06
7.65114e-07
1.54363e-06
-5.89723e-08
1.53225e-06
-6.77563e-07
1.53012e-06
-7.80134e-07
1.53855e-06
-5.91739e-07
1.5416e-06
-5.79905e-07
1.55003e-06
1.60292e-07
1.53464e-06
-1.44545e-07
1.53527e-06
6.83082e-07
1.52217e-06
2.8947e-07
1.5311e-06
6.23977e-07
1.51775e-06
2.38046e-07
1.53102e-06
3.73955e-07
2.27981e-07
1.51553e-06
1.61671e-06
2.09226e-07
1.62082e-06
7.53288e-08
1.61368e-06
-1.96018e-07
1.60798e-06
-8.66638e-07
1.62151e-06
4.12848e-07
1.62784e-06
5.58441e-07
1.62632e-06
7.66634e-07
1.62626e-06
-5.89186e-08
1.6119e-06
-6.63203e-07
1.60474e-06
-7.72973e-07
1.60789e-06
-5.94883e-07
1.60879e-06
-5.80812e-07
1.61808e-06
1.51005e-07
1.60435e-06
-1.30811e-07
1.60948e-06
6.77951e-07
1.5986e-06
3.00346e-07
1.6128e-06
6.09776e-07
1.59928e-06
2.51567e-07
1.6148e-06
3.58441e-07
2.43611e-07
1.59917e-06
1.69673e-06
2.1007e-07
1.70096e-06
7.11031e-08
1.69355e-06
-1.88616e-07
1.68237e-06
-8.55458e-07
1.69407e-06
4.01151e-07
1.70645e-06
5.46065e-07
1.71224e-06
7.60838e-07
1.71097e-06
-5.76415e-08
1.69445e-06
-6.46686e-07
1.68329e-06
-7.61812e-07
1.6813e-06
-5.92898e-07
1.67941e-06
-5.78918e-07
1.68919e-06
1.41226e-07
1.67777e-06
-1.19398e-07
1.68842e-06
6.6731e-07
1.67947e-06
3.09297e-07
1.69821e-06
5.91033e-07
1.68403e-06
2.65743e-07
1.70056e-06
3.41918e-07
2.58959e-07
1.68521e-06
1.77969e-06
2.09099e-07
1.78396e-06
6.6836e-08
1.77626e-06
-1.80915e-07
1.76193e-06
-8.41124e-07
1.77192e-06
3.91154e-07
1.78794e-06
5.30047e-07
1.79929e-06
7.49486e-07
1.79752e-06
-5.5874e-08
1.77984e-06
-6.29005e-07
1.76577e-06
-7.47745e-07
1.75937e-06
-5.86494e-07
1.75438e-06
-5.73927e-07
1.76418e-06
1.31424e-07
1.75494e-06
-1.1016e-07
1.77139e-06
6.50867e-07
1.7638e-06
3.1688e-07
1.7862e-06
5.68637e-07
1.77124e-06
2.80704e-07
1.78764e-06
3.25518e-07
2.73326e-07
1.77327e-06
1.86577e-06
2.07076e-07
1.87005e-06
6.25575e-08
1.86224e-06
-1.7311e-07
1.84639e-06
-8.25271e-07
1.85507e-06
3.82472e-07
1.87281e-06
5.12306e-07
1.88809e-06
7.3421e-07
1.88617e-06
-5.395e-08
1.86815e-06
-6.10986e-07
1.85215e-06
-7.31752e-07
1.84242e-06
-5.76756e-07
1.83431e-06
-5.65821e-07
1.84378e-06
1.21958e-07
1.83594e-06
-1.02318e-07
1.85767e-06
6.29131e-07
1.85082e-06
3.23732e-07
1.8759e-06
5.43559e-07
1.86046e-06
2.96143e-07
1.87579e-06
3.10185e-07
2.85824e-07
1.86329e-06
1.95539e-06
2.04523e-07
1.95967e-06
5.82823e-08
1.95201e-06
-1.65454e-07
1.93547e-06
-8.08727e-07
1.94323e-06
3.74707e-07
1.96139e-06
4.94144e-07
1.97929e-06
7.16313e-07
1.97741e-06
-5.2063e-08
1.95961e-06
-5.93194e-07
1.94238e-06
-7.14522e-07
1.93052e-06
-5.6489e-07
1.91951e-06
-5.5481e-07
1.92847e-06
1.12989e-07
1.92097e-06
-9.48102e-08
1.94693e-06
6.03164e-07
1.94027e-06
3.30394e-07
1.96704e-06
5.16787e-07
1.95178e-06
3.11407e-07
1.96526e-06
2.96702e-07
2.95509e-07
1.95558e-06
2.049e-06
2.01716e-07
2.05329e-06
5.39928e-08
2.04596e-06
-1.58125e-07
2.02895e-06
-7.91717e-07
2.03611e-06
3.67543e-07
2.05397e-06
4.76287e-07
2.07358e-06
6.96703e-07
2.07185e-06
-5.03379e-08
2.05463e-06
-5.75977e-07
2.03651e-06
-6.96399e-07
2.02358e-06
-5.51961e-07
2.01003e-06
-5.41256e-07
2.01853e-06
1.04487e-07
2.01038e-06
-8.66563e-08
2.0393e-06
5.74239e-07
2.03251e-06
3.37182e-07
2.06002e-06
4.89277e-07
2.04576e-06
3.25668e-07
2.05674e-06
2.85726e-07
3.01566e-07
2.05068e-06
2.14695e-06
1.98768e-07
2.15129e-06
4.96511e-08
2.14434e-06
-1.51177e-07
2.12679e-06
-7.74161e-07
2.13361e-06
3.60718e-07
2.15087e-06
4.59027e-07
2.17163e-06
6.75945e-07
2.17009e-06
-4.88029e-08
2.15365e-06
-5.59533e-07
2.13472e-06
-6.77466e-07
2.1215e-06
-5.38739e-07
2.10582e-06
-5.25578e-07
2.114e-06
9.63025e-08
2.10455e-06
-7.72062e-08
2.13525e-06
5.43543e-07
2.12829e-06
3.44136e-07
2.15564e-06
4.6193e-07
2.14321e-06
3.38101e-07
2.15122e-06
2.77714e-07
3.03556e-07
2.14923e-06
2.24954e-06
1.95713e-07
2.25396e-06
4.52316e-08
2.24736e-06
-1.44575e-07
2.22911e-06
-7.55913e-07
2.23585e-06
3.5398e-07
2.25247e-06
4.42406e-07
2.27407e-06
6.54345e-07
2.27264e-06
-4.73659e-08
2.25707e-06
-5.43966e-07
2.23727e-06
-6.57664e-07
2.22421e-06
-5.2568e-07
2.20681e-06
-5.08176e-07
2.21483e-06
8.82815e-08
2.20383e-06
-6.62118e-08
2.23533e-06
5.12051e-07
2.22843e-06
3.51034e-07
2.25479e-06
4.35563e-07
2.24491e-06
3.47987e-07
2.24995e-06
2.72674e-07
3.01703e-07
2.2518e-06
2.35704e-06
1.92548e-07
2.36153e-06
4.07419e-08
2.35521e-06
-1.38251e-07
2.33617e-06
-7.36879e-07
2.34307e-06
3.47085e-07
2.35911e-06
4.26367e-07
2.38142e-06
6.32032e-07
2.37989e-06
-4.58386e-08
2.36524e-06
-5.29313e-07
2.34447e-06
-6.36898e-07
2.33178e-06
-5.12986e-07
2.31301e-06
-4.89412e-07
2.32096e-06
8.034e-08
2.30851e-06
-5.37669e-08
2.34006e-06
4.80503e-07
2.33361e-06
3.57483e-07
2.35831e-06
4.10865e-07
2.35149e-06
3.54805e-07
2.35391e-06
2.70253e-07
2.96748e-07
2.35887e-06
2.46969e-06
1.89255e-07
2.47421e-06
3.62238e-08
2.4681e-06
-1.32143e-07
2.44826e-06
-7.17036e-07
2.45553e-06
3.39812e-07
2.47104e-06
4.10861e-07
2.49405e-06
6.0902e-07
2.4922e-06
-4.39924e-08
2.47845e-06
-5.15559e-07
2.45665e-06
-6.15098e-07
2.44435e-06
-5.0069e-07
2.42457e-06
-4.69628e-07
2.43241e-06
7.24938e-08
2.41887e-06
-4.02211e-08
2.44988e-06
4.49487e-07
2.44436e-06
3.63002e-07
2.46689e-06
3.88339e-07
2.46339e-06
3.58309e-07
2.46369e-06
2.69954e-07
2.89606e-07
2.47083e-06
2.58774e-06
1.85812e-07
2.59222e-06
3.17425e-08
2.5863e-06
-1.26225e-07
2.56567e-06
-6.96408e-07
2.5735e-06
3.31982e-07
2.58848e-06
3.95884e-07
2.61225e-06
5.85248e-07
2.60987e-06
-4.16111e-08
2.59697e-06
-5.02658e-07
2.57412e-06
-5.92254e-07
2.56214e-06
-4.88702e-07
2.54169e-06
-4.49178e-07
2.54933e-06
6.48531e-08
2.53519e-06
-2.60847e-08
2.56519e-06
4.19483e-07
2.56107e-06
3.67122e-07
2.58114e-06
3.68278e-07
2.58086e-06
3.5858e-07
2.57963e-06
2.71188e-07
2.8118e-07
2.58806e-06
2.71145e-06
1.82194e-07
2.71581e-06
2.73751e-08
2.7101e-06
-1.20511e-07
2.68871e-06
-6.75021e-07
2.69724e-06
3.23457e-07
2.71163e-06
3.81489e-07
2.73625e-06
5.60634e-07
2.73317e-06
-3.85296e-08
2.72105e-06
-4.9054e-07
2.69723e-06
-5.68432e-07
2.68537e-06
-4.76846e-07
2.66463e-06
-4.28439e-07
2.67189e-06
5.75917e-08
2.65772e-06
-1.19154e-08
2.68633e-06
3.90879e-07
2.68397e-06
3.69485e-07
2.70151e-06
3.50737e-07
2.70412e-06
3.55971e-07
2.70197e-06
2.7333e-07
2.72282e-07
2.71087e-06
2.84108e-06
1.78379e-07
2.84525e-06
2.3205e-08
2.8398e-06
-1.15054e-07
2.81766e-06
-6.52886e-07
2.827e-06
3.14123e-07
2.84073e-06
3.67758e-07
2.86625e-06
5.35108e-07
2.86237e-06
-3.46518e-08
2.85095e-06
-4.79112e-07
2.82629e-06
-5.43775e-07
2.81433e-06
-4.64884e-07
2.79369e-06
-4.07803e-07
2.80034e-06
5.09377e-08
2.78666e-06
1.76636e-09
2.81358e-06
3.63958e-07
2.81316e-06
3.69907e-07
2.82831e-06
3.35585e-07
2.83334e-06
3.50942e-07
2.83084e-06
2.75833e-07
2.63536e-07
2.83959e-06
2.97693e-06
1.74346e-07
2.98081e-06
1.9321e-08
2.9757e-06
-1.09938e-07
2.95279e-06
-6.29983e-07
2.96304e-06
3.03879e-07
2.97601e-06
3.54784e-07
3.00247e-06
5.08647e-07
2.99777e-06
-2.99545e-08
2.98691e-06
-4.68251e-07
2.96164e-06
-5.18503e-07
2.94928e-06
-4.52522e-07
2.92915e-06
-3.87671e-07
2.93496e-06
4.51295e-08
2.92214e-06
1.45806e-08
2.94726e-06
3.38839e-07
2.94873e-06
3.68435e-07
2.96175e-06
3.22565e-07
2.96877e-06
3.43922e-07
2.96632e-06
2.78282e-07
2.55374e-07
2.97449e-06
3.11928e-06
1.70077e-07
3.12278e-06
1.58181e-08
3.11811e-06
-1.0527e-07
3.09439e-06
-6.06266e-07
3.10564e-06
2.92637e-07
3.11778e-06
3.42641e-07
3.14514e-06
4.81285e-07
3.13967e-06
-2.44858e-08
3.12922e-06
-4.57794e-07
3.10362e-06
-4.92911e-07
3.09054e-06
-4.39435e-07
3.07126e-06
-3.68393e-07
3.07604e-06
4.03443e-08
3.06429e-06
2.63342e-08
3.08764e-06
3.15494e-07
3.0908e-06
3.65268e-07
3.10196e-06
3.11407e-07
3.11068e-06
3.35207e-07
3.10855e-06
2.80407e-07
2.48073e-07
3.11585e-06
3.26843e-06
1.65556e-07
3.27145e-06
1.27985e-08
3.26736e-06
-1.01179e-07
3.24277e-06
-5.81681e-07
3.25509e-06
2.80325e-07
3.26636e-06
3.31369e-07
3.29452e-06
4.5312e-07
3.2884e-06
-1.83656e-08
3.27813e-06
-4.47525e-07
3.25258e-06
-4.6736e-07
3.23844e-06
-4.25287e-07
3.22028e-06
-3.50238e-07
3.22397e-06
3.66543e-08
3.21328e-06
3.70203e-08
3.23498e-06
2.93802e-07
3.23959e-06
3.60653e-07
3.2491e-06
3.01901e-07
3.25927e-06
3.25031e-07
3.25775e-06
2.81928e-07
2.41848e-07
3.26398e-06
3.42472e-06
1.6077e-07
3.42715e-06
1.03683e-08
3.42376e-06
-9.77948e-08
3.39827e-06
-5.56185e-07
3.41168e-06
2.66912e-07
3.42209e-06
3.2096e-07
3.4509e-06
4.24314e-07
3.44432e-06
-1.1788e-08
3.43397e-06
-4.37181e-07
3.40885e-06
-4.42234e-07
3.39336e-06
-4.09801e-07
3.37646e-06
-3.33337e-07
3.37912e-06
3.40002e-08
3.36935e-06
4.67868e-08
3.38956e-06
2.73596e-07
3.39542e-06
3.54789e-07
3.40337e-06
2.93945e-07
3.41479e-06
3.13613e-07
3.41422e-06
2.82503e-07
2.36873e-07
3.41919e-06
3.58847e-06
1.5571e-07
3.59021e-06
8.62805e-09
3.58766e-06
-9.52386e-08
3.56124e-06
-5.29772e-07
3.57573e-06
2.52422e-07
3.58534e-06
3.1135e-07
3.61456e-06
3.9509e-07
3.60779e-06
-5.01201e-09
3.59707e-06
-4.26458e-07
3.57277e-06
-4.1794e-07
3.55573e-06
-3.92761e-07
3.54007e-06
-3.17678e-07
3.54188e-06
3.2192e-08
3.53278e-06
5.58861e-08
3.55165e-06
2.54721e-07
3.55867e-06
3.4777e-07
3.56514e-06
2.87476e-07
3.57747e-06
3.01288e-07
3.57828e-06
2.81691e-07
2.33283e-07
3.58187e-06
3.76005e-06
1.50367e-07
3.76102e-06
7.65767e-09
3.75937e-06
-9.35946e-08
3.73209e-06
-5.02483e-07
3.74756e-06
2.36947e-07
3.75649e-06
3.0242e-07
3.78585e-06
3.6573e-07
3.7792e-06
1.6396e-09
3.76777e-06
-4.15026e-07
3.74469e-06
-3.94858e-07
3.72599e-06
-3.74066e-07
3.7114e-06
-3.0308e-07
3.71266e-06
3.09291e-08
3.70393e-06
6.46165e-08
3.72158e-06
2.37071e-07
3.72978e-06
3.39564e-07
3.73484e-06
2.8242e-07
3.74759e-06
2.88534e-07
3.75021e-06
2.79072e-07
2.31008e-07
3.75249e-06
3.93982e-06
1.44739e-07
3.93997e-06
7.50735e-09
3.93927e-06
-9.28967e-08
3.91121e-06
-4.74425e-07
3.92751e-06
2.20645e-07
3.93595e-06
2.93985e-07
3.96511e-06
3.36571e-07
3.95895e-06
7.79847e-09
3.94648e-06
-4.02564e-07
3.9249e-06
-3.73274e-07
3.90462e-06
-3.5379e-07
3.89077e-06
-2.89221e-07
3.89182e-06
2.98723e-08
3.88322e-06
7.322e-08
3.89964e-06
2.20648e-07
3.90914e-06
3.30069e-07
3.91293e-06
2.78623e-07
3.92555e-06
2.75921e-07
3.93024e-06
2.74374e-07
2.29756e-07
3.9315e-06
4.12816e-06
1.38829e-07
4.12747e-06
8.19875e-09
4.1277e-06
-9.31281e-08
4.09904e-06
-4.45765e-07
4.11594e-06
2.03744e-07
4.12412e-06
2.85804e-07
4.15269e-06
3.08002e-07
4.14741e-06
1.30803e-08
4.13365e-06
-3.88803e-07
4.11371e-06
-3.53333e-07
4.09207e-06
-3.32156e-07
4.07859e-06
-2.75735e-07
4.0797e-06
2.8757e-08
4.07114e-06
8.17793e-08
4.08618e-06
2.05608e-07
4.09708e-06
3.19173e-07
4.09991e-06
2.75789e-07
4.11178e-06
2.64056e-07
4.1186e-06
2.67548e-07
2.28983e-07
4.11938e-06
4.32548e-06
1.32646e-07
4.32396e-06
9.71974e-09
4.32505e-06
-9.42116e-08
4.29602e-06
-4.16739e-07
4.31323e-06
1.86541e-07
4.32145e-06
2.77583e-07
4.34901e-06
2.80437e-07
4.34497e-06
1.71168e-08
4.32975e-06
-3.73575e-07
4.31142e-06
-3.35009e-07
4.28878e-06
-3.09518e-07
4.2753e-06
-2.62249e-07
4.27666e-06
2.73971e-08
4.26818e-06
9.02521e-08
4.28162e-06
1.92173e-07
4.29395e-06
3.06842e-07
4.29624e-06
2.73504e-07
4.30684e-06
2.53453e-07
4.31556e-06
2.58827e-07
2.27998e-07
4.31655e-06
4.53221e-06
1.26213e-07
4.52991e-06
1.202e-08
4.5317e-06
-9.60035e-08
4.50262e-06
-3.87656e-07
4.51977e-06
1.69388e-07
4.52836e-06
2.68991e-07
4.5545e-06
2.54301e-07
4.552e-06
1.96141e-08
4.5353e-06
-3.56872e-07
4.5184e-06
-3.18114e-07
4.49519e-06
-2.86307e-07
4.48136e-06
-2.48419e-07
4.48306e-06
2.5695e-08
4.47482e-06
9.84939e-08
4.48642e-06
1.80569e-07
4.50012e-06
2.93149e-07
4.50231e-06
2.71307e-07
4.51136e-06
2.44411e-07
4.52142e-06
2.48763e-07
2.26027e-07
4.52339e-06
4.74876e-06
1.19565e-07
4.74578e-06
1.5006e-08
4.74806e-06
-9.82871e-08
4.7193e-06
-3.58897e-07
4.73599e-06
1.52704e-07
4.74532e-06
2.59658e-07
4.76964e-06
2.29977e-07
4.76877e-06
2.04844e-08
4.75084e-06
-3.38937e-07
4.73507e-06
-3.02346e-07
4.71172e-06
-2.62953e-07
4.69726e-06
-2.33965e-07
4.69932e-06
2.36345e-08
4.69149e-06
1.06326e-07
4.70115e-06
1.70906e-07
4.71594e-06
2.78358e-07
4.71855e-06
2.68704e-07
4.72595e-06
2.37012e-07
4.73665e-06
2.38056e-07
2.22493e-07
4.74019e-06
4.97561e-06
1.1275e-07
4.97208e-06
1.85425e-08
4.97456e-06
-1.0077e-07
4.94657e-06
-3.30905e-07
4.96233e-06
1.36942e-07
4.97277e-06
2.49217e-07
4.99501e-06
2.07733e-07
4.9956e-06
1.98955e-08
4.97686e-06
-3.20196e-07
4.96192e-06
-2.87401e-07
4.9388e-06
-2.39834e-07
4.92352e-06
-2.18688e-07
4.92586e-06
2.12976e-08
4.91867e-06
1.13516e-07
4.92633e-06
1.63246e-07
4.94184e-06
2.62847e-07
4.94533e-06
2.6521e-07
4.9512e-06
2.31142e-07
4.96186e-06
2.27401e-07
2.17209e-07
4.96714e-06
5.21323e-06
1.05835e-07
5.20933e-06
2.24449e-08
5.21162e-06
-1.03065e-07
5.1849e-06
-3.04183e-07
5.1993e-06
1.22545e-07
5.21113e-06
2.37382e-07
5.23131e-06
1.87562e-07
5.23292e-06
1.82854e-08
5.21382e-06
-3.01098e-07
5.19948e-06
-2.73058e-07
5.17688e-06
-2.17235e-07
5.16067e-06
-2.0248e-07
5.16312e-06
1.88463e-08
5.15679e-06
1.19848e-07
5.16247e-06
1.57558e-07
5.1783e-06
2.47023e-07
5.18306e-06
2.6045e-07
5.18769e-06
2.2651e-07
5.19767e-06
2.17418e-07
2.10322e-07
5.20456e-06
5.46212e-06
9.89009e-08
5.45809e-06
2.64789e-08
5.45969e-06
-1.04661e-07
5.43478e-06
-2.79278e-07
5.4475e-06
1.09826e-07
5.4608e-06
2.24083e-07
5.47929e-06
1.69073e-07
5.48136e-06
1.62146e-08
5.46216e-06
-2.81901e-07
5.44829e-06
-2.59193e-07
5.42642e-06
-1.95359e-07
5.40922e-06
-1.85284e-07
5.41157e-06
1.65043e-08
5.40631e-06
1.25104e-07
5.41012e-06
1.53748e-07
5.42588e-06
2.31259e-07
5.43213e-06
2.54207e-07
5.4359e-06
2.22734e-07
5.44484e-06
2.08479e-07
2.02339e-07
5.45282e-06
5.72282e-06
9.20407e-08
5.71892e-06
3.03791e-08
5.71913e-06
-1.04873e-07
5.69665e-06
-2.56793e-07
5.70766e-06
9.88069e-08
5.72207e-06
2.09677e-07
5.73953e-06
1.51616e-07
5.74171e-06
1.40304e-08
5.72245e-06
-2.62635e-07
5.70888e-06
-2.45628e-07
5.68786e-06
-1.74339e-07
5.66971e-06
-1.67129e-07
5.67165e-06
1.456e-08
5.6677e-06
1.29053e-07
5.66991e-06
1.51541e-07
5.68516e-06
2.1601e-07
5.69299e-06
2.46374e-07
5.69633e-06
2.19393e-07
5.70408e-06
2.00729e-07
1.93866e-07
5.71255e-06
5.99589e-06
8.53483e-08
5.99239e-06
3.38743e-08
5.99033e-06
-1.02815e-07
5.97091e-06
-2.37369e-07
5.98067e-06
8.90461e-08
5.99539e-06
1.9496e-07
6.01233e-06
1.3467e-07
6.01472e-06
1.16388e-08
5.99521e-06
-2.43122e-07
5.98164e-06
-2.32056e-07
5.96151e-06
-1.54217e-07
5.94253e-06
-1.48146e-07
5.94385e-06
1.3243e-08
5.94146e-06
1.31445e-07
5.94246e-06
1.50543e-07
5.95675e-06
2.01711e-07
5.96616e-06
2.36971e-07
5.96948e-06
2.16068e-07
5.97608e-06
1.9413e-07
1.85475e-07
5.98447e-06
6.28193e-06
7.89071e-08
6.27909e-06
3.67122e-08
6.27462e-06
-9.83409e-08
6.25793e-06
-2.20678e-07
6.26723e-06
7.97422e-08
6.28144e-06
1.80751e-07
6.29787e-06
1.18236e-07
6.3006e-06
8.90826e-09
6.28051e-06
-2.23023e-07
6.26644e-06
-2.17987e-07
6.24743e-06
-1.35211e-07
6.22805e-06
-1.28769e-07
6.22878e-06
1.25194e-08
6.22814e-06
1.32084e-07
6.22836e-06
1.50317e-07
6.2414e-06
1.88676e-07
6.25216e-06
2.26209e-07
6.25586e-06
2.12365e-07
6.26145e-06
1.88539e-07
1.77529e-07
6.2694e-06
6.5816e-06
7.27743e-08
6.57962e-06
3.86896e-08
6.57353e-06
-9.22495e-08
6.55815e-06
-2.05298e-07
6.56787e-06
7.00221e-08
6.58111e-06
1.67519e-07
6.59619e-06
1.03154e-07
6.59871e-06
6.38781e-09
6.57783e-06
-2.02145e-07
6.56324e-06
-2.03394e-07
6.546e-06
-1.17971e-07
6.52693e-06
-1.09698e-07
6.52717e-06
1.2273e-08
6.5284e-06
1.30859e-07
6.52827e-06
1.50446e-07
6.53976e-06
1.77185e-07
6.55159e-06
2.14381e-07
6.55601e-06
2.07946e-07
6.56078e-06
1.83764e-07
1.70226e-07
6.56808e-06
6.89558e-06
6.69815e-08
6.89468e-06
3.95955e-08
6.8875e-06
-8.50765e-08
6.8724e-06
-1.90192e-07
6.88293e-06
5.94891e-08
6.89539e-06
1.55058e-07
6.90796e-06
9.05894e-08
6.91004e-06
4.3024e-09
6.88936e-06
-1.81463e-07
6.87403e-06
-1.88067e-07
6.85859e-06
-1.02528e-07
6.84027e-06
-9.13801e-08
6.83996e-06
1.25825e-08
6.84286e-06
1.2796e-07
6.84281e-06
1.50498e-07
6.85258e-06
1.67418e-07
6.86504e-06
2.01918e-07
6.87047e-06
2.02514e-07
6.87464e-06
1.79593e-07
1.63663e-07
6.88121e-06
7.22458e-06
6.15426e-08
7.22515e-06
3.90168e-08
7.21703e-06
-7.69521e-08
7.20166e-06
-1.74821e-07
7.21286e-06
4.8289e-08
7.22505e-06
1.42865e-07
7.2351e-06
8.05462e-08
7.23705e-06
2.35116e-09
7.21689e-06
-1.61307e-07
7.20059e-06
-1.71762e-07
7.18639e-06
-8.83361e-08
7.16905e-06
-7.40407e-08
7.168e-06
1.36377e-08
7.17222e-06
1.23735e-07
7.17261e-06
1.50109e-07
7.18063e-06
1.59401e-07
7.1932e-06
1.89352e-07
7.19984e-06
1.95875e-07
7.20369e-06
1.75741e-07
1.57896e-07
7.20945e-06
7.56933e-06
5.64386e-08
7.57171e-06
3.66384e-08
7.56284e-06
-6.80881e-08
7.54703e-06
-1.5901e-07
7.55822e-06
3.71052e-08
7.57101e-06
1.30067e-07
7.57888e-06
7.26768e-08
7.58042e-06
8.12605e-10
7.56086e-06
-1.41743e-07
7.54345e-06
-1.54355e-07
7.53017e-06
-7.5051e-08
7.51396e-06
-5.78385e-08
7.5121e-06
1.5501e-08
7.51723e-06
1.1861e-07
7.5183e-06
1.4904e-07
7.5247e-06
1.52995e-07
7.53686e-06
1.77195e-07
7.54468e-06
1.8805e-07
7.54858e-06
1.71845e-07
1.52894e-07
7.55358e-06
7.93064e-06
5.1614e-08
7.9342e-06
3.30725e-08
7.92602e-06
-5.99013e-08
7.90956e-06
-1.42558e-07
7.92016e-06
2.65046e-08
7.93401e-06
1.16216e-07
7.94133e-06
6.53583e-08
7.94207e-06
7.55643e-11
7.92158e-06
-1.21251e-07
7.90322e-06
-1.36001e-07
7.8907e-06
-6.25223e-08
7.8757e-06
-4.28398e-08
7.87299e-06
1.82049e-08
7.87863e-06
1.12969e-07
7.88056e-06
1.4711e-07
7.88564e-06
1.47916e-07
7.89691e-06
1.65927e-07
7.90571e-06
1.79248e-07
7.91002e-06
1.67535e-07
1.48519e-07
7.9144e-06
8.30929e-06
4.70022e-08
8.31316e-06
2.92074e-08
8.30748e-06
-5.42198e-08
8.29053e-06
-1.25612e-07
8.29978e-06
1.72551e-08
8.31383e-06
1.02162e-07
8.3213e-06
5.78907e-08
8.31946e-06
1.9201e-09
8.29875e-06
-1.00543e-07
8.28063e-06
-1.17879e-07
8.26888e-06
-5.07775e-08
8.25496e-06
-2.89169e-08
8.25148e-06
2.16837e-08
8.25725e-06
1.07203e-07
8.26015e-06
1.44204e-07
8.26423e-06
1.43838e-07
8.27431e-06
1.55844e-07
8.28374e-06
1.69824e-07
8.28871e-06
1.62566e-07
1.44523e-07
8.2927e-06
8.7061e-06
4.25671e-08
8.70997e-06
2.53308e-08
8.70613e-06
-5.03746e-08
8.69001e-06
-1.09495e-07
8.69666e-06
1.06053e-08
8.70728e-06
9.15447e-08
8.70881e-06
5.63565e-08
8.7076e-06
3.13744e-09
8.69277e-06
-8.57139e-08
8.67655e-06
-1.0166e-07
8.66551e-06
-3.97393e-08
8.6525e-06
-1.59079e-08
8.64835e-06
2.58373e-08
8.65396e-06
1.0159e-07
8.65786e-06
1.40301e-07
8.66136e-06
1.40345e-07
8.67007e-06
1.47133e-07
8.67973e-06
1.60163e-07
8.68541e-06
1.56879e-07
1.40631e-07
8.68931e-06
9.12193e-06
3.82536e-08
9.12569e-06
2.15771e-08
9.1224e-06
-4.70847e-08
9.10508e-06
-9.21775e-08
9.10424e-06
1.14397e-08
9.11462e-06
8.11654e-08
9.11933e-06
5.16465e-08
9.11907e-06
3.39625e-09
9.10617e-06
-7.28059e-08
9.09159e-06
-8.70781e-08
9.08132e-06
-2.94707e-08
9.06924e-06
-3.8335e-09
9.06452e-06
3.05633e-08
9.06973e-06
9.63767e-08
9.0745e-06
1.35532e-07
9.07778e-06
1.3706e-07
9.08514e-06
1.39774e-07
9.09465e-06
1.50656e-07
9.101e-06
1.50524e-07
1.36634e-07
9.105e-06
9.55766e-06
3.40504e-08
9.56067e-06
1.85714e-08
9.55779e-06
-4.42055e-08
9.5414e-06
-7.5788e-08
9.54002e-06
1.28232e-08
9.54938e-06
7.18022e-08
9.55362e-06
4.7409e-08
9.5522e-06
4.81102e-09
9.53987e-06
-6.04696e-08
9.52641e-06
-7.36237e-08
9.51706e-06
-2.01173e-08
9.50609e-06
7.13426e-09
9.50093e-06
3.57256e-08
9.5055e-06
9.18097e-08
9.51091e-06
1.30118e-07
9.51429e-06
1.33675e-07
9.52046e-06
1.3361e-07
9.52948e-06
1.41635e-07
9.53634e-06
1.43661e-07
1.32379e-07
9.5406e-06
1.00142e-05
2.99781e-08
1.00161e-05
1.66357e-08
1.0014e-05
-4.2107e-08
9.99992e-06
-6.1668e-08
9.99709e-06
1.56531e-08
1.00049e-05
6.40201e-08
1.00088e-05
4.34946e-08
1.00067e-05
6.85947e-09
9.99471e-06
-4.84338e-08
9.98199e-06
-6.09103e-08
9.97365e-06
-1.17778e-08
9.96395e-06
1.68372e-08
9.95857e-06
4.11064e-08
9.96229e-06
8.80851e-08
9.96806e-06
1.24355e-07
9.97176e-06
1.29976e-07
9.97701e-06
1.28356e-07
9.98526e-06
1.3339e-07
9.99243e-06
1.36484e-07
1.27783e-07
9.99703e-06
1.04925e-05
2.60697e-08
1.04936e-05
1.55392e-08
1.04919e-05
-4.03856e-08
1.04804e-05
-5.01774e-08
1.04763e-05
1.98017e-08
1.04822e-05
5.81344e-08
1.04857e-05
3.99284e-08
1.04835e-05
9.14425e-09
1.04717e-05
-3.6695e-08
1.04595e-05
-4.86633e-08
1.0452e-05
-4.33706e-09
1.04437e-05
2.51802e-08
1.04384e-05
4.64301e-08
1.04412e-05
8.52322e-08
1.0447e-05
1.18557e-07
1.04512e-05
1.25833e-07
1.04558e-05
1.23724e-07
1.04631e-05
1.26044e-07
1.04704e-05
1.29234e-07
1.22829e-07
1.04753e-05
1.09937e-05
2.23877e-08
1.09942e-05
1.50495e-08
1.09924e-05
-3.86378e-08
1.09833e-05
-4.10612e-08
1.09785e-05
2.46386e-08
1.09824e-05
5.42039e-08
1.09855e-05
3.68786e-08
1.09832e-05
1.13987e-08
1.09719e-05
-2.54072e-08
1.096e-05
-3.67474e-08
1.09532e-05
2.42642e-09
1.09463e-05
3.21496e-08
1.09413e-05
5.1431e-08
1.09434e-05
8.31554e-08
1.09489e-05
1.12995e-07
1.09534e-05
1.21312e-07
1.09577e-05
1.19427e-07
1.09642e-05
1.19585e-07
1.09713e-05
1.22158e-07
1.17557e-07
1.09765e-05
1.15187e-05
1.90139e-08
1.15189e-05
1.49141e-08
1.15165e-05
-3.62758e-08
1.15093e-05
-3.38653e-08
1.15046e-05
2.93602e-08
1.15068e-05
5.19763e-08
1.15091e-05
3.46071e-08
1.1507e-05
1.34718e-08
1.14964e-05
-1.48195e-08
1.14848e-05
-2.51328e-08
1.14785e-05
8.74858e-09
1.14728e-05
3.78692e-08
1.14683e-05
5.58862e-08
1.14698e-05
8.16984e-08
1.14749e-05
1.07836e-07
1.14797e-05
1.16531e-07
1.14839e-05
1.15243e-07
1.14896e-05
1.13894e-07
1.14963e-05
1.15451e-07
1.12076e-07
1.15018e-05
1.20688e-05
1.60579e-08
1.20687e-05
1.50156e-08
1.20651e-05
-3.27185e-08
1.20593e-05
-2.80797e-08
1.20556e-05
3.30706e-08
1.20565e-05
5.10493e-08
1.20578e-05
3.33158e-08
1.20559e-05
1.53775e-08
1.20463e-05
-5.17075e-09
1.20351e-05
-1.39203e-08
1.2029e-05
1.48633e-08
1.20243e-05
4.24902e-08
1.20206e-05
5.96399e-08
1.20216e-05
8.06761e-08
1.20263e-05
1.03141e-07
1.20312e-05
1.11665e-07
1.20353e-05
1.11064e-07
1.20404e-05
1.0881e-07
1.20466e-05
1.09237e-07
1.06512e-07
1.20522e-05
1.2645e-05
1.36259e-08
1.26446e-05
1.54683e-08
1.26392e-05
-2.73335e-08
1.26347e-05
-2.36358e-08
1.26328e-05
3.50559e-08
1.26329e-05
5.09503e-08
1.2633e-05
3.31466e-08
1.26311e-05
1.72678e-08
1.26226e-05
3.36842e-09
1.2612e-05
-3.29901e-09
1.2606e-05
2.08684e-08
1.26022e-05
4.63031e-08
1.25992e-05
6.26303e-08
1.26e-05
7.98819e-08
1.26042e-05
9.89006e-08
1.2609e-05
1.06862e-07
1.26132e-05
1.06847e-07
1.26179e-05
1.04138e-07
1.26236e-05
1.03562e-07
1.00979e-07
1.26291e-05
1.32488e-05
1.17925e-08
1.32478e-05
1.64703e-08
1.32412e-05
-2.07463e-08
1.32375e-05
-1.99546e-08
1.32372e-05
3.53077e-08
1.3237e-05
5.12155e-08
1.3236e-05
3.41458e-08
1.32339e-05
1.93518e-08
1.32265e-05
1.0776e-08
1.32167e-05
6.47488e-09
1.32108e-05
2.67458e-08
1.32076e-05
4.95532e-08
1.32053e-05
6.49467e-08
1.32061e-05
7.90941e-08
1.32099e-05
9.50703e-08
1.32145e-05
1.02207e-07
1.32188e-05
1.02614e-07
1.32232e-05
9.9722e-08
1.32283e-05
9.84147e-08
9.5621e-08
1.32337e-05
1.38814e-05
1.05365e-08
1.38806e-05
1.72723e-08
1.38733e-05
-1.34001e-08
1.38694e-05
-1.60627e-08
1.38704e-05
3.4312e-08
1.38701e-05
5.1442e-08
1.38681e-05
3.61809e-08
1.38656e-05
2.18831e-08
1.38592e-05
1.71093e-08
1.38505e-05
1.52175e-08
1.38449e-05
3.23967e-08
1.3842e-05
5.23858e-08
1.38403e-05
6.66994e-08
1.38411e-05
7.82739e-08
1.38446e-05
9.15259e-08
1.38491e-05
9.77694e-08
1.38533e-05
9.84039e-08
1.38575e-05
9.54572e-08
1.38623e-05
9.36844e-08
9.05682e-08
1.38673e-05
1.45444e-05
9.81783e-09
1.45437e-05
1.79076e-08
1.45364e-05
-6.00469e-09
1.45318e-05
-1.15397e-08
1.45335e-05
3.2638e-08
1.45336e-05
5.13205e-08
1.45308e-05
3.89665e-08
1.45277e-05
2.50126e-08
1.45222e-05
2.25973e-08
1.45146e-05
2.28116e-08
1.45093e-05
3.76906e-08
1.45068e-05
5.48777e-08
1.45055e-05
6.79958e-08
1.45065e-05
7.73607e-08
1.45098e-05
8.82241e-08
1.4514e-05
9.35321e-08
1.45181e-05
9.42594e-08
1.45223e-05
9.13054e-08
1.45267e-05
8.92377e-08
8.58876e-08
1.45314e-05
1.52392e-05
9.54599e-09
1.52389e-05
1.8204e-08
1.52318e-05
1.08964e-09
1.52264e-05
-6.17548e-09
1.52281e-05
3.09509e-08
1.52287e-05
5.06783e-08
1.52256e-05
4.21128e-08
1.52218e-05
2.87616e-08
1.52169e-05
2.75677e-08
1.52105e-05
2.9206e-08
1.52057e-05
4.24483e-08
1.52035e-05
5.71158e-08
1.52026e-05
6.88803e-08
1.52036e-05
7.638e-08
1.52067e-05
8.51281e-08
1.52107e-05
8.94625e-08
1.52148e-05
9.02045e-08
1.52188e-05
8.72531e-08
1.52231e-05
8.49775e-08
8.15472e-08
1.52274e-05
1.59673e-05
9.61039e-09
1.59671e-05
1.83247e-08
1.59607e-05
7.50117e-09
1.59546e-05
-5.75523e-11
1.59557e-05
2.98267e-08
1.59569e-05
4.95283e-08
1.59538e-05
4.52174e-08
1.59495e-05
3.30189e-08
1.59448e-05
3.22637e-08
1.59394e-05
3.45995e-08
1.59354e-05
4.64947e-08
1.59335e-05
5.90503e-08
1.59329e-05
6.94396e-08
1.5934e-05
7.53237e-08
1.59369e-05
8.22327e-08
1.59408e-05
8.55323e-08
1.59447e-05
8.62372e-08
1.59487e-05
8.33151e-08
1.59528e-05
8.08495e-08
7.7458e-08
1.59569e-05
1.67303e-05
9.90352e-09
1.673e-05
1.86808e-08
1.67245e-05
1.29594e-08
1.67181e-05
6.37188e-09
1.67182e-05
2.96713e-08
1.67197e-05
4.80987e-08
1.67169e-05
4.79425e-08
1.67124e-05
3.75499e-08
1.67078e-05
3.68302e-08
1.67032e-05
3.92124e-08
1.66998e-05
4.98604e-08
1.66984e-05
6.05314e-08
1.66981e-05
6.973e-08
1.66992e-05
7.41965e-08
1.67019e-05
7.95144e-08
1.67057e-05
8.17789e-08
1.67096e-05
8.23165e-08
1.67134e-05
7.95082e-08
1.67174e-05
7.68296e-08
7.35291e-08
1.67214e-05
1.75299e-05
1.03178e-08
1.75293e-05
1.93015e-08
1.75247e-05
1.75491e-08
1.75183e-05
1.27936e-08
1.75174e-05
3.06259e-08
1.75187e-05
4.67417e-08
1.75166e-05
5.01061e-08
1.7512e-05
4.20603e-08
1.75076e-05
4.12996e-08
1.75035e-05
4.326e-08
1.75007e-05
5.26363e-08
1.74997e-05
6.15415e-08
1.74998e-05
6.96971e-08
1.7501e-05
7.30106e-08
1.75036e-05
7.69125e-08
1.75071e-05
7.82366e-08
1.7511e-05
7.84375e-08
1.75147e-05
7.57996e-08
1.75186e-05
7.29484e-08
6.96933e-08
1.75224e-05
1.83679e-05
1.07803e-08
1.83668e-05
2.03374e-08
1.8363e-05
2.13731e-08
1.8357e-05
1.8834e-08
1.8355e-05
3.25923e-08
1.83559e-05
4.58423e-08
1.83543e-05
5.16972e-08
1.83502e-05
4.62224e-08
1.83458e-05
4.56691e-08
1.83422e-05
4.68964e-08
1.83399e-05
5.48933e-08
1.83393e-05
6.21887e-08
1.83397e-05
6.92898e-08
1.83409e-05
7.17282e-08
1.83435e-05
7.44018e-08
1.83468e-05
7.48692e-08
1.83506e-05
7.46647e-08
1.83543e-05
7.21209e-08
1.8358e-05
6.92316e-08
6.59222e-08
1.83618e-05
1.92459e-05
1.12453e-08
1.92445e-05
2.17758e-08
1.92412e-05
2.46539e-08
1.92358e-05
2.42758e-08
1.92331e-05
3.52949e-08
1.92332e-05
4.56743e-08
1.9232e-05
5.28866e-08
1.92285e-05
4.97997e-08
1.92243e-05