/*--------------------------------*- C++ -*----------------------------------*\
| =========                 |                                                 |
| \\      /  F ield         | OpenFOAM: The Open Source CFD Toolbox           |
|  \\    /   O peration     | Version:  v1812                                 |
|   \\  /    A nd           | Web:      www.OpenFOAM.com                      |
|    \\/     M anipulation  |                                                 |
\*---------------------------------------------------------------------------*/
FoamFile
{
    version     2.0;
    format      ascii;
    class       volVectorField;
    location    "3";
    object      U;
}
// * * * * * * * * * * * * * * * * * * * * * * * * * * * * * * * * * * * * * //

dimensions      [0 1 -1 0 0 0 0];


internalField   nonuniform List<vector> 
9600
(
(0.876003 0.00174994 0)
(1.11681 0.000418923 0)
(0.866485 -0.00289841 0)
(1.09159 -0.0089632 0)
(0.959498 0.00783048 0)
(1.11605 0.00413738 0)
(0.82856 0.0102304 0)
(1.07681 0.000533244 0)
(0.862475 -0.0142956 0)
(1.05013 -0.0140127 0)
(0.946417 -0.0114335 0)
(1.0699 -0.0147624 0)
(0.945151 0.00695026 0)
(1.09595 -0.00872676 0)
(0.90219 0.0221038 0)
(1.09269 0.00541073 0)
(0.851856 0.0228493 0)
(1.07119 0.00564659 0)
(0.802242 0.0165237 0)
(1.06319 0.00762799 0)
(0.884673 0.00172141 0)
(1.10522 0.000686731 0)
(0.878965 -0.00281634 0)
(1.08032 -0.0096142 0)
(0.964005 0.00722206 0)
(1.1034 0.00568033 0)
(0.849835 0.010569 0)
(1.05017 0.000292014 0)
(0.894566 -0.0141298 0)
(1.02914 -0.0150912 0)
(0.961185 -0.0120376 0)
(1.05222 -0.0145221 0)
(0.960653 0.00602991 0)
(1.07246 -0.00735372 0)
(0.926594 0.0215182 0)
(1.0524 0.0071002 0)
(0.901657 0.0230624 0)
(1.00219 0.00710659 0)
(0.894463 0.0180373 0)
(0.950165 0.00760735 0)
(0.901322 0.0017391 0)
(1.08492 0.000833651 0)
(0.900822 -0.00278639 0)
(1.06123 -0.0102208 0)
(0.972981 0.00694933 0)
(1.08207 0.00691991 0)
(0.885137 0.0109556 0)
(1.02065 -5.99378e-05 0)
(0.931489 -0.0140559 0)
(1.0052 -0.015875 0)
(0.9789 -0.0123818 0)
(1.03056 -0.0144769 0)
(0.981291 0.00552346 0)
(1.04543 -0.00661551 0)
(0.957189 0.021546 0)
(1.01879 0.00800738 0)
(0.943834 0.0236891 0)
(0.973908 0.00781341 0)
(0.939682 0.0181625 0)
(0.946626 0.00832477 0)
(0.922891 0.00179551 0)
(1.06078 0.000914596 0)
(0.927298 -0.00272479 0)
(1.03933 -0.0106759 0)
(0.982996 0.00678952 0)
(1.05905 0.00772711 0)
(0.922694 0.0114913 0)
(1.00058 -0.000458271 0)
(0.96089 -0.0139658 0)
(0.988996 -0.0163944 0)
(0.990122 -0.0127643 0)
(1.0155 -0.0145254 0)
(0.995023 0.00525838 0)
(1.02629 -0.00609451 0)
(0.977075 0.0220794 0)
(1.00315 0.00845633 0)
(0.965193 0.0245483 0)
(0.97306 0.00806234 0)
(0.957785 0.018467 0)
(0.962293 0.00899546 0)
(0.945263 0.00187676 0)
(1.03822 0.000941499 0)
(0.952724 -0.00263394 0)
(1.02001 -0.0110172 0)
(0.990355 0.00656907 0)
(1.03961 0.00826438 0)
(0.954044 0.0120444 0)
(0.993266 -0.000780897 0)
(0.979457 -0.0138572 0)
(0.982772 -0.0167148 0)
(0.993841 -0.0131825 0)
(1.00737 -0.014587 0)
(1.00029 0.00501707 0)
(1.01511 -0.00557212 0)
(0.984928 0.0223798 0)
(0.997056 0.0090439 0)
(0.974228 0.0249101 0)
(0.977726 0.00859408 0)
(0.968109 0.0185759 0)
(0.973139 0.00967107 0)
(0.964776 0.00196595 0)
(1.02117 0.000929464 0)
(0.973109 -0.00254241 0)
(1.00643 -0.0112362 0)
(0.993443 0.006342 0)
(1.02566 0.00858141 0)
(0.976268 0.0124752 0)
(0.995161 -0.000969274 0)
(0.990315 -0.0137199 0)
(0.982847 -0.0168628 0)
(0.993736 -0.0135443 0)
(1.00217 -0.0146789 0)
(1.00025 0.00479088 0)
(1.00868 -0.0050668 0)
(0.986156 0.0224986 0)
(0.994479 0.009642 0)
(0.978969 0.0248385 0)
(0.982534 0.00923356 0)
(0.976427 0.0181831 0)
(0.981287 0.0103551 0)
(0.979375 0.00204267 0)
(1.01076 0.000893001 0)
(0.987214 -0.00245696 0)
(0.998727 -0.0113175 0)
(0.99309 0.00613229 0)
(1.01636 0.008698 0)
(0.990447 0.0127393 0)
(1.00093 -0.0010471 0)
(0.997239 -0.0135249 0)
(0.985327 -0.0168643 0)
(0.992705 -0.0138031 0)
(0.997546 -0.0147684 0)
(0.997599 0.00457377 0)
(1.00416 -0.00458413 0)
(0.985662 0.0225461 0)
(0.993611 0.0101446 0)
(0.983282 0.0245596 0)
(0.987464 0.009839 0)
(0.984074 0.0175426 0)
(0.988493 0.0111428 0)
(0.988856 0.00209223 0)
(1.00571 0.000848737 0)
(0.995854 -0.00237297 0)
(0.995181 -0.0112804 0)
(0.991322 0.00593208 0)
(1.01009 0.00865418 0)
(0.999007 0.0128394 0)
(1.0069 -0.00106019 0)
(1.00222 -0.0132635 0)
(0.988266 -0.0167496 0)
(0.991901 -0.0139375 0)
(0.993183 -0.0148167 0)
(0.994017 0.00433403 0)
(1 -0.00414257 0)
(0.985617 0.0224664 0)
(0.993964 0.0105678 0)
(0.988063 0.0241023 0)
(0.992461 0.0104143 0)
(0.991 0.0168401 0)
(0.994753 0.0119381 0)
(0.994293 0.00211236 0)
(1.00377 0.000803541 0)
(1.00064 -0.00228671 0)
(0.993859 -0.011161 0)
(0.989841 0.00574913 0)
(1.00569 0.00849827 0)
(1.00405 0.0127977 0)
(1.01151 -0.00104302 0)
(1.00586 -0.0129504 0)
(0.991014 -0.0165424 0)
(0.991624 -0.0139449 0)
(0.989413 -0.0148038 0)
(0.990486 0.00407073 0)
(0.99587 -0.00376753 0)
(0.986221 0.0222066 0)
(0.99501 0.0109284 0)
(0.992813 0.0234454 0)
(0.997001 0.0110069 0)
(0.996735 0.0160836 0)
(0.999698 0.0127168 0)
(0.99714 0.00210984 0)
(1.00313 0.000755388 0)
(1.00307 -0.00219715 0)
(0.993498 -0.0109909 0)
(0.989328 0.00559118 0)
(1.00262 0.00827144 0)
(1.00691 0.012646 0)
(1.01447 -0.00101517 0)
(1.00831 -0.012607 0)
(0.993343 -0.0162635 0)
(0.991867 -0.013838 0)
(0.98656 -0.0147156 0)
(0.98751 0.00380114 0)
(0.992045 -0.00346546 0)
(0.986989 0.0217537 0)
(0.996116 0.0112335 0)
(0.996739 0.0226109 0)
(1.00051 0.0116366 0)
(1.0009 0.0152986 0)
(1.0031 0.0134729 0)
(0.998582 0.00209308 0)
(1.0028 0.000707542 0)
(1.00421 -0.00210496 0)
(0.993534 -0.0107937 0)
(0.989633 0.00545625 0)
(1.00057 0.00800507 0)
(1.00832 0.0124141 0)
(1.016 -0.00098483 0)
(1.00976 -0.0122519 0)
(0.995141 -0.0159353 0)
(0.992472 -0.0136407 0)
(0.984759 -0.0145475 0)
(0.985261 0.00353242 0)
(0.988857 -0.00321389 0)
(0.987469 0.0211111 0)
(0.996786 0.0114991 0)
(0.999308 0.0216508 0)
(1.00264 0.012292 0)
(1.00341 0.0145551 0)
(1.00499 0.0141535 0)
(0.999335 0.00206893 0)
(1.0025 0.000660861 0)
(1.00473 -0.00201287 0)
(0.993776 -0.0105841 0)
(0.990296 0.00533822 0)
(0.999276 0.00772406 0)
(1.00873 0.0121285 0)
(1.01649 -0.000954914 0)
(1.01046 -0.0118982 0)
(0.996397 -0.0155771 0)
(0.993225 -0.013381 0)
(0.983928 -0.0143042 0)
(0.983731 0.00327217 0)
(0.986491 -0.00298611 0)
(0.98747 0.0203017 0)
(0.996814 0.0117443 0)
(1.00044 0.0206166 0)
(1.00341 0.0129526 0)
(1.00448 0.0138912 0)
(1.00563 0.0147002 0)
(0.999744 0.00204147 0)
(1.00221 0.000613873 0)
(1.00495 -0.00192371 0)
(0.994136 -0.0103679 0)
(0.990946 0.00523197 0)
(0.998491 0.00744381 0)
(1.00851 0.0118095 0)
(1.0163 -0.000926833 0)
(1.01069 -0.0115546 0)
(0.997194 -0.0151969 0)
(0.993951 -0.0130862 0)
(0.983828 -0.0139926 0)
(0.982819 0.00302586 0)
(0.984952 -0.00274975 0)
(0.987069 0.0193695 0)
(0.996266 0.0119877 0)
(1.00042 0.0195378 0)
(1.00312 0.0135891 0)
(1.00452 0.0133291 0)
(1.00542 0.0150682 0)
(0.999964 0.00201238 0)
(1.00198 0.000566685 0)
(1.00506 -0.001839 0)
(0.994535 -0.0101449 0)
(0.99142 0.00513333 0)
(0.998029 0.00717182 0)
(1.00797 0.0114695 0)
(1.01573 -0.000901782 0)
(1.01066 -0.0112232 0)
(0.997655 -0.0147989 0)
(0.994555 -0.0127781 0)
(0.984173 -0.0136192 0)
(0.982377 0.00278978 0)
(0.984102 -0.0024789 0)
(0.986481 0.0183667 0)
(0.995361 0.0122366 0)
(0.999723 0.0184517 0)
(1.00218 0.0141501 0)
(1.00398 0.012901 0)
(1.00476 0.0152392 0)
(1.00008 0.0019822 0)
(1.00181 0.000518753 0)
(1.0051 -0.00175867 0)
(0.994906 -0.00991339 0)
(0.991722 0.0050382 0)
(0.997783 0.00691093 0)
(1.00735 0.0111143 0)
(1.015 -0.00087918 0)
(1.0105 -0.0109072 0)
(0.997901 -0.0143816 0)
(0.995016 -0.0124718 0)
(0.984724 -0.0131933 0)
(0.982257 0.00255893 0)
(0.983739 -0.00216508 0)
(0.98591 0.0173266 0)
(0.994329 0.0124896 0)
(0.998764 0.0173999 0)
(1.00098 0.0146035 0)
(1.00321 0.0126263 0)
(1.00396 0.0152196 0)
(1.00013 0.00195099 0)
(1.00169 0.000469835 0)
(1.0051 -0.00168185 0)
(0.995211 -0.00967218 0)
(0.991927 0.00494323 0)
(0.997684 0.00666006 0)
(1.00681 0.0107468 0)
(1.01424 -0.000854946 0)
(1.01028 -0.01061 0)
(0.99802 -0.0139415 0)
(0.995349 -0.0121734 0)
(0.985335 -0.0127273 0)
(0.982338 0.00233196 0)
(0.983684 -0.00180342 0)
(0.985485 0.0162688 0)
(0.993347 0.012738 0)
(0.997825 0.0164091 0)
(0.999797 0.0149338 0)
(1.00243 0.0124947 0)
(1.00323 0.0150391 0)
(1.00016 0.00191862 0)
(1.0016 0.000420194 0)
(1.00505 -0.00160773 0)
(0.995451 -0.00942052 0)
(0.992107 0.00484476 0)
(0.997686 0.00641774 0)
(1.00638 0.0103685 0)
(1.01353 -0.000826393 0)
(1.01003 -0.0103297 0)
(0.998067 -0.0134818 0)
(0.995582 -0.0118823 0)
(0.985937 -0.0122295 0)
(0.982541 0.00210625 0)
(0.983822 -0.00140265 0)
(0.985267 0.0152305 0)
(0.992523 0.0129502 0)
(0.997059 0.0155044 0)
(0.998798 0.0151298 0)
(1.00176 0.0124644 0)
(1.00267 0.0147306 0)
(1.00018 0.0018848 0)
(1.00154 0.000370586 0)
(1.00496 -0.00153615 0)
(0.995646 -0.00915822 0)
(0.992301 0.00473931 0)
(0.997753 0.00618382 0)
(1.00605 0.0099786 0)
(1.01289 -0.000789074 0)
(1.00975 -0.0100669 0)
(0.998079 -0.0129991 0)
(0.995744 -0.0116029 0)
(0.986507 -0.0117061 0)
(0.982821 0.0018839 0)
(0.984095 -0.000976675 0)
(0.985273 0.0142295 0)
(0.991917 0.0131062 0)
(0.996527 0.0146994 0)
(0.998055 0.0151974 0)
(1.00126 0.0125015 0)
(1.0023 0.0143316 0)
(1.00019 0.00184944 0)
(1.00149 0.000321588 0)
(1.00484 -0.00146659 0)
(0.995821 -0.00888642 0)
(0.992518 0.00462535 0)
(0.997861 0.00595783 0)
(1.00579 0.00957449 0)
(1.01233 -0.000737837 0)
(1.00946 -0.0098245 0)
(0.998077 -0.0124897 0)
(0.995854 -0.0113303 0)
(0.98705 -0.0111755 0)
(0.983151 0.00167401 0)
(0.984471 -0.000547965 0)
(0.985489 0.0132762 0)
(0.991541 0.013202 0)
(0.99622 0.0139871 0)
(0.997571 0.0151422 0)
(1.0009 0.0125826 0)
(1.00211 0.0138908 0)
(1.00018 0.00181225 0)
(1.00147 0.000274128 0)
(1.00467 -0.00139929 0)
(0.996 -0.00860559 0)
(0.992747 0.00450064 0)
(0.997999 0.00574178 0)
(1.00556 0.00915442 0)
(1.01183 -0.000672178 0)
(1.00914 -0.00959601 0)
(0.998076 -0.0119634 0)
(0.995928 -0.0110522 0)
(0.98758 -0.0106503 0)
(0.983511 0.00147698 0)
(0.984922 -0.000127432 0)
(0.985871 0.0123788 0)
(0.991366 0.0132388 0)
(0.996088 0.0133547 0)
(0.997308 0.0149782 0)
(1.00065 0.0126895 0)
(1.00205 0.0134431 0)
(1.00014 0.00177289 0)
(1.00149 0.000229777 0)
(1.00447 -0.00133562 0)
(0.996196 -0.00831452 0)
(0.992973 0.00436218 0)
(0.998162 0.0055387 0)
(1.00533 0.00871766 0)
(1.01137 -0.000590461 0)
(1.00879 -0.0093805 0)
(0.998084 -0.011421 0)
(0.995973 -0.0107716 0)
(0.98811 -0.010128 0)
(0.983887 0.00130469 0)
(0.985422 0.000270576 0)
(0.986365 0.0115398 0)
(0.99134 0.0132075 0)
(0.996064 0.0128051 0)
(0.997208 0.0147293 0)
(1.00046 0.0128051 0)
(1.00207 0.0130076 0)
(1.00007 0.00173136 0)
(1.00153 0.000188696 0)
(1.00423 -0.00127673 0)
(0.996413 -0.00801226 0)
(0.993186 0.00421008 0)
(0.998345 0.00534729 0)
(1.00509 0.00826629 0)
(1.01093 -0.000494875 0)
(1.00843 -0.00917279 0)
(0.998102 -0.0108695 0)
(0.995998 -0.0104786 0)
(0.988648 -0.00961758 0)
(0.984272 0.00116741 0)
(0.985946 0.000630109 0)
(0.986923 0.0107598 0)
(0.991412 0.0131165 0)
(0.996095 0.0123306 0)
(0.997218 0.0144043 0)
(1.00029 0.0129158 0)
(1.00212 0.0126078 0)
(0.999976 0.00168741 0)
(1.00159 0.000152378 0)
(1.00398 -0.00122421 0)
(0.996645 -0.00769876 0)
(0.993385 0.00404323 0)
(0.998539 0.00516938 0)
(1.00484 0.0077996 0)
(1.01051 -0.000384734 0)
(1.00806 -0.00897106 0)
(0.998128 -0.0103155 0)
(0.99601 -0.0101563 0)
(0.989196 -0.00914542 0)
(0.984663 0.00106139 0)
(0.986477 0.000957239 0)
(0.987514 0.010026 0)
(0.991542 0.0129874 0)
(0.996141 0.0119137 0)
(0.997299 0.0140038 0)
(1.00013 0.013012 0)
(1.00216 0.0122601 0)
(0.999872 0.00164073 0)
(1.00166 0.000122527 0)
(1.00372 -0.00117926 0)
(0.996883 -0.00737397 0)
(0.993576 0.00385995 0)
(0.998732 0.00500631 0)
(1.0046 0.0073186 0)
(1.01008 -0.000263399 0)
(1.00769 -0.00877109 0)
(0.998158 -0.00976658 0)
(0.996015 -0.00980502 0)
(0.989748 -0.0087128 0)
(0.985067 0.000980572 0)
(0.986998 0.0012591 0)
(0.988124 0.00933731 0)
(0.991707 0.0128092 0)
(0.996184 0.0115577 0)
(0.997427 0.0135437 0)
(0.99998 0.0130822 0)
(1.00218 0.0119756 0)
(0.999772 0.00159132 0)
(1.00172 9.92186e-05 0)
(1.00346 -0.00114382 0)
(0.997114 -0.00703619 0)
(0.99377 0.00366045 0)
(0.998911 0.00485553 0)
(1.00436 0.00683161 0)
(1.00965 -0.000140099 0)
(1.00732 -0.0085667 0)
(0.998187 -0.00923438 0)
(0.996022 -0.00941851 0)
(0.9903 -0.00830557 0)
(0.985491 0.000929798 0)
(0.9875 0.00153551 0)
(0.988748 0.00868999 0)
(0.991896 0.012585 0)
(0.996217 0.0112769 0)
(0.997587 0.0130291 0)
(0.999842 0.0130955 0)
(1.00215 0.0117617 0)
(0.999686 0.00153927 0)
(1.00177 8.42202e-05 0)
(1.00321 -0.00111989 0)
(0.99733 -0.00668523 0)
(0.993978 0.00344586 0)
(0.999067 0.00471554 0)
(1.00415 0.00634077 0)
(1.00921 -1.42171e-05 0)
(1.00696 -0.00834921 0)
(0.998214 -0.00872725 0)
(0.996034 -0.0089924 0)
(0.990847 -0.00792211 0)
(0.985941 0.000898087 0)
(0.987975 0.0018028 0)
(0.989385 0.00808483 0)
(0.992108 0.0123157 0)
(0.996239 0.0110632 0)
(0.997766 0.012477 0)
(0.999733 0.0130303 0)
(1.00207 0.0116237 0)
(0.999622 0.00148367 0)
(1.00179 7.88757e-05 0)
(1.00299 -0.00110744 0)
(0.997526 -0.00632466 0)
(0.994204 0.00322072 0)
(0.999197 0.00458266 0)
(1.00395 0.0058493 0)
(1.00875 0.000105458 0)
(1.00662 -0.00810632 0)
(0.998239 -0.00825362 0)
(0.996055 -0.00852505 0)
(0.991385 -0.00756419 0)
(0.98642 0.000867997 0)
(0.988421 0.00206763 0)
(0.990029 0.00751627 0)
(0.992346 0.0120009 0)
(0.996247 0.0109026 0)
(0.997954 0.0119145 0)
(0.999665 0.0128684 0)
(1.00195 0.0115709 0)
(0.999582 0.00142592 0)
(1.00179 8.13755e-05 0)
(1.00279 -0.00110636 0)
(0.997699 -0.00595545 0)
(0.994452 0.00298475 0)
(0.999302 0.0044581 0)
(1.00376 0.00536508 0)
(1.00829 0.000203199 0)
(1.00629 -0.00783888 0)
(0.998262 -0.00781115 0)
(0.996083 -0.00802477 0)
(0.991911 -0.00722115 0)
(0.986933 0.000832796 0)
(0.988839 0.00233229 0)
(0.990675 0.00698102 0)
(0.992617 0.0116429 0)
(0.996244 0.0107948 0)
(0.998141 0.0113768 0)
(0.99965 0.0125895 0)
(1.00179 0.0115808 0)
(0.999564 0.0013653 0)
(1.00177 9.39857e-05 0)
(1.00261 -0.00111624 0)
(0.997853 -0.00557969 0)
(0.994717 0.00274051 0)
(0.999387 0.00433556 0)
(1.00359 0.00489431 0)
(1.00782 0.000279843 0)
(1.00597 -0.00754494 0)
(0.998286 -0.00740428 0)
(0.996117 -0.00750542 0)
(0.992423 -0.00687769 0)
(0.987478 0.000791033 0)
(0.989232 0.00259493 0)
(0.991312 0.00650181 0)
(0.992926 0.0112275 0)
(0.996231 0.0107195 0)
(0.998311 0.0108926 0)
(0.999692 0.012197 0)
(1.00161 0.0115961 0)
(0.999562 0.00130126 0)
(1.00173 0.000116611 0)
(1.00245 -0.00113551 0)
(0.997992 -0.00520058 0)
(0.994995 0.00249482 0)
(0.99946 0.00420708 0)
(1.00343 0.00444618 0)
(1.00735 0.000333685 0)
(1.00566 -0.00722455 0)
(0.998314 -0.0070276 0)
(0.996154 -0.00696341 0)
(0.992921 -0.00653086 0)
(0.988054 0.000748883 0)
(0.989609 0.00284768 0)
(0.99193 0.00608453 0)
(0.993277 0.0107513 0)
(0.996216 0.0106526 0)
(0.998453 0.0104796 0)
(0.999787 0.0117165 0)
(1.00144 0.0115565 0)
(0.999572 0.00123521 0)
(1.00168 0.000147134 0)
(1.0023 -0.00116176 0)
(0.998119 -0.00482304 0)
(0.995279 0.00225302 0)
(0.999526 0.0040672 0)
(1.00327 0.00403264 0)
(1.00688 0.000360274 0)
(1.00534 -0.00687719 0)
(0.998347 -0.00667407 0)
(0.996193 -0.00641602 0)
(0.993401 -0.00616866 0)
(0.988657 0.000689414 0)
(0.989975 0.00310211 0)
(0.992519 0.00573044 0)
(0.993669 0.0102298 0)
(0.99621 0.0105746 0)
(0.998557 0.0101505 0)
(0.999922 0.0111892 0)
(1.0013 0.011416 0)
(0.999587 0.00116686 0)
(1.00162 0.000184717 0)
(1.00216 -0.00119161 0)
(0.998239 -0.00445374 0)
(0.995563 0.00202364 0)
(0.999586 0.00391096 0)
(1.00312 0.00365141 0)
(1.00642 0.00036211 0)
(1.00504 -0.00651881 0)
(0.998388 -0.00634186 0)
(0.996233 -0.00586934 0)
(0.993859 -0.00578625 0)
(0.989285 0.000615566 0)
(0.990339 0.0033373 0)
(0.993071 0.00544676 0)
(0.994101 0.00967824 0)
(0.996224 0.0104605 0)
(0.998617 0.00989697 0)
(1.00008 0.0106625 0)
(1.00123 0.0111547 0)
(0.999606 0.00109755 0)
(1.00155 0.000225233 0)
(1.00203 -0.0012228 0)
(0.998354 -0.004098 0)
(0.995845 0.00181625 0)
(0.999642 0.00373423 0)
(1.00297 0.00329917 0)
(1.00596 0.00034283 0)
(1.00473 -0.00615457 0)
(0.998439 -0.00602832 0)
(0.996276 -0.00533254 0)
(0.994294 -0.00538064 0)
(0.989931 0.000542677 0)
(0.990706 0.00354235 0)
(0.993583 0.00523302 0)
(0.994563 0.00910397 0)
(0.996271 0.0102938 0)
(0.998636 0.00970456 0)
(1.00023 0.0101815 0)
(1.00122 0.0107921 0)
(0.999626 0.0010274 0)
(1.00148 0.000270103 0)
(1.00189 -0.00125058 0)
(0.998467 -0.00376355 0)
(0.996121 0.00163234 0)
(0.999694 0.00353582 0)
(1.00281 0.00297886 0)
(1.00552 0.000315052 0)
(1.00442 -0.00577762 0)
(0.9985 -0.00573134 0)
(0.996327 -0.00481306 0)
(0.994704 -0.00495183 0)
(0.990592 0.000472524 0)
(0.99108 0.00371888 0)
(0.99405 0.00508075 0)
(0.995046 0.00852836 0)
(0.996359 0.0100737 0)
(0.998624 0.00954826 0)
(1.00036 0.00976168 0)
(1.00126 0.0103698 0)
(0.999647 0.000957072 0)
(1.0014 0.000315955 0)
(1.00176 -0.00126323 0)
(0.998577 -0.00346225 0)
(0.996391 0.00147277 0)
(0.999741 0.00332003 0)
(1.00266 0.00267517 0)
(1.00508 0.000282608 0)
(1.00411 -0.00539176 0)
(0.998572 -0.00543913 0)
(0.996386 -0.00431096 0)
(0.995089 -0.0045003 0)
(0.991263 0.000409646 0)
(0.991464 0.00385668 0)
(0.99447 0.00498442 0)
(0.99554 0.00796607 0)
(0.996493 0.00979917 0)
(0.998591 0.00940927 0)
(1.00045 0.00939798 0)
(1.00135 0.00993095 0)
(0.999667 0.000888143 0)
(1.00132 0.000356573 0)
(1.00164 -0.00125047 0)
(0.998685 -0.00319858 0)
(0.996653 0.00133318 0)
(0.999783 0.00309764 0)
(1.00251 0.00238244 0)
(1.00466 0.000242336 0)
(1.00381 -0.00499825 0)
(0.998652 -0.00515391 0)
(0.996459 -0.00383458 0)
(0.995447 -0.00402345 0)
(0.991939 0.000363547 0)
(0.991864 0.00395039 0)
(0.994842 0.00494086 0)
(0.996035 0.00743038 0)
(0.99668 0.00946244 0)
(0.998548 0.00927828 0)
(1.00051 0.00908232 0)
(1.00144 0.0095083 0)
(0.999687 0.000821617 0)
(1.00124 0.000390535 0)
(1.00151 -0.00120614 0)
(0.99879 -0.002969 0)
(0.996909 0.001202 0)
(0.99982 0.00288089 0)
(1.00236 0.00209829 0)
(1.00426 0.000194542 0)
(1.00351 -0.00460285 0)
(0.998739 -0.00486307 0)
(0.996548 -0.00338492 0)
(0.995778 -0.00353008 0)
(0.992612 0.00033877 0)
(0.992283 0.00399889 0)
(0.995171 0.00493748 0)
(0.996516 0.00693626 0)
(0.996919 0.00905955 0)
(0.998509 0.00913903 0)
(1.00053 0.00880549 0)
(1.00155 0.00910319 0)
(0.999706 0.00075943 0)
(1.00115 0.000415691 0)
(1.00138 -0.00113427 0)
(0.998892 -0.00276275 0)
(0.997158 0.00106263 0)
(0.999849 0.00267895 0)
(1.00221 0.00183501 0)
(1.00388 0.000140407 0)
(1.00321 -0.00419975 0)
(0.99883 -0.00455579 0)
(0.996652 -0.00296411 0)
(0.996084 -0.00303687 0)
(0.993276 0.000329291 0)
(0.992726 0.00399813 0)
(0.995461 0.00495378 0)
(0.996971 0.00649221 0)
(0.997211 0.00860314 0)
(0.998488 0.00897967 0)
(1.00052 0.00857288 0)
(1.00164 0.00871389 0)
(0.999725 0.000698973 0)
(1.00107 0.000433148 0)
(1.00125 -0.00105013 0)
(0.998987 -0.00256739 0)
(0.997401 0.000909135 0)
(0.999873 0.00248652 0)
(1.00207 0.00160829 0)
(1.00352 8.77037e-05 0)
(1.00292 -0.00379216 0)
(0.998926 -0.00423226 0)
(0.996775 -0.0025819 0)
(0.996364 -0.00255918 0)
(0.993923 0.000330424 0)
(0.993193 0.00393541 0)
(0.995719 0.00496954 0)
(0.997387 0.00611157 0)
(0.997547 0.00810711 0)
(0.998501 0.0087783 0)
(1.00046 0.00838922 0)
(1.00171 0.00835736 0)
(0.999743 0.000640244 0)
(1.00098 0.000436732 0)
(1.00112 -0.000953962 0)
(0.999074 -0.00237051 0)
(0.997635 0.000748092 0)
(0.999895 0.00229206 0)
(1.00192 0.00142578 0)
(1.00318 5.46768e-05 0)
(1.00264 -0.0033832 0)
(0.999024 -0.00388493 0)
(0.996917 -0.00223783 0)
(0.996623 -0.00210183 0)
(0.994545 0.000352559 0)
(0.993682 0.00382477 0)
(0.995956 0.00497489 0)
(0.997754 0.00580454 0)
(0.997914 0.00759652 0)
(0.998561 0.00851518 0)
(1.00039 0.00823403 0)
(1.00175 0.0080443 0)
(0.99976 0.000588284 0)
(1.0009 0.000419157 0)
(1.001 -0.000852741 0)
(0.999152 -0.00216512 0)
(0.99786 0.000588888 0)
(0.99992 0.00209421 0)
(1.00178 0.00127638 0)
(1.00286 3.32417e-05 0)
(1.00238 -0.00297694 0)
(0.999123 -0.00352217 0)
(0.997075 -0.00192098 0)
(0.996865 -0.00167377 0)
(0.995137 0.000390904 0)
(0.99419 0.00367338 0)
(0.996184 0.00495002 0)
(0.998068 0.00555829 0)
(0.998294 0.00709797 0)
(0.998677 0.00818849 0)
(1.0003 0.0080779 0)
(1.00175 0.00778339 0)
(0.999777 0.000542249 0)
(1.00083 0.000378231 0)
(1.00088 -0.000746585 0)
(0.99922 -0.0019511 0)
(0.998076 0.000435099 0)
(0.999949 0.00188584 0)
(1.00165 0.00114774 0)
(1.00258 1.69039e-05 0)
(1.00213 -0.00258134 0)
(0.999222 -0.00313288 0)
(0.997249 -0.0016154 0)
(0.997092 -0.00127786 0)
(0.995695 0.000446275 0)
(0.994714 0.00350119 0)
(0.996414 0.00490137 0)
(0.998335 0.00536438 0)
(0.998674 0.00663276 0)
(0.99885 0.00781187 0)
(1.00023 0.00789751 0)
(1.0017 0.00756933 0)
(0.999792 0.00049519 0)
(1.00076 0.000338021 0)
(1.00078 -0.000670827 0)
(0.999279 -0.00172734 0)
(0.998279 0.000298078 0)
(0.999983 0.00167564 0)
(1.00153 0.00101306 0)
(1.00232 8.41542e-06 0)
(1.00191 -0.00219726 0)
(0.999319 -0.00271646 0)
(0.99743 -0.00131516 0)
(0.997305 -0.000904455 0)
(0.996218 0.00053347 0)
(0.995252 0.00332292 0)
(0.996658 0.00482545 0)
(0.998559 0.00521646 0)
(0.999038 0.00622051 0)
(0.999076 0.00741096 0)
(1.0002 0.00768341 0)
(1.00163 0.00738554 0)
(0.999808 0.00044851 0)
(1.00069 0.000296001 0)
(1.00068 -0.000613787 0)
(0.999336 -0.00150672 0)
(0.998469 0.000176197 0)
(1.00002 0.00146849 0)
(1.00142 0.000944567 0)
(1.00209 3.79635e-05 0)
(1.00171 -0.00184881 0)
(0.999408 -0.0023346 0)
(0.997611 -0.00104334 0)
(0.997503 -0.000558436 0)
(0.9967 0.000645506 0)
(0.995794 0.0031412 0)
(0.996927 0.00470963 0)
(0.998756 0.00509557 0)
(0.999384 0.00585917 0)
(0.999349 0.00699365 0)
(1.00021 0.00742794 0)
(1.00155 0.00720623 0)
(0.999822 0.000406813 0)
(1.00063 0.000252362 0)
(1.0006 -0.000571657 0)
(0.999381 -0.00129826 0)
(0.998645 0.000139238 0)
(1.00007 0.00130503 0)
(1.00133 0.000906335 0)
(1.00188 6.47555e-05 0)
(1.00153 -0.00155226 0)
(0.999493 -0.00201405 0)
(0.9978 -0.000796872 0)
(0.997697 -0.000239591 0)
(0.997143 0.000769176 0)
(0.996333 0.00296456 0)
(0.997224 0.00455525 0)
(0.998935 0.00498392 0)
(0.999698 0.00554983 0)
(0.999654 0.00657236 0)
(1.00028 0.00713701 0)
(1.00147 0.00701611 0)
(0.999836 0.000364484 0)
(1.00058 0.000216226 0)
(1.00053 -0.000548262 0)
(0.999435 -0.0010799 0)
(0.998813 0.000170027 0)
(1.00012 0.00116223 0)
(1.00125 0.000828544 0)
(1.00169 7.55277e-05 0)
(1.00137 -0.00131226 0)
(0.99959 -0.00173316 0)
(0.99801 -0.000575488 0)
(0.997892 5.76775e-05 0)
(0.997548 0.000909477 0)
(0.996857 0.00281125 0)
(0.997545 0.00437686 0)
(0.999102 0.00487161 0)
(0.999972 0.00529866 0)
(0.999971 0.00617234 0)
(1.0004 0.00682181 0)
(1.00142 0.00681096 0)
(0.99985 0.000322624 0)
(1.00052 0.000188226 0)
(1.00047 -0.0005187 0)
(0.999491 -0.00087671 0)
(0.998965 0.000202019 0)
(1.00017 0.00102929 0)
(1.00118 0.000757247 0)
(1.00153 0.000104733 0)
(1.00123 -0.00108728 0)
(0.999693 -0.0014594 0)
(0.998238 -0.000368776 0)
(0.998095 0.000329494 0)
(0.997918 0.00107118 0)
(0.99736 0.00269536 0)
(0.997886 0.00419017 0)
(0.99927 0.00474819 0)
(1.00021 0.00509091 0)
(1.00028 0.00580454 0)
(1.00056 0.00648545 0)
(1.00139 0.00658642 0)
(0.999863 0.000282749 0)
(1.00047 0.000173478 0)
(1.00043 -0.000498764 0)
(0.999552 -0.000714109 0)
(0.999106 0.000257701 0)
(1.00021 0.000929223 0)
(1.00112 0.000688532 0)
(1.00139 0.000145369 0)
(1.00111 -0.000838457 0)
(0.9998 -0.00118119 0)
(0.998475 -0.000182086 0)
(0.998302 0.00055608 0)
(0.998256 0.00122927 0)
(0.997834 0.00260107 0)
(0.998242 0.00399189 0)
(0.99945 0.00460515 0)
(1.00041 0.00491116 0)
(1.00058 0.00547827 0)
(1.00077 0.00614179 0)
(1.00141 0.00634297 0)
(0.999876 0.000243396 0)
(1.00042 0.000165663 0)
(1.00039 -0.000476706 0)
(0.99962 -0.000583477 0)
(0.999236 0.000322039 0)
(1.00025 0.000851327 0)
(1.00107 0.000633266 0)
(1.00127 0.00019126 0)
(1.00101 -0.000600348 0)
(0.999902 -0.000917844 0)
(0.998716 -2.27025e-05 0)
(0.99852 0.000744576 0)
(0.99857 0.00137812 0)
(0.998278 0.00253622 0)
(0.998606 0.00380028 0)
(0.999645 0.00444524 0)
(1.0006 0.00474664 0)
(1.00086 0.00519152 0)
(1.001 0.00580201 0)
(1.00147 0.00607591 0)
(0.999888 0.000207785 0)
(1.00037 0.000164458 0)
(1.00036 -0.000451607 0)
(0.999695 -0.000484087 0)
(0.999361 0.000387818 0)
(1.00029 0.000812173 0)
(1.00104 0.000591215 0)
(1.00118 0.000227046 0)
(1.00093 -0.000384425 0)
(1 -0.000663568 0)
(0.998961 0.000126001 0)
(0.998748 0.000898838 0)
(0.998864 0.00150448 0)
(0.998689 0.00248945 0)
(0.998969 0.0036229 0)
(0.999858 0.00427155 0)
(1.00077 0.00458978 0)
(1.00111 0.00494481 0)
(1.00124 0.00548268 0)
(1.00157 0.00579719 0)
(0.9999 0.000175496 0)
(1.00033 0.000164747 0)
(1.00034 -0.000419024 0)
(0.999777 -0.00040169 0)
(0.999483 0.000449242 0)
(1.00032 0.00079432 0)
(1.00101 0.000559432 0)
(1.00111 0.000259857 0)
(1.00087 -0.000186002 0)
(1.0001 -0.000413392 0)
(0.999201 0.000270609 0)
(0.998983 0.00102465 0)
(0.999143 0.00161432 0)
(0.999073 0.00245547 0)
(0.999326 0.00346564 0)
(1.00009 0.00409654 0)
(1.00095 0.00443242 0)
(1.00134 0.00472743 0)
(1.00149 0.00518385 0)
(1.00171 0.00551095 0)
(0.999911 0.000148673 0)
(1.00029 0.000167021 0)
(1.00031 -0.000367598 0)
(0.999864 -0.000336835 0)
(0.999603 0.000489777 0)
(1.00034 0.000787867 0)
(1.00098 0.00054879 0)
(1.00106 0.000294006 0)
(1.00083 -7.33944e-06 0)
(1.00019 -0.000175053 0)
(0.999435 0.000414471 0)
(0.999223 0.00112912 0)
(0.999409 0.00170558 0)
(0.999427 0.00242693 0)
(0.999671 0.00331871 0)
(1.00032 0.0039201 0)
(1.00112 0.00426529 0)
(1.00155 0.00452663 0)
(1.00172 0.00491073 0)
(1.00187 0.00522806 0)
(0.99992 0.000127118 0)
(1.00025 0.00017456 0)
(1.0003 -0.000291177 0)
(0.999951 -0.000285278 0)
(0.999722 0.000500889 0)
(1.00036 0.00079082 0)
(1.00095 0.000559035 0)
(1.00103 0.000330054 0)
(1.00082 0.000145412 0)
(1.00029 4.41582e-05 0)
(0.999658 0.000559203 0)
(0.999463 0.00121643 0)
(0.999666 0.00177322 0)
(0.999755 0.00240431 0)
(1 0.00318841 0)
(1.00057 0.00375247 0)
(1.0013 0.00410016 0)
(1.00174 0.00433978 0)
(1.00194 0.00466681 0)
(1.00205 0.00495143 0)
(0.999929 0.000110293 0)
(1.00021 0.000185866 0)
(1.00028 -0.000200774 0)
(1.00003 -0.000236492 0)
(0.999841 0.000488032 0)
(1.00038 0.000793008 0)
(1.00093 0.000587152 0)
(1.00102 0.00037131 0)
(1.00082 0.000278957 0)
(1.00038 0.000244564 0)
(0.99987 0.000702861 0)
(0.999698 0.00130003 0)
(0.999912 0.00182452 0)
(1.00006 0.00237833 0)
(1.00031 0.00307049 0)
(1.00081 0.00358929 0)
(1.00147 0.00393592 0)
(1.00192 0.00415786 0)
(1.00215 0.00444371 0)
(1.00223 0.00468598 0)
(0.999937 0.000100811 0)
(1.00019 0.00019262 0)
(1.00026 -0.000110082 0)
(1.00011 -0.000182153 0)
(0.999959 0.000465834 0)
(1.00041 0.000792246 0)
(1.0009 0.000630809 0)
(1.00101 0.000421607 0)
(1.00085 0.000394582 0)
(1.00048 0.000418296 0)
(1.00007 0.000832348 0)
(0.999925 0.00137529 0)
(1.00014 0.00186849 0)
(1.00034 0.00234714 0)
(1.00061 0.00295808 0)
(1.00105 0.00343177 0)
(1.00166 0.00377105 0)
(1.0021 0.00398082 0)
(1.00233 0.00423664 0)
(1.0024 0.00444286 0)
(0.999943 9.56512e-05 0)
(1.00016 0.000197366 0)
(1.00024 -2.48325e-05 0)
(1.00017 -0.000116608 0)
(1.00007 0.000439865 0)
(1.00044 0.000784188 0)
(1.00088 0.000681319 0)
(1.001 0.000487701 0)
(1.00088 0.000494912 0)
(1.00058 0.000564448 0)
(1.00026 0.000947723 0)
(1.00014 0.00143695 0)
(1.00036 0.00190626 0)
(1.0006 0.00232098 0)
(1.00089 0.00285104 0)
(1.00129 0.00328301 0)
(1.00183 0.00360726 0)
(1.00226 0.00380567 0)
(1.0025 0.00403778 0)
(1.00257 0.00421857 0)
(0.999948 9.5493e-05 0)
(1.00015 0.000198467 0)
(1.00022 5.43884e-05 0)
(1.00023 -4.05713e-05 0)
(1.00018 0.000419214 0)
(1.00049 0.000766646 0)
(1.00087 0.000734131 0)
(1.001 0.00056367 0)
(1.00092 0.000589601 0)
(1.00069 0.000686623 0)
(1.00044 0.00104932 0)
(1.00036 0.00148999 0)
(1.00057 0.00192847 0)
(1.00083 0.00229715 0)
(1.00114 0.00275288 0)
(1.00151 0.00314029 0)
(1.00201 0.00345059 0)
(1.00243 0.00363281 0)
(1.00267 0.00384516 0)
(1.00272 0.00400932 0)
(0.999952 9.78751e-05 0)
(1.00014 0.000200322 0)
(1.00021 0.000125612 0)
(1.00027 4.25314e-05 0)
(1.00028 0.000411834 0)
(1.00054 0.000743369 0)
(1.00086 0.000783041 0)
(1.001 0.000646269 0)
(1.00097 0.000682309 0)
(1.0008 0.000790272 0)
(1.00062 0.00113184 0)
(1.00056 0.00153608 0)
(1.00077 0.00194107 0)
(1.00105 0.00226853 0)
(1.00138 0.00266562 0)
(1.00173 0.00300144 0)
(1.00218 0.00329817 0)
(1.00258 0.00346655 0)
(1.00282 0.00365586 0)
(1.00286 0.00381031 0)
(0.999955 0.00010151 0)
(1.00013 0.000205837 0)
(1.00021 0.000184284 0)
(1.00031 0.000128761 0)
(1.00037 0.000419505 0)
(1.0006 0.000719789 0)
(1.00087 0.000821021 0)
(1.00101 0.000730338 0)
(1.00102 0.000775886 0)
(1.0009 0.000884821 0)
(1.00079 0.00119688 0)
(1.00075 0.00156556 0)
(1.00096 0.00194923 0)
(1.00125 0.00223392 0)
(1.00159 0.00258095 0)
(1.00194 0.00286924 0)
(1.00235 0.00314333 0)
(1.00272 0.00330797 0)
(1.00297 0.00347053 0)
(1.003 0.00361577 0)
(0.999957 0.000106551 0)
(1.00013 0.000214525 0)
(1.00021 0.000232809 0)
(1.00034 0.000210233 0)
(1.00045 0.000443551 0)
(1.00067 0.000702303 0)
(1.00089 0.000848932 0)
(1.00102 0.000809146 0)
(1.00107 0.000866991 0)
(1.00101 0.000971056 0)
(1.00094 0.00125403 0)
(1.00094 0.00157762 0)
(1.00114 0.00194311 0)
(1.00143 0.0021995 0)
(1.00178 0.00249701 0)
(1.00212 0.00274825 0)
(1.00251 0.00299107 0)
(1.00286 0.00315156 0)
(1.0031 0.0032943 0)
(1.00313 0.00342247 0)
(0.999959 0.000111011 0)
(1.00012 0.000228763 0)
(1.00021 0.000273618 0)
(1.00038 0.00028409 0)
(1.00052 0.000480091 0)
(1.00073 0.000695009 0)
(1.00092 0.000869267 0)
(1.00105 0.000879116 0)
(1.00112 0.000953511 0)
(1.0011 0.00104844 0)
(1.00109 0.00130606 0)
(1.00112 0.00158602 0)
(1.00132 0.00191869 0)
(1.00159 0.0021595 0)
(1.00195 0.00241689 0)
(1.00229 0.00263175 0)
(1.00267 0.00284754 0)
(1.00299 0.00299303 0)
(1.00323 0.00312656 0)
(1.00325 0.00323353 0)
(0.99996 0.000115482 0)
(1.00012 0.0002468 0)
(1.00022 0.000310137 0)
(1.00041 0.000348741 0)
(1.00058 0.000523261 0)
(1.00079 0.000700589 0)
(1.00097 0.000885405 0)
(1.00108 0.000935957 0)
(1.00117 0.00103328 0)
(1.00119 0.00112062 0)
(1.00123 0.00134795 0)
(1.00128 0.00159451 0)