/*--------------------------------*- C++ -*----------------------------------*\
| =========                 |                                                 |
| \\      /  F ield         | OpenFOAM: The Open Source CFD Toolbox           |
|  \\    /   O peration     | Version:  v1812                                 |
|   \\  /    A nd           | Web:      www.OpenFOAM.com                      |
|    \\/     M anipulation  |                                                 |
\*---------------------------------------------------------------------------*/
FoamFile
{
    version     2.0;
    format      ascii;
    class       volScalarField;
    location    "5";
    object      p;
}
// * * * * * * * * * * * * * * * * * * * * * * * * * * * * * * * * * * * * * //

dimensions      [0 2 -2 0 0 0 0];


internalField   nonuniform List<scalar> 
9600
(
3.75891e-11
-0.000637267
0.00175202
-0.000527731
0.000771871
-0.00143515
-0.000853462
-0.00257148
-0.00284431
-0.00190953
0.00167492
-0.000717278
-2.62073e-05
-0.00265152
-0.00453355
-0.00456634
-0.00786291
-0.008737
-0.0101133
-0.0109717
-3.10941e-06
-0.000639275
0.00175639
-0.000532925
0.000777025
-0.00144125
-0.000862375
-0.00256951
-0.00284949
-0.00192136
0.00170753
-0.000739104
4.90905e-06
-0.00267612
-0.00451295
-0.00464269
-0.00782858
-0.00877037
-0.0100957
-0.0109814
-6.8055e-06
-0.000641046
0.00176196
-0.000539447
0.000786183
-0.00145138
-0.000876288
-0.00256399
-0.00285783
-0.00193105
0.00172073
-0.000775612
4.77259e-05
-0.00271863
-0.00448303
-0.00473489
-0.00776502
-0.00882592
-0.0100643
-0.0109876
-1.04263e-05
-0.000642738
0.00176681
-0.000548202
0.000790428
-0.0014631
-0.000890765
-0.00255385
-0.0028653
-0.0019417
0.00171806
-0.00083614
7.79491e-05
-0.00278281
-0.00446154
-0.00482992
-0.00771176
-0.0088674
-0.0100393
-0.0110119
-1.42388e-05
-0.000644584
0.0017707
-0.000560015
0.000790569
-0.00147641
-0.000904463
-0.00253733
-0.00286961
-0.00195235
0.00170297
-0.000918893
9.73874e-05
-0.00286728
-0.00444331
-0.00492756
-0.00766876
-0.00888335
-0.0100401
-0.011024
-1.82505e-05
-0.000646613
0.00177274
-0.000574623
0.000791348
-0.00149033
-0.000915969
-0.00251365
-0.00286887
-0.00196236
0.00167701
-0.00101614
0.000112617
-0.0029636
-0.00442176
-0.0050241
-0.00762074
-0.00888631
-0.0100613
-0.0110021
-2.24315e-05
-0.000648936
0.00177203
-0.000590909
0.000795657
-0.00150425
-0.000924631
-0.00248276
-0.00286211
-0.00197158
0.00164141
-0.00111823
0.000126831
-0.00306323
-0.0043988
-0.00511108
-0.00757186
-0.00888418
-0.0100898
-0.0109617
-2.68091e-05
-0.000651678
0.0017681
-0.00060766
0.000804313
-0.00151791
-0.000930531
-0.002445
-0.00284913
-0.00198013
0.00159726
-0.00121829
0.0001406
-0.00316125
-0.0043776
-0.00518531
-0.00753535
-0.00887292
-0.010126
-0.010921
-3.14542e-05
-0.000654868
0.00176106
-0.00062408
0.000817262
-0.00153127
-0.000934041
-0.00240087
-0.00283029
-0.00198843
0.00154547
-0.00131274
0.000152555
-0.00325432
-0.00435973
-0.00524807
-0.00751528
-0.00884818
-0.0101751
-0.0108855
-3.64447e-05
-0.000658436
0.00175143
-0.000639954
0.000833756
-0.00154444
-0.000935795
-0.00235104
-0.00280652
-0.00199691
0.00148693
-0.00140021
0.000160191
-0.00333903
-0.00434745
-0.00529873
-0.00751015
-0.00881087
-0.0102359
-0.0108566
-4.18366e-05
-0.000662248
0.00174004
-0.000655513
0.000852427
-0.00155739
-0.000936799
-0.00229642
-0.00277932
-0.00200579
0.00142261
-0.00148045
0.000160562
-0.00341238
-0.00434337
-0.00533427
-0.0075202
-0.00876372
-0.0103028
-0.0108394
-4.7658e-05
-0.000666142
0.00172775
-0.000671096
0.000871703
-0.00156989
-0.000938282
-0.00223806
-0.0027506
-0.00201494
0.00135359
-0.0015538
0.000150393
-0.00347191
-0.0043493
-0.00535195
-0.00754611
-0.0087095
-0.010368
-0.0108404
-5.39197e-05
-0.00066997
0.0017153
-0.000686806
0.000890181
-0.00158166
-0.000941446
-0.00217696
-0.00272219
-0.00202391
0.00128088
-0.00162101
0.00012691
-0.00351573
-0.00436712
-0.00535037
-0.00758575
-0.00865195
-0.0104242
-0.0108634
-6.06332e-05
-0.000673628
0.00170315
-0.000702374
0.000906774
-0.00159249
-0.000947274
-0.00211395
-0.00269545
-0.00203205
0.00120503
-0.00168303
8.87453e-05
-0.00354279
-0.00439936
-0.0053292
-0.00763494
-0.00859683
-0.0104633
-0.0109078
-6.78143e-05
-0.00067708
0.00169154
-0.000717313
0.000920669
-0.00160225
-0.000956297
-0.00204953
-0.00267122
-0.00203876
0.0011259
-0.0017406
3.55882e-05
-0.00355324
-0.00444799
-0.00528996
-0.00768918
-0.008551
-0.0104783
-0.0109701
-7.54772e-05
-0.000680352
0.00168044
-0.000731192
0.00093124
-0.00161071
-0.000968692
-0.00198397
-0.00265006
-0.00204361
0.00104285
-0.00179404
-3.27982e-05
-0.00354807
-0.00451357
-0.00523667
-0.00774309
-0.00852127
-0.0104648
-0.011045
-8.36327e-05
-0.000683505
0.00166972
-0.000743816
0.000938042
-0.00161752
-0.0009846
-0.00191738
-0.00263232
-0.00204636
0.000955025
-0.00184355
-0.000121408
-0.00352887
-0.00459541
-0.00517463
-0.00779055
-0.00851396
-0.0104214
-0.0111246
-9.2286e-05
-0.00068661
0.00165919
-0.00075519
0.000940798
-0.00162221
-0.00100422
-0.0018497
-0.00261832
-0.00204702
0.000861875
-0.00188978
-0.000218087
-0.00349702
-0.00469167
-0.00510941
-0.00782599
-0.00853379
-0.0103489
-0.0111993
-0.000101433
-0.000689735
0.00164866
-0.000765414
0.000939359
-0.00162427
-0.00102782
-0.00178074
-0.00260836
-0.00204586
0.000763244
-0.00193353
-0.000327679
-0.00345443
-0.00479892
-0.00504637
-0.0078447
-0.0085816
-0.0102508
-0.0112587
-0.00011105
-0.000692963
0.00163789
-0.000774609
0.000933637
-0.00162321
-0.00105572
-0.00171035
-0.00260271
-0.00204316
0.000659411
-0.00197544
-0.000450064
-0.00340424
-0.0049122
-0.00499074
-0.00784233
-0.00865481
-0.0101349
-0.0112931
-0.000121084
-0.000696402
0.00162662
-0.000782889
0.000923523
-0.00161856
-0.00108823
-0.00163838
-0.00260166
-0.00203943
0.000551321
-0.00201706
-0.000583984
-0.00334897
-0.00502708
-0.00494794
-0.00781568
-0.0087489
-0.0100109
-0.0112933
-0.000131463
-0.000700168
0.00161461
-0.000790326
0.000908782
-0.00160987
-0.00112567
-0.0015647
-0.00260512
-0.00203575
0.000440281
-0.00206004
-0.000727562
-0.00329051
-0.00514053
-0.00492336
-0.00776394
-0.00885874
-0.0098883
-0.011251
-0.000142117
-0.0007044
0.00160164
-0.000796929
0.000889105
-0.00159668
-0.00116833
-0.00148942
-0.0026127
-0.00203346
0.000327982
-0.0021059
-0.000878922
-0.0032306
-0.00524993
-0.00492044
-0.00768767
-0.00897934
-0.00977675
-0.0111593
-0.000152962
-0.000709272
0.00158747
-0.000802636
0.000864204
-0.00157842
-0.00121659
-0.00141293
-0.00262374
-0.00203411
0.000216585
-0.00215634
-0.00103675
-0.00317043
-0.00535239
-0.00494138
-0.00758797
-0.00910458
-0.00968664
-0.0110151
-0.000163865
-0.000714962
0.00157186
-0.000807265
0.00083367
-0.00155463
-0.00127071
-0.00133584
-0.00263735
-0.00203979
0.000108827
-0.00221198
-0.00120101
-0.00311074
-0.00544532
-0.00498946
-0.00746718
-0.00922504
-0.00962781
-0.0108209
-0.000174667
-0.000721647
0.00155451
-0.000810479
0.000796922
-0.00152503
-0.00133062
-0.00125895
-0.00265214
-0.00205318
7.50471e-06
-0.00227214
-0.00137253
-0.0030522
-0.0055269
-0.00506758
-0.00732909
-0.0093291
-0.00960803
-0.0105872
-0.000185213
-0.00072951
0.00153511
-0.000811874
0.000753351
-0.00148942
-0.00139597
-0.00118357
-0.00266598
-0.00207696
-8.5998e-05
-0.00233503
-0.0015519
-0.00299539
-0.00559522
-0.00517762
-0.00717966
-0.00940426
-0.0096319
-0.0103322
-0.000195346
-0.00073873
0.00151328
-0.000811019
0.000702382
-0.00144754
-0.00146625
-0.00111114
-0.00267684
-0.00211337
-0.000171327
-0.00239789
-0.00174039
-0.00294175
-0.00565945
-0.00532085
-0.00702734
-0.00943661
-0.00969755
-0.0100801
-0.000204901
-0.000749492
0.00148855
-0.000807331
0.000643429
-0.00139941
-0.00154058
-0.00104362
-0.00268246
-0.00216445
-0.000248716
-0.00245678
-0.00194005
-0.00289388
-0.00575163
-0.00549596
-0.0068831
-0.00941299
-0.00979357
-0.00985936
-0.000213685
-0.000761925
0.00146048
-0.000800145
0.000575912
-0.0013454
-0.00161764
-0.000983484
-0.00267994
-0.00223171
-0.000320009
-0.00250694
-0.0021524
-0.00285269
-0.00578499
-0.00569761
-0.00676096
-0.00932646
-0.0099013
-0.00969668
-0.000221527
-0.000776055
0.00142847
-0.00078889
0.000499456
-0.00128602
-0.00169579
-0.000933341
-0.00266678
-0.0023152
-0.000388654
-0.00254393
-0.00237785
-0.00281949
-0.00576563
-0.00591694
-0.00667674
-0.00917962
-0.00999717
-0.00960851
-0.000228284
-0.000791874
0.00139173
-0.00077296
0.000413901
-0.00122198
-0.00177285
-0.000895955
-0.00264111
-0.00241361
-0.000459591
-0.00256354
-0.00261412
-0.00280694
-0.00569987
-0.00614175
-0.00664418
-0.00898446
-0.0100547
-0.00959502
-0.000233812
-0.000809296
0.00134935
-0.00075181
0.000319307
-0.00115444
-0.00184631
-0.000874274
-0.00260186
-0.00252417
-0.000538672
-0.00256268
-0.00285616
-0.00282479
-0.00559353
-0.00635756
-0.00666939
-0.00875947
-0.0100503
-0.00963721
-0.000237987
-0.000828104
0.00130036
-0.000725072
0.00021618
-0.00108511
-0.00191336
-0.000871033
-0.00254913
-0.0026429
-0.000631854
-0.00254005
-0.00309741
-0.00288089
-0.00545557
-0.00654723
-0.0067485
-0.0085293
-0.0099712
-0.00970444
-0.000240751
-0.00084798
0.0012438
-0.000692551
0.000105515
-0.00101623
-0.00197091
-0.000888088
-0.00248432
-0.00276505
-0.000744379
-0.00249655
-0.0033296
-0.00298103
-0.00529566
-0.00669389
-0.00687172
-0.00832038
-0.00981956
-0.00976053
-0.00024216
-0.000868476
0.00117877
-0.000654333
-1.12635e-05
-0.000950454
-0.00201576
-0.000926367
-0.00241046
-0.00288458
-0.000880491
-0.00243676
-0.00354278
-0.00312601
-0.00512694
-0.0067853
-0.00702459
-0.00815294
-0.00961162
-0.00977254
-0.000242281
-0.000889241
0.00110449
-0.000610527
-0.000132549
-0.000890812
-0.00204522
-0.000985638
-0.00233162
-0.00299546
-0.00104283
-0.00236806
-0.00372643
-0.00331106
-0.00496777
-0.00681479
-0.00718808
-0.00803813
-0.00937152
-0.0097196
-0.000241199
-0.000909945
0.00102037
-0.000561473
-0.000256205
-0.000840754
-0.00205753
-0.00106374
-0.00225299
-0.00309267
-0.0012307
-0.00229925
-0.00387227
-0.00352891
-0.00483654
-0.00678277
-0.00734224
-0.00797733
-0.00912521
-0.00959771
-0.000239122
-0.000930043
0.000926088
-0.000508238
-0.000379242
-0.000803677
-0.00205192
-0.0011572
-0.00218069
-0.00317222
-0.00144075
-0.00224053
-0.00397601
-0.00377093
-0.00474737
-0.00669776
-0.00746903
-0.00796197
-0.00889485
-0.00942067
-0.000236295
-0.000949006
0.000821478
-0.000452061
-0.000498606
-0.000782607
-0.00202815
-0.00126163
-0.00212102
-0.00323225
-0.00166813
-0.00220146
-0.00403685
-0.00402413
-0.0047086
-0.00657269
-0.00755363
-0.00797962
-0.00869545
-0.00920839
-0.000233118
-0.00096633
0.000706865
-0.000394473
-0.000611226
-0.000779982
-0.00198773
-0.00137144
-0.00207974
-0.00327324
-0.0019062
-0.00218939
-0.0040572
-0.00427413
-0.00472418
-0.00642414
-0.00758491
-0.00801664
-0.00853394
-0.00897907
-0.000230142
-0.000981173
0.000583021
-0.000338
-0.000713585
-0.000796975
-0.00193467
-0.0014801
-0.00206063
-0.003298
-0.00214694
-0.0022102
-0.00404384
-0.0045058
-0.00478992
-0.00627151
-0.00755914
-0.00805609
-0.00841291
-0.00874958
-0.000227971
-0.000992454
0.000450616
-0.00028549
-0.00080183
-0.000834374
-0.00187444
-0.00158137
-0.00206403
-0.00330987
-0.00238383
-0.00226802
-0.00400649
-0.00470163
-0.00489404
-0.00613444
-0.00748151
-0.00807989
-0.0083324
-0.00853652
-0.00022757
-0.000999155
0.000310926
-0.000240325
-0.000872298
-0.000891559
-0.00181422
-0.00167036
-0.00208951
-0.00331338
-0.0026119
-0.00236287
-0.00395554
-0.00485119
-0.00502404
-0.00602647
-0.00736241
-0.00807251
-0.00828408
-0.00835588
-0.000229997
-0.00100044
0.00016598
-0.000206537
-0.000923513
-0.000965064
-0.00176106
-0.00174462
-0.00213325
-0.00331407
-0.00282632
-0.0024906
-0.00390233
-0.00495093
-0.0051643
-0.00595296
-0.00721733
-0.00802492
-0.00824949
-0.00821786
-0.000236117
-0.000995828
1.83791e-05
-0.000188182
-0.000955136
-0.00104882
-0.00172108
-0.00180484
-0.00218944
-0.00331592
-0.00302413
-0.00264365
-0.00385637
-0.00500526
-0.00529902
-0.00591331
-0.0070644
-0.00793842
-0.00820956
-0.00811809
-0.000246709
-0.000985376
-0.000127909
-0.000188826
-0.000969185
-0.00113621
-0.00169826
-0.00185405
-0.00225309
-0.0033214
-0.00320297
-0.00281312
-0.00381702
-0.00502087
-0.00541643
-0.00590335
-0.00691761
-0.00782157
-0.00815225
-0.00803932
-0.000262189
-0.000969702
-0.000270244
-0.000211192
-0.000972146
-0.00122139
-0.00169348
-0.00189636
-0.00231422
-0.00333107
-0.00336119
-0.00299028
-0.00380423
-0.00500652
-0.00550897
-0.00591641
-0.00678507
-0.00768238
-0.00807525
-0.00796707
-0.000282423
-0.000950188
-0.000401376
-0.000255664
-0.000971909
-0.00130041
-0.00170508
-0.00193533
-0.00237645
-0.0033446
-0.00349751
-0.0031679
-0.00381326
-0.00497263
-0.0055736
-0.00594487
-0.00667266
-0.00752792
-0.00797892
-0.00789476
-0.000306911
-0.000929056
-0.000520721
-0.000320072
-0.000975616
-0.00137151
-0.00172957
-0.00197357
-0.00243878
-0.0033621
-0.00361184
-0.0033446
-0.00384163
-0.00492791
-0.0056104
-0.00598009
-0.00658552
-0.00736815
-0.00786116
-0.00781849
-0.000335129
-0.000908376
-0.000626684
-0.000400179
-0.000988522
-0.00143515
-0.00176377
-0.00201319
-0.00249876
-0.00338312
-0.00370698
-0.00350416
-0.00388474
-0.00488036
-0.00562166
-0.00601288
-0.006524
-0.00721474
-0.00772054
-0.00773284
-0.000366398
-0.000889554
-0.000719608
-0.00049079
-0.00101313
-0.00149515
-0.00180588
-0.00205444
-0.00255442
-0.00340638
-0.00378743
-0.0036475
-0.00393732
-0.00483299
-0.00560998
-0.00603749
-0.00648307
-0.0070773
-0.00756288
-0.00762992
-0.000400031
-0.000873699
-0.000800653
-0.000587732
-0.00105061
-0.00155608
-0.00185519
-0.00209619
-0.00260457
-0.00343079
-0.00385673
-0.00377611
-0.00399438
-0.00478632
-0.00557729
-0.00604924
-0.00645478
-0.00696277
-0.00740256
-0.00750291
-0.000435344
-0.00086186
-0.000871327
-0.000688021
-0.00110044
-0.00162068
-0.00191235
-0.00213832
-0.00264679
-0.00345411
-0.00391734
-0.00389077
-0.00405314
-0.00474172
-0.005526
-0.00604388
-0.00643165
-0.00687029
-0.00725314
-0.00735599
-0.000471578
-0.000854077
-0.000934631
-0.000789729
-0.00116041
-0.00169027
-0.00197934
-0.00218195
-0.0026779
-0.00347241
-0.00397261
-0.00399606
-0.00411351
-0.00470009
-0.00545781
-0.00601826
-0.00640896
-0.00679317
-0.00712183
-0.00720542
-0.000508249
-0.00085088
-0.000993003
-0.000891676
-0.00122743
-0.00176477
-0.00205753
-0.00222922
-0.0026977
-0.00347994
-0.0040201
-0.0040955
-0.00417786
-0.00466393
-0.00537639
-0.00596893
-0.00638015
-0.00672576
-0.0070082
-0.00706566
-0.000545007
-0.000853453
-0.00104929
-0.000994217
-0.0012984
-0.00184095
-0.00214667
-0.00228429
-0.00270865
-0.00347345
-0.00405526
-0.00418789
-0.00424879
-0.00463872
-0.00528782
-0.00589441
-0.0063364
-0.00666335
-0.00690657
-0.00694177
-0.000582521
-0.000860665
-0.00110575
-0.00109782
-0.00137152
-0.00191396
-0.00224458
-0.00235305
-0.00271522
-0.00345143
-0.00407292
-0.00426907
-0.00432533
-0.00462996
-0.00520024
-0.00579773
-0.00626976
-0.00659991
-0.00681138
-0.00682977
-0.00062275
-0.000873483
-0.00115965
-0.00120225
-0.00144642
-0.00197974
-0.00234615
-0.00243907
-0.0027267
-0.00341482
-0.00406923
-0.00433407
-0.00440349
-0.00463829
-0.00512367
-0.00568841
-0.00617771
-0.00652703
-0.00672017
-0.00672248
-0.000666179
-0.000891882
-0.00121146
-0.00130758
-0.00152496
-0.00203613
-0.00244299
-0.00254148
-0.00275387
-0.00336929
-0.00404138
-0.0043773
-0.00447704
-0.00466052
-0.00506443
-0.00557957
-0.00606439
-0.00643479
-0.00662925
-0.00661651
-0.000713136
-0.000916495
-0.00126101
-0.00141277
-0.00161002
-0.00208392
-0.00252709
-0.00265516
-0.00280253
-0.00332592
-0.00399037
-0.00439234
-0.00453921
-0.00469309
-0.00502296
-0.00548076
-0.00594149
-0.00632067
-0.00653106
-0.00651081
-0.000764172
-0.000948047
-0.0013086
-0.00151494
-0.00170255
-0.00212817
-0.00259402
-0.00276996
-0.00287344
-0.00329525
-0.00392291
-0.00437705
-0.00458083
-0.00472944
-0.00499759
-0.0053946
-0.00582167
-0.00619091
-0.00641713
-0.00640373
-0.000819354
-0.000986839
-0.00135494
-0.00161191
-0.00180184
-0.00217581
-0.0026438
-0.00287384
-0.00296355
-0.00328585
-0.00384871
-0.00433372
-0.00459571
-0.00475903
-0.00498509
-0.00532229
-0.0057104
-0.00605697
-0.00628617
-0.0062893
-0.000878465
-0.00103301
-0.00140189
-0.00170284
-0.00190601
-0.00223103
-0.00268047
-0.00295839
-0.00306242
-0.00330211
-0.00377902
-0.00426692
-0.00458167
-0.0047724
-0.00497856
-0.00526438
-0.00560857
-0.0059282
-0.00614545
-0.00616145
-0.000941238
-0.00108676
-0.0014511
-0.0017869
-0.00201184
-0.00229591
-0.00271165
-0.00302191
-0.00315619
-0.00334091
-0.00372549
-0.00418497
-0.00453867
-0.00476436
-0.00496697
-0.00521595
-0.00551667
-0.00580705
-0.00600499
-0.00602302
-0.00100778
-0.00114746
-0.00150501
-0.00186464
-0.00211571
-0.00237052
-0.00274454
-0.00306723
-0.00323462
-0.00339292
-0.0036942
-0.00410129
-0.00447011
-0.00473075
-0.0049414
-0.00516857
-0.00543314
-0.00569318
-0.00586997
-0.0058797
-0.00107798
-0.0012152
-0.00156506
-0.00193787
-0.00221461
-0.00245269
-0.00278351
-0.00310018
-0.0032953
-0.0034455
-0.00368089
-0.00402653
-0.00438369
-0.00466941
-0.00489729
-0.0051135
-0.00535131
-0.0055847
-0.0057411
-0.00573755
-0.00115222
-0.00128746
-0.0016316
-0.00200997
-0.00230851
-0.00254047
-0.00283087
-0.00312699
-0.00333925
-0.00349156
-0.00367876
-0.00396285
-0.00429053
-0.00458266
-0.00482791
-0.00504319
-0.00526159
-0.00547428
-0.00561342
-0.00559866
-0.00123092
-0.00136546
-0.00170497
-0.00208243
-0.00239643
-0.00262981
-0.00288762
-0.00315529
-0.00336938
-0.00352556
-0.00368066
-0.00390759
-0.00419652
-0.00447821
-0.00473197
-0.00495385
-0.0051581
-0.00535214
-0.00547733
-0.00545297
-0.00131483
-0.00145014
-0.00178495
-0.0021578
-0.00248076
-0.00271772
-0.00295098
-0.00318956
-0.0033935
-0.00354834
-0.00368078
-0.00385576
-0.00409626
-0.00435353
-0.00460366
-0.00483757
-0.00504223
-0.00522582
-0.0053419
-0.0053088
-0.00140361
-0.00153615
-0.00186969
-0.00224006
-0.00256619
-0.00280659
-0.00302104
-0.0032312
-0.00341712
-0.00356232
-0.00367872
-0.00381196
-0.00399591
-0.00420718
-0.00442844
-0.00466067
-0.00487521
-0.00506797
-0.0051992
-0.00517652
-0.00149816
-0.00162948
-0.00196062
-0.00232706
-0.00265235
-0.00289527
-0.00309668
-0.00328211
-0.00344652
-0.00357164
-0.00366565
-0.00376672
-0.0039049
-0.00406777
-0.00423293
-0.00441928
-0.00460566
-0.00477849
-0.0049261
-0.00496679
-0.00159939
-0.00173067
-0.00205708
-0.0024184
-0.00274164
-0.00298631
-0.00318203
-0.00334763
-0.00348681
-0.00358753
-0.00364758
-0.00369606
-0.00378671
-0.00391757
-0.00405585
-0.00421516
-0.00437425
-0.00447624
-0.0045141
-0.00447991
-0.00170503
-0.00183432
-0.00215907
-0.00251723
-0.00283757
-0.00308112
-0.00327634
-0.00343759
-0.00355794
-0.00363265
-0.00365447
-0.00360825
-0.00355036
-0.0035385
-0.00358531
-0.00373531
-0.00398666
-0.00427648
-0.00450518
-0.00457021
-0.00181526
-0.00194652
-0.00227155
-0.00262274
-0.00293374
-0.0031706
-0.00336283
-0.00353543
-0.00367511
-0.00377976
-0.00386928
-0.00385884
-0.00369303
-0.00347994
-0.00326618
-0.0030672
-0.00287279
-0.00266303
-0.00248976
-0.00242429
-0.00193455
-0.00206913
-0.00239407
-0.00273706
-0.00302938
-0.00324916
-0.00343727
-0.00360868
-0.00370883
-0.0036651
-0.00350876
-0.00331659
-0.00317286
-0.00313691
-0.00315777
-0.00316126
-0.00315646
-0.00311329
-0.00301595
-0.00291559
-0.002071
-0.00219673
-0.00252062
-0.00286909
-0.00316372
-0.00333979
-0.00342048
-0.00344985
-0.00344223
-0.00342763
-0.0034407
-0.00347772
-0.00347838
-0.00339373
-0.00323456
-0.0029863
-0.00268522
-0.00240387
-0.00217827
-0.00206982
-0.00223384
-0.00232442
-0.0025848
-0.00284839
-0.00305468
-0.00318153
-0.0032736
-0.003353
-0.00340056
-0.00342886
-0.00343176
-0.00338011
-0.00332108
-0.00330701
-0.00338232
-0.00355113
-0.00376332
-0.00399865
-0.00422288
-0.00440724
-0.00243488
-0.00254147
-0.00270161
-0.0028516
-0.00299334
-0.0031166
-0.00325406
-0.00339536
-0.00348105
-0.00349745
-0.00350068
-0.00348852
-0.00343524
-0.0033397
-0.00317838
-0.00294609
-0.00265086
-0.00238575
-0.00221161
-0.00214933
-0.0025562
-0.00265537
-0.00278623
-0.00287991
-0.00298759
-0.00310622
-0.00323106
-0.0033304
-0.00340045
-0.00344393
-0.00346977
-0.00347992
-0.00344933
-0.00342
-0.00343657
-0.00346468
-0.00347788
-0.00342248
-0.0033349
-0.00330165
-0.0128586
-0.0123792
-0.0156844
-0.0190782
-0.0191691
-0.0171862
-0.0148272
-0.012761
-0.0111676
-0.0100203
-0.00927068
-0.00879163
-0.00822643
-0.0073835
-0.00651546
-0.00586204
-0.00538106
-0.00497868
-0.00458735
-0.00414082
-0.00371499
-0.00346846
-0.00336463
-0.00315205
-0.00267737
-0.00206239
-0.00149273
-0.0010174
-0.000599322
-0.000190165
0.000245979
0.000691455
0.00110614
0.00145461
0.00174646
0.00205019
0.0023975
0.00275321
0.00318097
0.00373886
0.00432591
0.0048456
0.00535343
0.00588557
0.00640233
0.0068893
0.00739684
0.0079286
0.00847613
0.00902577
0.00957455
0.0101361
0.0107051
0.0112737
0.0118327
0.0123871
0.0129843
0.0136383
0.0143008
0.0149977
0.0157147
0.0164097
0.0170626
0.0177622
0.0184972
0.0192194
0.019951
0.0207227
0.0215017
0.0222882
0.0231136
0.0239585
0.0247977
0.0255956
0.0263963
0.0272642
0.0281746
0.0291111
0.0300454
0.0310006
0.0319335
0.0329011
0.0338924
0.0349007
0.0359344
0.0369734
0.0380407
0.0391054
0.0402227
0.0413347
0.0425009
0.0436451
0.0448719
0.0460917
0.0473678
0.0486935
0.0500278
0.0514632
0.0528807
0.054458
-0.0128174
-0.0124217
-0.0155683
-0.0189459
-0.0191001
-0.0171523
-0.0148066
-0.0127468
-0.0111565
-0.0100104
-0.00926137
-0.008784
-0.00822071
-0.00737874
-0.00651083
-0.00585741
-0.00537653
-0.00497442
-0.00458358
-0.00413736
-0.00371151
-0.00346509
-0.00336175
-0.00314973
-0.00267527
-0.00206023
-0.00149057
-0.00101538
-0.000597507
-0.000188571
0.000247417
0.000692812
0.00110746
0.00145587
0.00174757
0.00205115
0.00239838
0.00275402
0.00318163
0.00373949
0.00432658
0.00484623
0.00535399
0.0058861
0.00640287
0.0068898
0.0073973
0.00792905
0.00847656
0.00902619
0.00957495
0.0101365
0.0107054
0.0112741
0.0118331
0.0123874
0.0129846
0.0136386
0.0143011
0.014998
0.015715
0.01641
0.0170628
0.0177625
0.0184975
0.0192197
0.0199513
0.020723
0.021502
0.0222884
0.0231138
0.0239587
0.0247979
0.0255958
0.0263965
0.0272644
0.0281748
0.0291113
0.0300456
0.0310007
0.0319337
0.0329013
0.0338925
0.0349009
0.0359346
0.0369735
0.0380408
0.0391055
0.0402228
0.0413348
0.042501
0.0436452
0.044872
0.0460918
0.0473678
0.0486936
0.0500278
0.0514633
0.0528808
0.0544583
-0.0129409
-0.0125283
-0.0153333
-0.0186715
-0.0189694
-0.0170999
-0.0147771
-0.0127266
-0.0111432
-0.0100014
-0.00925362
-0.00877576
-0.00821265
-0.00737206
-0.00650601
-0.00585391
-0.00537319
-0.00497078
-0.00457995
-0.00413398
-0.00370832
-0.0034622
-0.00335938
-0.00314782
-0.00267342
-0.00205825
-0.00148857
-0.00101349
-0.000595794
-0.000187071
0.000248771
0.000694094
0.00110871
0.00145707
0.00174861
0.00205199
0.00239915
0.00275467
0.00318216
0.00374005
0.00432723
0.00484682
0.00535449
0.0058866
0.00640336
0.00689023
0.00739769
0.00792943
0.00847694
0.00902656
0.0095753
0.0101369
0.0107058
0.0112744
0.0118334
0.0123877
0.0129849
0.0136388
0.0143014
0.0149982
0.0157153
0.0164102
0.0170631
0.0177627
0.0184977
0.0192199
0.0199515
0.0207232
0.0215022
0.0222886
0.023114
0.0239589
0.0247981
0.025596
0.0263967
0.0272645
0.0281749
0.0291114
0.0300457
0.0310008
0.0319338
0.0329014
0.0338926
0.034901
0.0359347
0.0369736
0.0380409
0.0391056
0.0402229
0.0413349
0.0425011
0.0436453
0.044872
0.0460918
0.0473679
0.0486937
0.0500279
0.0514634
0.052881
0.0544587
-0.0130884
-0.0125981
-0.0150042
-0.0182945
-0.0187787
-0.0170222
-0.0147326
-0.0126952
-0.0111225
-0.00998998
-0.00924582
-0.00876582
-0.00820027
-0.00736123
-0.00649955
-0.00585093
-0.00537093
-0.00496745
-0.00457583
-0.00413015
-0.00370523
-0.00345953
-0.00335682
-0.00314539
-0.00267115
-0.0020561
-0.0014865
-0.00101142
-0.000593766
-0.00018523
0.000250397
0.000695585
0.00111019
0.00145853
0.00174988
0.00205298
0.00239997
0.00275537
0.00318275
0.00374071
0.00432798
0.00484748
0.00535505
0.00588716
0.0064039
0.00689069
0.00739809
0.00792983
0.00847733
0.00902695
0.00957566
0.0101372
0.0107061
0.0112747
0.0118337
0.012388
0.0129851
0.0136391
0.0143016
0.0149985
0.0157156
0.0164105
0.0170633
0.0177629
0.018498
0.0192201
0.0199517
0.0207234
0.0215024
0.0222888
0.0231141
0.0239591
0.0247983
0.0255962
0.0263968
0.0272647
0.028175
0.0291116
0.0300459
0.031001
0.0319339
0.0329015
0.0338927
0.0349011
0.0359348
0.0369737
0.038041
0.0391057
0.040223
0.041335
0.0425011
0.0436454
0.0448721
0.0460919
0.047368
0.0486938
0.050028
0.0514635
0.0528811
0.0544593
-0.0131897
-0.0126439
-0.0146544
-0.0178809
-0.0185619
-0.0169337
-0.0146802
-0.0126549
-0.0110941
-0.00997438
-0.00923664
-0.00875333
-0.00818282
-0.00734554
-0.00649075
-0.005848
-0.00536951
-0.0049642
-0.00457089
-0.00412589
-0.00370279
-0.0034576
-0.00335384
-0.0031416
-0.00266769
-0.00205343
-0.00148428
-0.00100912
-0.000591251
-0.000182794
0.000252497
0.000697428
0.00111209
0.00146057
0.00175172
0.00205436
0.00240104
0.00275629
0.00318361
0.00374162
0.0043289
0.00484829
0.00535577
0.00588783
0.00640452
0.00689122
0.00739857
0.0079303
0.00847777
0.00902738
0.00957606
0.0101376
0.0107065
0.0112751
0.0118341
0.0123883
0.0129854
0.0136394
0.0143019
0.0149988
0.0157159
0.0164108
0.0170636
0.0177631
0.0184982
0.0192204
0.0199519
0.0207236
0.0215026
0.022289
0.0231143
0.0239593
0.0247986
0.0255964
0.0263969
0.0272648
0.0281752
0.0291117
0.030046
0.0310011
0.031934
0.0329016
0.0338928
0.0349012
0.0359349
0.0369738
0.0380411
0.0391058
0.0402231
0.0413351
0.0425012
0.0436454
0.0448722
0.046092
0.047368
0.0486938
0.050028
0.0514635
0.0528812
0.0544601
-0.0132609
-0.0127121
-0.0143152
-0.0174451
-0.0183245
-0.0168385
-0.0146243
-0.0126096
-0.0110602
-0.00995486
-0.00922505
-0.00873804
-0.00816159
-0.00732667
-0.00648057
-0.00584512
-0.00536844
-0.00496051
-0.00456475
-0.00412127
-0.0037017
-0.00345731
-0.00335091
-0.00313629
-0.00266252
-0.00204974
-0.00148158
-0.00100642
-0.00058814
-0.000179693
0.000255041
0.000699507
0.00111439
0.00146339
0.00175446
0.00205638
0.00240252
0.00275767
0.00318499
0.00374292
0.00433008
0.00484936
0.00535675
0.00588869
0.00640527
0.00689188
0.00739917
0.00793085
0.00847829
0.00902788
0.00957655
0.0101381
0.0107069
0.0112755
0.0118345
0.0123887
0.0129857
0.0136397
0.0143022
0.0149991
0.0157162
0.0164111
0.0170638
0.0177634
0.0184985
0.0192206
0.0199521
0.0207239
0.0215028
0.0222892
0.0231145
0.0239596
0.0247989
0.0255966
0.0263971
0.027265
0.0281754
0.0291119
0.0300462
0.0310013
0.0319342
0.0329017
0.033893
0.0349013
0.035935
0.036974
0.0380412
0.0391059
0.0402232
0.0413352
0.0425013
0.0436455
0.0448723
0.0460921
0.0473681
0.0486939
0.050028
0.0514636
0.0528813
0.0544613
-0.013322
-0.0128078
-0.0139853
-0.0169834
-0.0180628
-0.0167359
-0.0145669
-0.0125618
-0.0110228
-0.00993217
-0.00921098
-0.00872045
-0.00813815
-0.00730641
-0.00647019
-0.00584265
-0.00536746
-0.0049559
-0.00455712
-0.00411618
-0.00370214
-0.0034593
-0.0033489
-0.00313012
-0.00265583
-0.00204475
-0.00147789
-0.00100282
-0.000584083
-0.000175764
0.000257958
0.00070154
0.00111681
0.00146691
0.00175823
0.00205923
0.0024046
0.00275978
0.00318718
0.00374478
0.0043316
0.00485076
0.00535807
0.0058898
0.00640619
0.00689271
0.00739994
0.00793154
0.00847891
0.00902849
0.00957716
0.0101387
0.0107075
0.011276
0.0118349
0.0123891
0.012986
0.01364
0.0143025
0.0149995
0.0157166
0.0164115
0.0170641
0.0177636
0.0184988
0.0192209
0.0199524
0.0207241
0.0215031
0.0222894
0.0231148
0.0239598
0.0247992
0.0255968
0.0263972
0.0272651
0.0281756
0.0291121
0.0300464
0.0310015
0.0319344
0.0329019
0.0338931
0.0349015
0.0359352
0.0369741
0.0380413
0.039106
0.0402233
0.0413353
0.0425015
0.0436456
0.0448724
0.0460922
0.0473682
0.048694
0.050028
0.0514636
0.0528814
0.0544627
-0.0133655
-0.0129144
-0.0136618
-0.0164973
-0.0177767
-0.0166269
-0.01451
-0.0125134
-0.0109828
-0.00990647
-0.00919455
-0.00870115
-0.00811338
-0.00728542
-0.00645979
-0.00584046
-0.0053664
-0.00495045
-0.00454821
-0.0041106
-0.00370378
-0.00346351
-0.0033485
-0.00312422
-0.00264853
-0.00203879
-0.00147301
-0.000997839
-0.000578617
-0.000170694
0.000261355
0.000703379
0.00111895
0.00147073
0.00176278
0.00206279
0.00240728
0.0027628
0.00319046
0.00374744
0.00433358
0.00485261
0.00535983
0.0058912
0.00640732
0.00689378
0.00740093
0.0079324
0.00847965
0.00902921
0.00957793
0.0101395
0.0107081
0.0112766
0.0118355
0.0123896
0.0129864
0.0136403
0.014303
0.015
0.015717
0.0164118
0.0170644
0.017764
0.0184991
0.0192211
0.0199526
0.0207244
0.0215034
0.0222896
0.023115
0.0239601
0.0247995
0.0255971
0.0263974
0.0272653
0.0281758
0.0291123
0.0300467
0.0310018
0.0319346
0.0329021
0.0338933
0.0349016
0.0359353
0.0369742
0.0380415
0.0391061
0.0402234
0.0413354
0.0425016
0.0436457
0.0448725
0.0460923
0.0473682
0.0486941
0.0500279
0.0514635
0.0528814
0.0544644
-0.0133761
-0.0130215
-0.0133544
-0.0159963
-0.0174677
-0.0165114
-0.0144539
-0.0124645
-0.01094
-0.00987745
-0.00917578
-0.00868041
-0.00808755
-0.00726371
-0.00644906
-0.00583819
-0.00536522
-0.00494453
-0.00453855
-0.00410469
-0.00370628
-0.00346958
-0.00334992
-0.00311941
-0.00264161
-0.0020326
-0.00146728
-0.000991513
-0.000571586
-0.000164273
0.000265443
0.000705134
0.00112068
0.0014744
0.00176757
0.00206661
0.00241026
0.00276662
0.00319493
0.00375105
0.00433617
0.004855
0.00536206
0.00589288
0.00640865
0.00689511
0.00740221
0.00793347
0.00848051
0.00903003
0.00957887
0.0101404
0.010709
0.0112774
0.0118363
0.0123903
0.0129869
0.0136407
0.0143034
0.0150006
0.0157175
0.0164122
0.0170648
0.0177643
0.0184994
0.0192214
0.0199529
0.0207246
0.0215036
0.0222899
0.0231153
0.0239604
0.0247999
0.0255974
0.0263976
0.0272655
0.028176
0.0291126
0.0300469
0.031002
0.0319348
0.0329023
0.0338936
0.0349018
0.0359356
0.0369744
0.0380417
0.0391063
0.0402236
0.0413356
0.0425017
0.0436458
0.0448726
0.0460924
0.0473682
0.0486942
0.0500278
0.0514633
0.0528814
0.0544665
-0.013345
-0.013125
-0.0130763
-0.0154892
-0.0171343
-0.016386
-0.0143969
-0.0124147
-0.0108944
-0.00984516
-0.00915469
-0.00865826
-0.00806056
-0.007241
-0.0064377
-0.0058357
-0.00536406
-0.00493858
-0.00452864
-0.0040987
-0.00370951
-0.0034772
-0.00335305
-0.00311597
-0.00263561
-0.00202683
-0.00146135
-0.000984373
-0.000563357
-0.000156672
0.000270268
0.000706996
0.00112207
0.0014777