/*--------------------------------*- C++ -*----------------------------------*\
| =========                 |                                                 |
| \\      /  F ield         | OpenFOAM: The Open Source CFD Toolbox           |
|  \\    /   O peration     | Version:  v1906                                 |
|   \\  /    A nd           | Web:      www.OpenFOAM.com                      |
|    \\/     M anipulation  |                                                 |
\*---------------------------------------------------------------------------*/
FoamFile
{
    version     2.0;
    format      ascii;
    class       surfaceScalarField;
    location    "5";
    object      phi;
}
// * * * * * * * * * * * * * * * * * * * * * * * * * * * * * * * * * * * * * //

dimensions      [0 3 -1 0 0 0 0];
oriented        oriented;


internalField   nonuniform List<scalar> 
19000
(
1.15128e-06
8.3283e-08
1.1464e-06
-4.36129e-07
1.17139e-06
3.9551e-07
1.15048e-06
-2.00923e-06
1.19171e-06
2.08976e-06
1.15376e-06
2.8886e-07
1.12227e-06
8.71741e-07
1.13274e-06
2.96198e-07
1.11418e-06
-6.70091e-07
1.10862e-06
-1.37601e-06
1.17309e-06
-1.56128e-07
1.13316e-06
-1.77619e-06
1.20306e-06
5.99049e-07
1.15762e-06
-4.67812e-07
1.20999e-06
6.71472e-07
1.15673e-06
2.33607e-07
1.19674e-06
6.86329e-07
1.15978e-06
5.43866e-07
1.15877e-06
4.48847e-07
4.97675e-07
1.14607e-06
1.20752e-06
1.00028e-07
1.20213e-06
-4.30739e-07
1.22745e-06
3.70183e-07
1.20974e-06
-1.99152e-06
1.24231e-06
2.0572e-06
1.2127e-06
3.1847e-07
1.17285e-06
9.11587e-07
1.18717e-06
2.81885e-07
1.17126e-06
-6.54186e-07
1.16404e-06
-1.36878e-06
1.22111e-06
-2.13201e-07
1.18393e-06
-1.73901e-06
1.24717e-06
5.35814e-07
1.21638e-06
-4.37023e-07
1.24565e-06
6.42201e-07
1.22807e-06
2.51186e-07
1.22838e-06
6.86017e-07
1.23846e-06
5.33791e-07
1.18966e-06
4.97639e-07
4.59853e-07
1.22749e-06
1.26761e-06
1.15206e-07
1.26064e-06
-4.23771e-07
1.28682e-06
3.43998e-07
1.26943e-06
-1.97413e-06
1.29776e-06
2.02887e-06
1.27443e-06
3.41795e-07
1.23367e-06
9.52348e-07
1.24599e-06
2.69567e-07
1.23405e-06
-6.42251e-07
1.22442e-06
-1.35915e-06
1.27348e-06
-2.62265e-07
1.24366e-06
-1.70919e-06
1.29793e-06
4.8154e-07
1.28022e-06
-4.19314e-07
1.29536e-06
6.27065e-07
1.2952e-06
2.51345e-07
1.28263e-06
6.98586e-07
1.2976e-06
5.18816e-07
1.26441e-06
5.3083e-07
4.62303e-07
1.26196e-06
1.33141e-06
1.279e-07
1.32273e-06
-4.15092e-07
1.34821e-06
3.18514e-07
1.3319e-06
-1.95781e-06
1.35655e-06
2.00422e-06
1.33999e-06
3.58351e-07
1.30385e-06
9.88497e-07
1.31151e-06
2.61905e-07
1.30076e-06
-6.31505e-07
1.28854e-06
-1.34692e-06
1.32841e-06
-3.02134e-07
1.30921e-06
-1.68999e-06
1.35576e-06
4.34992e-07
1.35062e-06
-4.1417e-07
1.35944e-06
6.18244e-07
1.36393e-06
2.46856e-07
1.35638e-06
7.06137e-07
1.3598e-06
5.15392e-07
1.34814e-06
5.4249e-07
4.78522e-07
1.33192e-06
1.39864e-06
1.3761e-07
1.38902e-06
-4.05468e-07
1.41134e-06
2.96194e-07
1.39624e-06
-1.94271e-06
1.41958e-06
1.98088e-06
1.40827e-06
3.69666e-07
1.3806e-06
1.01616e-06
1.38399e-06
2.58517e-07
1.372e-06
-6.19513e-07
1.35627e-06
-1.3312e-06
1.38769e-06
-3.3355e-07
1.37658e-06
-1.67888e-06
1.41911e-06
3.92457e-07
1.42205e-06
-4.17111e-07
1.43282e-06
6.07478e-07
1.43417e-06
2.45503e-07
1.43593e-06
7.04376e-07
1.43068e-06
5.20651e-07
1.4291e-06
5.44069e-07
4.93651e-07
1.41397e-06
1.46887e-06
1.44412e-07
1.45995e-06
-3.96541e-07
1.47646e-06
2.79683e-07
1.4619e-06
-1.92816e-06
1.48657e-06
1.95621e-06
1.47831e-06
3.77926e-07
1.46097e-06
1.03351e-06
1.46211e-06
2.57371e-07
1.44751e-06
-6.04914e-07
1.42768e-06
-1.31137e-06
1.45177e-06
-3.57641e-07
1.44329e-06
-1.67041e-06
1.4849e-06
3.50846e-07
1.49214e-06
-4.24351e-07
1.50811e-06
5.91514e-07
1.50524e-06
2.48371e-07
1.51384e-06
6.95773e-07
1.50503e-06
5.29459e-07
1.50867e-06
5.40431e-07
5.06154e-07
1.49617e-06
1.54172e-06
1.48908e-07
1.5353e-06
-3.9012e-07
1.54418e-06
2.70799e-07
1.52893e-06
-1.91291e-06
1.55663e-06
1.92852e-06
1.54967e-06
3.84883e-07
1.54336e-06
1.03982e-06
1.54462e-06
2.56113e-07
1.52736e-06
-5.87656e-07
1.50342e-06
-1.28743e-06
1.52072e-06
-3.74934e-07
1.50995e-06
-1.65964e-06
1.55207e-06
3.08733e-07
1.56109e-06
-4.33372e-07
1.58279e-06
5.69808e-07
1.57737e-06
2.53798e-07
1.59105e-06
6.82089e-07
1.58119e-06
5.39321e-07
1.58909e-06
5.3253e-07
5.16544e-07
1.5787e-06
1.61711e-06
1.51925e-07
1.6143e-06
-3.87306e-07
1.61519e-06
2.69905e-07
1.598e-06
-1.89572e-06
1.62916e-06
1.89736e-06
1.62271e-06
3.91333e-07
1.62767e-06
1.03486e-06
1.63052e-06
2.53266e-07
1.61111e-06
-5.68246e-07
1.58384e-06
-1.26016e-06
1.59447e-06
-3.85559e-07
1.57844e-06
-1.64362e-06
1.62132e-06
2.65856e-07
1.63027e-06
-4.42319e-07
1.65783e-06
5.42245e-07
1.65166e-06
2.59964e-07
1.67034e-06
6.63411e-07
1.66044e-06
5.49227e-07
1.67169e-06
5.21272e-07
5.25015e-07
1.66322e-06
1.69533e-06
1.5417e-07
1.69609e-06
-3.88063e-07
1.69004e-06
2.75953e-07
1.67022e-06
-1.8759e-06
1.70459e-06
1.86299e-06
1.69875e-06
3.97177e-07
1.71449e-06
1.01912e-06
1.71905e-06
2.48701e-07
1.69806e-06
-5.4726e-07
1.66874e-06
-1.23084e-06
1.67304e-06
-3.89856e-07
1.65048e-06
-1.62106e-06
1.69372e-06
2.22617e-07
1.70107e-06
-4.49664e-07
1.73467e-06
5.08645e-07
1.72888e-06
2.65745e-07
1.7529e-06
6.39393e-07
1.74352e-06
5.58609e-07
1.75674e-06
5.08049e-07
5.3171e-07
1.75005e-06
1.77685e-06
1.56042e-07
1.78019e-06
-3.91406e-07
1.76916e-06
2.86984e-07
1.74682e-06
-1.85357e-06
1.78416e-06
1.82566e-06
1.77942e-06
4.01916e-07
1.80426e-06
9.94283e-07
1.80952e-06
2.43438e-07
1.78746e-06
-5.25201e-07
1.75735e-06
-1.20072e-06
1.75639e-06
-3.889e-07
1.72717e-06
-1.59184e-06
1.76991e-06
1.79871e-07
1.77421e-06
-4.53957e-07
1.81372e-06
4.69132e-07
1.8087e-06
2.70764e-07
1.83793e-06
6.10169e-07
1.82952e-06
5.67016e-07
1.84329e-06
4.94278e-07
5.3658e-07
1.83842e-06
1.86215e-06
1.57644e-07
1.86666e-06
-3.95915e-07
1.85293e-06
3.00709e-07
1.82869e-06
-1.82933e-06
1.86905e-06
1.78529e-06
1.86578e-06
4.05191e-07
1.89686e-06
9.63201e-07
1.90138e-06
2.38923e-07
1.87883e-06
-5.02654e-07
1.84864e-06
-1.17053e-06
1.84439e-06
-3.84649e-07
1.80902e-06
-1.55647e-06
1.85011e-06
1.38778e-07
1.84987e-06
-4.53712e-07
1.89435e-06
4.24652e-07
1.88991e-06
2.75206e-07
1.92347e-06
5.76602e-07
1.91655e-06
5.73937e-07
1.92977e-06
4.81055e-07
5.39099e-07
1.92726e-06
1.95159e-06
1.58897e-07
1.95592e-06
-4.00245e-07
1.94165e-06
3.14978e-07
1.91605e-06
-1.80374e-06
1.95951e-06
1.74183e-06
1.95772e-06
4.06988e-07
1.99176e-06
9.29157e-07
1.99444e-06
2.36239e-07
1.97225e-06
-4.80456e-07
1.9419e-06
-1.14019e-06
1.93679e-06
-3.79544e-07
1.89607e-06
-1.51575e-06
1.93443e-06
1.00424e-07
1.92832e-06
-4.4761e-07
1.97582e-06
3.77152e-07
1.9714e-06
2.7963e-07
2.00785e-06
5.40155e-07
2.00308e-06
5.78707e-07
2.015e-06
4.69135e-07
5.38216e-07
2.01588e-06
2.04541e-06
1.59679e-07
2.04863e-06
-4.03472e-07
2.03548e-06
3.28127e-07
2.00856e-06
-1.77681e-06
2.05478e-06
1.69561e-06
2.05425e-06
4.07516e-07
2.0886e-06
8.94803e-07
2.08914e-06
2.35703e-07
2.06834e-06
-4.59651e-07
2.03715e-06
-1.109e-06
2.03329e-06
-3.75688e-07
1.988e-06
-1.47045e-06
2.02314e-06
6.52873e-08
2.01049e-06
-4.34968e-07
2.05851e-06
3.2913e-07
2.05343e-06
2.84709e-07
2.09098e-06
5.02605e-07
2.08911e-06
5.80586e-07
2.09913e-06
4.59108e-07
5.32756e-07
2.10459e-06
2.14375e-06
1.59934e-07
2.14553e-06
-4.05254e-07
2.13447e-06
3.39181e-07
2.10568e-06
-1.74801e-06
2.15387e-06
1.64742e-06
2.15433e-06
4.07059e-07
2.18767e-06
8.6146e-07
2.18639e-06
2.36981e-07
2.16798e-06
-4.4124e-07
2.13523e-06
-1.07625e-06
2.13367e-06
-3.74123e-07
2.08446e-06
-1.42125e-06
2.11678e-06
3.29714e-08
2.09787e-06
-4.16061e-07
2.14426e-06
2.82747e-07
2.13806e-06
2.90906e-07
2.17491e-06
4.65756e-07
2.17655e-06
5.78946e-07
2.18411e-06
4.51545e-07
5.22138e-07
2.19473e-06
2.24671e-06
1.59715e-07
2.24722e-06
-4.05761e-07
2.23858e-06
3.47821e-07
2.20721e-06
-1.71665e-06
2.25639e-06
1.59824e-06
2.25748e-06
4.05967e-07
2.2898e-06
8.29144e-07
2.2873e-06
2.39479e-07
2.27195e-06
-4.25886e-07
2.23733e-06
-1.04164e-06
2.23795e-06
-3.74736e-07
2.18541e-06
-1.36872e-06
2.21587e-06
2.5134e-09
2.19181e-06
-3.92001e-07
2.2354e-06
2.39155e-07
2.22811e-06
2.98195e-07
2.26268e-06
4.31188e-07
2.26819e-06
5.7344e-07
2.27295e-06
4.46787e-07
5.07021e-07
2.28806e-06
2.35443e-06
1.59157e-07
2.3541e-06
-4.05423e-07
2.34777e-06
3.54146e-07
2.31334e-06
-1.68221e-06
2.36269e-06
1.54889e-06
2.36397e-06
4.04685e-07
2.39599e-06
7.97121e-07
2.39279e-06
2.42679e-07
2.38069e-06
-4.13784e-07
2.34439e-06
-1.00534e-06
2.34646e-06
-3.76802e-07
2.29113e-06
-1.31338e-06
2.32059e-06
-2.69448e-08
2.29279e-06
-3.64203e-07
2.33337e-06
1.98579e-07
2.32552e-06
3.06039e-07
2.35658e-06
4.00132e-07
2.36605e-06
5.63969e-07
2.36799e-06
4.44844e-07
4.89032e-07
2.38598e-06
2.46714e-06
1.58413e-07
2.46637e-06
-4.04652e-07
2.46211e-06
3.58402e-07
2.42443e-06
-1.64453e-06
2.47346e-06
1.49985e-06
2.47449e-06
4.0366e-07
2.50705e-06
7.6456e-07
2.50347e-06
2.46259e-07
2.49442e-06
-4.04738e-07
2.45685e-06
-9.67772e-07
2.45969e-06
-3.79639e-07
2.40205e-06
-1.25574e-06
2.43075e-06
-5.56501e-08
2.40046e-06
-3.33906e-07
2.43808e-06
1.60957e-07
2.43049e-06
3.13623e-07
2.45718e-06
3.7345e-07
2.47056e-06
5.50583e-07
2.47002e-06
4.45388e-07
4.69946e-07
2.4891e-06
2.5851e-06
1.57609e-07
2.58415e-06
-4.03703e-07
2.5817e-06
3.60853e-07
2.54081e-06
-1.60364e-06
2.5894e-06
1.45127e-06
2.58985e-06
4.03207e-07
2.62352e-06
7.30889e-07
2.61971e-06
2.50071e-07
2.6133e-06
-3.98328e-07
2.57481e-06
-9.29281e-07
2.57804e-06
-3.82873e-07
2.5186e-06
-1.1963e-06
2.54619e-06
-8.32386e-08
2.5143e-06
-3.0202e-07
2.54877e-06
1.26484e-07
2.54226e-06
3.20134e-07
2.56399e-06
3.51722e-07
2.58112e-06
5.33451e-07
2.5789e-06
4.47612e-07
4.51214e-07
2.59763e-06
2.70861e-06
1.5683e-07
2.70759e-06
-4.02689e-07
2.70668e-06
3.61764e-07
2.66277e-06
-1.55973e-06
2.71108e-06
1.40296e-06
2.71081e-06
4.03485e-07
2.74585e-06
6.95847e-07
2.74183e-06
2.54085e-07
2.73755e-06
-3.94046e-07
2.69834e-06
-8.90069e-07
2.70176e-06
-3.86297e-07
2.64112e-06
-1.13566e-06
2.66695e-06
-1.09061e-07
2.63424e-06
-2.6931e-07
2.66508e-06
9.56426e-08
2.66029e-06
3.2492e-07
2.67681e-06
3.352e-07
2.69726e-06
5.13e-07
2.69456e-06
4.50318e-07
4.33837e-07
2.71194e-06
2.83796e-06
1.56138e-07
2.83693e-06
-4.01659e-07
2.83727e-06
3.61424e-07
2.79062e-06
-1.51308e-06
2.83901e-06
1.35457e-06
2.83793e-06
4.04566e-07
2.8744e-06
6.59375e-07
2.87015e-06
2.58338e-07
2.86746e-06
-3.91357e-07
2.82768e-06
-8.50289e-07
2.83101e-06
-3.89628e-07
2.7699e-06
-1.07455e-06
2.79339e-06
-1.32548e-07
2.7606e-06
-2.36524e-07
2.78735e-06
6.89001e-08
2.78478e-06
3.2749e-07
2.79629e-06
3.23687e-07
2.81927e-06
4.90021e-07
2.81736e-06
4.52229e-07
4.18428e-07
2.83277e-06
2.97345e-06
1.5558e-07
2.97244e-06
-4.00648e-07
2.97374e-06
3.60122e-07
2.92469e-06
-1.46403e-06
2.97359e-06
1.30567e-06
2.97164e-06
4.0651e-07
3.0095e-06
6.21518e-07
3.00495e-06
2.62885e-07
3.00332e-06
-3.8972e-07
2.96319e-06
-8.10163e-07
2.96596e-06
-3.92397e-07
2.90522e-06
-1.01381e-06
2.92596e-06
-1.53294e-07
2.89387e-06
-2.04433e-07
2.91632e-06
4.64508e-08
2.91631e-06
3.27502e-07
2.92339e-06
3.16606e-07
2.94793e-06
4.65486e-07
2.94788e-06
4.52271e-07
4.05319e-07
2.96099e-06
3.1154e-06
1.55191e-07
3.11443e-06
-3.99687e-07
3.11644e-06
3.58114e-07
3.06531e-06
-1.4129e-06
3.11512e-06
1.25586e-06
3.11225e-06
4.09381e-07
3.15139e-06
5.82375e-07
3.14653e-06
2.67751e-07
3.1454e-06
-3.88596e-07
3.10527e-06
-7.70032e-07
3.10687e-06
-3.93989e-07
3.04734e-06
-9.5428e-07
3.0651e-06
-1.71061e-07
3.0344e-06
-1.73732e-07
3.05265e-06
2.82046e-08
3.0554e-06
3.24749e-07
3.05889e-06
3.13117e-07
3.08397e-06
4.40408e-07
3.08656e-06
4.49682e-07
3.94642e-07
3.09724e-06
3.26411e-06
1.54995e-07
3.26321e-06
-3.98792e-07
3.26574e-06
3.55585e-07
3.2128e-06
-1.35996e-06
3.26386e-06
1.2048e-06
3.26e-06
4.13238e-07
3.30029e-06
5.42087e-07
3.29514e-06
2.72894e-07
3.294e-06
-3.87451e-07
3.25433e-06
-7.30361e-07
3.25405e-06
-3.93707e-07
3.19651e-06
-8.96745e-07
3.21123e-06
-1.85777e-07
3.18241e-06
-1.44913e-07
3.19674e-06
1.38745e-08
3.20232e-06
3.1917e-07
3.2031e-06
3.1233e-07
3.22787e-06
4.15644e-07
3.23352e-06
4.44029e-07
3.86306e-07
3.24186e-06
3.41993e-06
1.55001e-07
3.4191e-06
-3.97963e-07
3.42205e-06
3.52636e-07
3.36748e-06
-1.30539e-06
3.42001e-06
1.15227e-06
3.41514e-06
4.18106e-07
3.45639e-06
5.00843e-07
3.45109e-06
2.78192e-07
3.44939e-06
-3.85751e-07
3.41076e-06
-6.91732e-07
3.40791e-06
-3.90863e-07
3.35299e-06
-8.41818e-07
3.36473e-06
-1.97516e-07
3.33802e-06
-1.18203e-07
3.3488e-06
3.08576e-09
3.35715e-06
3.10825e-07
3.35608e-06
3.13405e-07
3.37979e-06
3.91925e-07
3.38872e-06
4.35102e-07
3.80006e-07
3.39502e-06
3.5832e-06
1.55208e-07
3.58242e-06
-3.9718e-07
3.58577e-06
3.49289e-07
3.52968e-06
-1.24931e-06
3.58381e-06
1.09815e-06
3.57794e-06
4.23974e-07
3.61991e-06
4.58874e-07
3.61467e-06
2.83431e-07
3.61188e-06
-3.8296e-07
3.57495e-06
-6.54799e-07
3.56897e-06
-3.84883e-07
3.51698e-06
-7.89835e-07
3.52597e-06
-2.06506e-07
3.50138e-06
-9.36079e-08
3.509e-06
-4.53251e-09
3.51994e-06
2.99878e-07
3.51779e-06
3.15554e-07
3.53975e-06
3.6997e-07
3.55205e-06
4.22799e-07
3.75237e-07
3.55682e-06
3.75431e-06
1.55602e-07
3.75353e-06
-3.96401e-07
3.75733e-06
3.45494e-07
3.69977e-06
-1.19175e-06
3.75551e-06
1.0424e-06
3.7487e-06
4.30788e-07
3.79111e-06
4.16462e-07
3.78623e-06
2.88312e-07
3.78179e-06
-3.78525e-07
3.7472e-06
-6.20202e-07
3.73773e-06
-3.75418e-07
3.68872e-06
-7.40823e-07
3.69536e-06
-2.13141e-07
3.67268e-06
-7.09319e-08
3.67747e-06
-9.3208e-09
3.69077e-06
2.86576e-07
3.68825e-06
3.18073e-07
3.70786e-06
3.50358e-07
3.72338e-06
4.07276e-07
3.71205e-07
3.72742e-06
3.93363e-06
1.56164e-07
3.93279e-06
-3.95561e-07
3.93714e-06
3.41143e-07
3.87811e-06
-1.13272e-06
3.93544e-06
9.85073e-07
3.92777e-06
4.38455e-07
3.97029e-06
3.73941e-07
3.96614e-06
2.92461e-07
3.95953e-06
-3.7191e-07
3.92778e-06
-5.88455e-07
3.91479e-06
-3.62428e-07
3.86844e-06
-6.94471e-07
3.87321e-06
-2.17911e-07
3.85225e-06
-4.99717e-08
3.85436e-06
-1.143e-08
3.8698e-06
2.71128e-07
3.86753e-06
3.2035e-07
3.88435e-06
3.33533e-07
3.90269e-06
3.88933e-07
3.66938e-07
3.90696e-06
4.12155e-06
1.56863e-07
4.12056e-06
-3.9457e-07
4.12561e-06
3.36088e-07
4.06511e-06
-1.07221e-06
4.12392e-06
9.26259e-07
4.11555e-06
4.46827e-07
4.15778e-06
3.31717e-07
4.15481e-06
2.95424e-07
4.1455e-06
-3.626e-07
4.11697e-06
-5.59919e-07
4.10069e-06
-3.46151e-07
4.05644e-06
-6.50222e-07
4.05987e-06
-2.21339e-07
4.04043e-06
-3.05314e-08
4.03993e-06
-1.0929e-08
4.0572e-06
2.53854e-07
4.05586e-06
3.21691e-07
4.06955e-06
3.19842e-07
4.09e-06
3.68487e-07
3.61304e-07
4.09563e-06
4.3185e-06
1.57666e-07
4.31725e-06
-3.93315e-07
4.32318e-06
3.30152e-07
4.2612e-06
-1.01023e-06
4.32135e-06
8.66106e-07
4.31249e-06
4.55692e-07
4.35394e-06
2.90268e-07
4.35267e-06
2.96689e-07
4.34023e-06
-3.5016e-07
4.31501e-06
-5.34703e-07
4.29603e-06
-3.27162e-07
4.25308e-06
-6.0728e-07
4.25568e-06
-2.23933e-07
4.23774e-06
-1.25892e-08
4.23446e-06
-7.65082e-09
4.25319e-06
2.35124e-07
4.25352e-06
3.21355e-07
4.26397e-06
3.09401e-07
4.28545e-06
3.47e-07
3.53209e-07
4.29355e-06
4.52491e-06
1.58527e-07
4.52326e-06
-3.91659e-07
4.53027e-06
3.23138e-07
4.46682e-06
-9.46781e-07
4.52812e-06
8.0481e-07
4.51905e-06
4.64761e-07
4.55916e-06
2.50156e-07
4.56014e-06
2.95715e-07
4.54424e-06
-3.34266e-07
4.52221e-06
-5.12669e-07
4.50131e-06
-3.06261e-07
4.45885e-06
-5.64829e-07
4.46093e-06
-2.26005e-07
4.44465e-06
3.68279e-09
4.43841e-06
-1.40188e-09
4.45805e-06
2.1548e-07
4.46079e-06
3.18615e-07
4.46824e-06
3.01945e-07
4.4894e-06
3.25844e-07
3.41875e-07
4.50074e-06
4.74125e-06
1.59395e-07
4.73903e-06
-3.89438e-07
4.74733e-06
3.14835e-07
4.68246e-06
-8.81915e-07
4.74464e-06
7.42635e-07
4.73574e-06
4.73659e-07
4.77388e-06
2.1202e-07
4.77764e-06
2.91952e-07
4.7581e-06
-3.14729e-07
4.73888e-06
-4.93443e-07
4.71704e-06
-2.84419e-07
4.67431e-06
-5.22106e-07
4.67598e-06
-2.27668e-07
4.6617e-06
1.79616e-08
4.65237e-06
7.92129e-09
4.67221e-06
1.95646e-07
4.67794e-06
3.12879e-07
4.68303e-06
2.96856e-07
4.70256e-06
3.06317e-07
3.27282e-07
4.71715e-06
4.96798e-06
1.6021e-07
4.96501e-06
-3.86469e-07
4.97481e-06
3.05034e-07
4.90862e-06
-8.15726e-07
4.97133e-06
6.79928e-07
4.96307e-06
4.81917e-07
4.99852e-06
1.76574e-07
5.00556e-06
2.84909e-07
4.98246e-06
-2.91623e-07
4.96538e-06
-4.76362e-07
4.94367e-06
-2.62713e-07
4.90011e-06
-4.78549e-07
4.90117e-06
-2.28727e-07
4.88937e-06
2.97651e-08
4.87711e-06
2.01789e-08
4.89617e-06
1.76588e-07
4.90526e-06
3.03788e-07
4.90899e-06
2.93125e-07
4.92572e-06
2.89585e-07
3.10065e-07
4.94294e-06
5.20563e-06
1.60899e-07
5.2017e-06
-3.82546e-07
5.21318e-06
2.93554e-07
5.14584e-06
-7.48385e-07
5.20864e-06
6.17128e-07
5.20156e-06
4.89002e-07
5.23359e-06
1.44547e-07
5.24427e-06
2.74226e-07
5.21793e-06
-2.65286e-07
5.20215e-06
-4.60583e-07
5.18163e-06
-2.42188e-07
5.13694e-06
-4.33859e-07
5.13698e-06
-2.28769e-07
5.12818e-06
3.8565e-08
5.11348e-06
3.48745e-08
5.13051e-06
1.59559e-07
5.14305e-06
2.91251e-07
5.14654e-06
2.89633e-07
5.15988e-06
2.76251e-07
2.91463e-07
5.17848e-06
5.4547e-06
1.61385e-07
5.44961e-06
-3.77458e-07
5.4629e-06
2.80267e-07
5.39469e-06
-6.80171e-07
5.45704e-06
5.54772e-07
5.45173e-06
4.94312e-07
5.47963e-06
1.16654e-07
5.49411e-06
2.59741e-07
5.46516e-06
-2.3633e-07
5.44971e-06
-4.45141e-07
5.43127e-06
-2.23747e-07
5.38554e-06
-3.88129e-07
5.38387e-06
-2.27092e-07
5.37856e-06
4.38763e-08
5.36226e-06
5.11656e-08
5.37617e-06
1.45658e-07
5.39165e-06
2.75769e-07
5.39593e-06
2.85348e-07
5.40616e-06
2.66023e-07
2.73234e-07
5.42439e-06
5.71576e-06
1.61582e-07
5.70929e-06
-3.70992e-07
5.72444e-06
2.65125e-07
5.65575e-06
-6.11485e-07
5.71704e-06
4.93481e-07
5.71415e-06
4.97205e-07
5.73725e-06
9.35528e-08
5.75549e-06
2.41505e-07
5.72478e-06
-2.05627e-07
5.70863e-06
-4.28994e-07
5.69294e-06
-2.08055e-07
5.64669e-06
-3.41874e-07
5.64243e-06
-2.22832e-07
5.64077e-06
4.55305e-08
5.62402e-06
6.79204e-08
5.63405e-06
1.35629e-07
5.65155e-06
2.58264e-07
5.65744e-06
2.7946e-07
5.66533e-06
2.58133e-07
2.56812e-07
5.68175e-06
5.98937e-06
1.61402e-07
5.98133e-06
-3.62949e-07
5.99827e-06
2.48183e-07
5.92966e-06
-5.42874e-07
5.98918e-06
4.33961e-07
5.98937e-06
4.97018e-07
6.00713e-06
7.57878e-08
6.02882e-06
2.19816e-07
5.9974e-06
-1.74204e-07
5.97959e-06
-4.11183e-07
5.96695e-06
-1.95415e-07
5.92106e-06
-2.95985e-07
5.91335e-06
-2.15126e-07
5.9152e-06
4.36891e-08
5.89915e-06
8.39616e-08
5.90506e-06
1.29724e-07
5.92344e-06
2.3988e-07
5.93135e-06
2.71549e-07
5.93791e-06
2.51571e-07
2.42963e-07
5.95176e-06
6.27614e-06
1.60749e-07
6.26634e-06
-3.53148e-07
6.28493e-06
2.29591e-07
6.21708e-06
-4.75027e-07
6.27405e-06
3.76996e-07
6.27791e-06
4.93153e-07
6.29007e-06
6.36282e-08
6.3146e-06
1.95287e-07
6.28358e-06
-1.4318e-07
6.26335e-06
-3.90954e-07
6.25368e-06
-1.85744e-07
6.20922e-06
-2.51529e-07
6.19749e-06
-2.03395e-07
6.20222e-06
3.89656e-08
6.18806e-06
9.81164e-08
6.19006e-06
1.27726e-07
6.20807e-06
2.21866e-07
6.21811e-06
2.61517e-07
6.22428e-06
2.45396e-07
2.31759e-07
6.23549e-06
6.57669e-06
1.59525e-07
6.56498e-06
-3.41438e-07
6.58508e-06
2.09494e-07
6.51873e-06
-4.08672e-07
6.57229e-06
3.23433e-07
6.58032e-06
4.8512e-07
6.58689e-06
5.70555e-08
6.61337e-06
1.68811e-07
6.58391e-06
-1.13725e-07
6.56072e-06
-3.67761e-07
6.55361e-06
-1.78634e-07
6.5117e-06
-2.0962e-07
6.49575e-06
-1.87444e-07
6.50242e-06
3.22989e-08
6.49104e-06
1.09497e-07
6.48978e-06
1.28987e-07
6.50637e-06
2.05274e-07
6.51825e-06
2.49631e-07
6.5247e-06
2.38946e-07
2.22662e-07
6.5338e-06
6.89169e-06
1.57628e-07
6.87794e-06
-3.27687e-07
6.89943e-06
1.88002e-07
6.83526e-06
-3.44502e-07
6.88461e-06
2.74078e-07
6.89716e-06
4.72571e-07
6.89845e-06
5.57655e-08
6.92576e-06
1.41503e-07
6.89889e-06
-8.68559e-08
6.87263e-06
-3.41494e-07
6.86731e-06
-1.73317e-07
6.82893e-06
-1.71242e-07
6.8091e-06
-1.67608e-07
6.81639e-06
2.50039e-08
6.80844e-06
1.17451e-07
6.80485e-06
1.32571e-07
6.81919e-06
1.90941e-07
6.83248e-06
2.36339e-07
6.83963e-06
2.318e-07
2.14949e-07
6.84734e-06
7.22181e-06
1.54954e-07
7.2059e-06
-3.11773e-07
7.22867e-06
1.65225e-07
7.16732e-06
-2.83147e-07
7.21176e-06
2.29639e-07
7.22905e-06
4.55283e-07
7.22565e-06
5.91624e-08
7.25244e-06
1.14717e-07
7.22905e-06
-6.34713e-08
7.19997e-06
-3.12416e-07
7.19545e-06
-1.68797e-07
7.16136e-06
-1.37154e-07
7.1383e-06
-1.44547e-07
7.14488e-06
1.84292e-08
7.14064e-06
1.21692e-07
7.13585e-06
1.37357e-07
7.14747e-06
1.79325e-07
7.16154e-06
2.22262e-07
7.16959e-06
2.23753e-07
2.07934e-07
7.1766e-06
7.56777e-06
1.51407e-07
7.5496e-06
-2.93596e-07
7.57351e-06
1.41309e-07
7.51554e-06
-2.25172e-07
7.55448e-06
1.90698e-07
7.57658e-06
4.33183e-07
7.56938e-06
6.63621e-08
7.59419e-06
8.9903e-08
7.57486e-06
-4.41414e-08
7.54355e-06
-2.81104e-07
7.53885e-06
-1.641e-07
7.5094e-06
-1.077e-07
7.48407e-06
-1.19219e-07
7.48871e-06
1.3795e-08
7.48811e-06
1.22289e-07
7.48331e-06
1.42154e-07
7.49209e-06
1.70549e-07
7.50617e-06
2.08174e-07
7.51531e-06
2.14618e-07
2.01246e-07
7.522e-06
7.93031e-06
1.46904e-07
7.9098e-06
-2.73087e-07
7.93466e-06
1.16457e-07
7.88065e-06
-1.71161e-07
7.91357e-06
1.57771e-07
7.94032e-06
4.06438e-07
7.93053e-06
7.61514e-08
7.95194e-06
6.84953e-08
7.93678e-06
-2.89829e-08
7.9041e-06
-2.48428e-07
7.89832e-06
-1.58317e-07
7.87342e-06
-8.28028e-08
7.84697e-06
-9.27649e-08
7.84889e-06
1.18756e-08
7.85141e-06
1.19771e-07
7.84765e-06
1.45909e-07
7.8539e-06
1.64299e-07
7.86722e-06
1.94852e-07
7.87738e-06
2.04458e-07
1.94497e-07
7.88413e-06
8.31019e-06
1.41398e-07
8.28737e-06
-2.50269e-07
8.31281e-06
9.1021e-08
8.26339e-06
-1.2175e-07
8.29001e-06
1.31154e-07
8.32113e-06
3.75324e-07
8.30987e-06
8.74097e-08
8.32645e-06
5.19139e-08
8.3152e-06
-1.77313e-08
8.28217e-06
-2.15405e-07
8.27454e-06
-1.50679e-07
8.25401e-06
-6.22741e-08
8.22751e-06
-6.6266e-08
8.22641e-06
1.29709e-08
8.23123e-06
1.14949e-07
8.22928e-06
1.47861e-07
8.23369e-06
1.59888e-07
8.24565e-06
1.8289e-07
8.25648e-06
1.93634e-07
1.87323e-07
8.26365e-06
8.70816e-06
1.34902e-07
8.68321e-06
-2.25317e-07
8.70862e-06
6.56095e-08
8.66453e-06
-7.76611e-08
8.68429e-06
1.11394e-07
8.71774e-06
3.41869e-07
8.70702e-06
9.81336e-08
8.71849e-06
4.0444e-08
8.71056e-06
-9.80521e-09
8.67818e-06
-1.83023e-07
8.66823e-06
-1.40728e-07
8.65158e-06
-4.56291e-08
8.62636e-06
-4.1041e-08
8.62248e-06
1.68501e-08
8.62859e-06
1.0884e-07
8.62873e-06
1.47719e-07
8.63215e-06
1.56474e-07
8.64246e-06
1.72572e-07
8.65344e-06
1.82659e-07
1.79488e-07
8.66128e-06
9.12502e-06
1.27499e-07
9.09836e-06
-1.98659e-07
9.12282e-06
4.11533e-08
9.08493e-06
-3.97752e-08
9.09741e-06
9.89152e-08
9.13223e-06
3.07057e-07
9.12342e-06
1.06935e-07
9.12975e-06
3.41151e-08
9.12375e-06
-3.80451e-09
9.09274e-06
-1.52014e-07
9.08028e-06
-1.28267e-07
9.06704e-06
-3.23827e-08
9.04436e-06
-1.83634e-08
9.0382e-06
2.30036e-08
9.0445e-06
1.02546e-07
9.04683e-06
1.45386e-07
9.04983e-06
1.53476e-07
9.05862e-06
1.63779e-07
9.06927e-06
1.72005e-07
1.71095e-07
9.07767e-06
9.56161e-06
1.1935e-07
9.53405e-06
-1.711e-07
9.55634e-06
1.88665e-08
9.52579e-06
-9.23251e-09
9.53152e-06
9.31924e-08
9.56556e-06
2.73015e-07
9.55939e-06
1.13108e-07
9.56125e-06
3.22521e-08
9.55604e-06
1.40121e-09
9.527e-06
-1.2297e-07
9.51226e-06
-1.13522e-07
9.50177e-06
-2.18957e-08
9.4824e-06
1.00032e-09
9.47462e-06
3.07858e-08
9.48025e-06
9.69185e-08
9.48445e-06
1.41183e-07
9.48754e-06
1.50389e-07
9.495e-06
1.5632e-07
9.5051e-06
1.61903e-07
1.62498e-07
9.5137e-06
1.00188e-05
1.10679e-07
9.99137e-06
-1.43666e-07
1.00103e-05
-2.18197e-11
9.98754e-06
1.34863e-08
9.98784e-06
9.28927e-08
1.00189e-05
2.41907e-07
1.00156e-05
1.16417e-07
1.00141e-05
3.37686e-08
1.0009e-05
6.49631e-09
9.98212e-06
-9.60662e-08
9.96581e-06
-9.72066e-08
9.9573e-06
-1.33845e-08
9.94133e-06
1.69719e-08
9.93266e-06
3.94533e-08
9.93714e-06
9.24349e-08
9.94265e-06
1.35678e-07
9.94619e-06
1.46851e-07
9.9526e-06
1.499e-07
9.96192e-06
1.52592e-07
1.53912e-07
9.9705e-06
1.04976e-05
1.01748e-07
1.04713e-05
-1.17394e-07
1.04858e-05
-1.44972e-08
1.04706e-05
2.8688e-08
1.04674e-05
9.60949e-08
1.04941e-05
2.1516e-07
1.04933e-05
1.17204e-07
1.04895e-05
3.75481e-08
1.0484e-05
1.20194e-08
1.04595e-05
-7.14961e-08
1.04424e-05
-8.01058e-08
1.04348e-05
-5.85853e-09
1.0422e-05
2.97748e-08
1.04132e-05
4.8237e-08
1.04164e-05
8.93202e-08
1.04225e-05
1.29549e-07
1.04268e-05
1.42556e-07
1.04324e-05
1.4433e-07
1.04407e-05
1.44213e-07
1.45363e-07
1.04493e-05
1.0999e-05
9.28125e-08
1.09746e-05
-9.30883e-08
1.09843e-05
-2.41682e-08
1.09753e-05
3.76816e-08
1.09708e-05
1.00604e-07
1.09928e-05
1.93211e-07
1.09939e-05
1.1611e-07
1.09885e-05
4.28596e-08
1.09824e-05
1.81575e-08
1.09603e-05
-4.93701e-08
1.09427e-05
-6.25478e-08
1.09356e-05
1.2313e-09
1.09255e-05
3.99352e-08
1.09173e-05
5.64479e-08
1.0919e-05
8.75537e-08
1.09251e-05
1.2345e-07
1.09303e-05
1.3736e-07
1.09353e-05
1.39375e-07
1.09428e-05
1.36688e-07
1.37024e-07
1.09511e-05
1.15241e-05
8.40934e-08
1.15022e-05
-7.12111e-08
1.15074e-05
-2.93941e-08
1.15029e-05
4.22294e-08
1.14989e-05
1.04576e-07
1.15163e-05
1.75858e-07
1.15182e-05
1.14178e-07
1.15121e-05
4.89975e-08
1.15054e-05
2.48549e-08
1.14855e-05
-2.95383e-08
1.14679e-05
-4.49342e-08
1.14608e-05
8.33521e-09
1.14529e-05
4.78798e-08
1.14455e-05
6.38566e-08
1.14463e-05
8.67113e-08
1.1452e-05
1.17776e-07
1.14577e-05
1.31617e-07
1.14627e-05
1.34408e-07
1.14691e-05
1.30232e-07
1.29015e-07
1.14772e-05
1.20742e-05
7.57625e-08
1.20549e-05
-5.19521e-08
1.20564e-05
-3.09378e-08
1.20546e-05
4.40665e-08
1.20522e-05
1.06982e-07
1.20658e-05
1.62243e-07
1.20676e-05
1.12434e-07
1.2061e-05
5.55203e-08
1.20538e-05
3.20401e-08
1.20362e-05
-1.18557e-08
1.2019e-05
-2.78102e-08
1.20115e-05
1.58633e-08
1.20054e-05
5.39975e-08
1.1999e-05
7.02886e-08
1.19991e-05
8.65763e-08
1.20043e-05
1.12606e-07
1.20102e-05
1.25678e-07
1.20155e-05
1.2912e-07
1.20211e-05
1.24615e-07
1.21728e-07
1.20284e-05
1.26504e-05
6.79622e-08
1.26338e-05
-3.53755e-08
1.26325e-05
-2.96078e-08
1.26319e-05
4.46296e-08
1.26313e-05
1.07621e-07
1.26423e-05
1.51271e-07
1.26434e-05
1.11304e-07
1.26364e-05
6.25354e-08
1.26289e-05
3.95014e-08
1.26132e-05
3.81797e-09
1.25971e-05
-1.16512e-08
1.25892e-05
2.37198e-08
1.25842e-05
5.89981e-08
1.25789e-05
7.55794e-08
1.25786e-05
8.69243e-08
1.25832e-05
1.07961e-07
1.25891e-05
1.1981e-07
1.25946e-05
1.23569e-07
1.26e-05
1.19305e-07
1.15325e-07
1.26064e-05
1.32541e-05
6.07975e-08
1.32399e-05
-2.12245e-08
1.32365e-05
-2.61655e-08
1.32364e-05
4.47781e-08
1.32371e-05
1.0692e-07
1.32463e-05
1.42024e-07
1.32468e-05
1.108e-07
1.32393e-05
7.00456e-08
1.32317e-05
4.71434e-08
1.32179e-05
1.75598e-08
1.32031e-05
3.12543e-09
1.31951e-05
3.17487e-08
1.31908e-05
6.32786e-08
1.31865e-05
7.98734e-08
1.31859e-05
8.75705e-08
1.31901e-05
1.0377e-07
1.31958e-05
1.14082e-07
1.32014e-05
1.17961e-07
1.32068e-05
1.13909e-07
1.09741e-07
1.32124e-05
1.38866e-05
5.43189e-08
1.38752e-05
-9.75741e-09
1.38699e-05
-2.09045e-08
1.38694e-05
4.5269e-08
1.38706e-05
1.05727e-07
1.38787e-05
1.3397e-07
1.3879e-05
1.1049e-07
1.38713e-05
7.77286e-08
1.38634e-05
5.50739e-08
1.38514e-05
2.95342e-08
1.38383e-05
1.6265e-08
1.38305e-05
3.9549e-08
1.38266e-05
6.71033e-08
1.38232e-05
8.33122e-08
1.38225e-05
8.83029e-08
1.3826e-05
1.0024e-07
1.38317e-05
1.08375e-07
1.38372e-05
1.12486e-07
1.38427e-05
1.08373e-07
1.04555e-07
1.38479e-05
1.45494e-05
4.85415e-08
1.45398e-05
-7.03737e-11
1.45334e-05
-1.45432e-08
1.45324e-05
4.62904e-08
1.45335e-05
1.04624e-07
1.45406e-05
1.26808e-07
1.45414e-05
1.09721e-07
1.45339e-05
8.52032e-08
1.45257e-05
6.33493e-08
1.4515e-05
4.0239e-08
1.45036e-05
2.75775e-08
1.44964e-05
4.67532e-08
1.4493e-05
7.05047e-08
1.44903e-05
8.6057e-08
1.44896e-05
8.89945e-08
1.44925e-05
9.73228e-08
1.4498e-05
1.02887e-07
1.45035e-05
1.07037e-07
1.45089e-05
1.02882e-07
9.9355e-08
1.45141e-05
1.5244e-05
4.34013e-08
1.5236e-05
7.95905e-09
1.52288e-05
-7.37902e-09
1.52267e-05
4.84457e-08
1.52273e-05
1.03957e-07
1.52336e-05
1.20582e-07
1.52353e-05
1.07983e-07
1.52287e-05
9.18445e-08
1.52202e-05
7.18052e-08
1.52102e-05
5.02876e-08
1.52005e-05
3.72266e-08
1.51943e-05
5.2978e-08
1.51915e-05
7.33177e-08
1.51894e-05
8.81466e-08
1.51887e-05
8.9667e-08
1.51912e-05
9.48781e-08
1.51962e-05
9.78575e-08
1.52017e-05
1.01475e-07
1.5207e-05
9.76436e-08
9.4059e-08
1.52123e-05
1.59719e-05
3.8829e-08
1.59648e-05
1.50509e-08
1.5957e-05
4.61062e-10
1.5954e-05
5.14664e-08
1.59542e-05
1.03746e-07
1.59591e-05
1.15603e-07
1.59621e-05
1.05058e-07
1.5957e-05
9.6947e-08
1.59486e-05
8.0176e-08
1.59389e-05
5.99726e-08
1.59304e-05
4.57729e-08
1.59253e-05
5.80454e-08
1.59233e-05
7.53392e-08
1.59219e-05
8.95537e-08
1.59214e-05
9.00931e-08
1.59234e-05
9.29537e-08
1.59279e-05
9.33347e-08
1.59335e-05
9.58992e-08
1.59385e-05
9.26011e-08
8.88088e-08
1.59438e-05
1.67346e-05
3.48468e-08
1.67263e-05
2.32891e-08
1.67185e-05
8.31511e-09
1.67161e-05
5.3885e-08
1.6716e-05
1.03854e-07
1.67195e-05
1.12096e-07
1.67233e-05
1.01216e-07
1.67202e-05
1.0004e-07
1.67124e-05
8.79846e-08
1.6703e-05
6.94103e-08
1.6695e-05
5.37293e-08
1.66909e-05
6.21668e-08
1.66898e-05
7.64133e-08
1.66893e-05
9.00669e-08
1.66892e-05
9.01755e-08
1.66908e-05
9.13809e-08
1.66947e-05
8.94265e-08
1.67001e-05
9.05286e-08
1.67052e-05
8.74803e-08
8.38852e-08
1.67101e-05
1.75338e-05
3.13717e-08
1.7527e-05
3.01217e-08
1.75181e-05
1.72238e-08
1.75154e-05
5.65906e-08
1.7515e-05
1.04241e-07
1.75167e-05
1.10363e-07
1.75206e-05
9.73034e-08
1.75198e-05
1.00849e-07
1.75133e-05
9.45324e-08
1.75041e-05
7.85972e-08
1.74965e-05
6.12988e-08
1.74928e-05
6.58493e-08
1.74927e-05
7.65995e-08
1.74931e-05
8.96174e-08
1.74936e-05
8.96647e-08
1.74952e-05
8.98107e-08
1.74984e-05
8.61926e-08
1.75034e-05
8.5569e-08
1.75086e-05
8.22638e-08
7.92514e-08
1.75132e-05
1.83713e-05
2.84417e-08
1.83651e-05
3.63429e-08
1.83561e-05
2.61649e-08
1.83538e-05
5.89507e-08
1.83535e-05
1.04482e-07
1.83533e-05
1.10553e-07
1.83561e-05
9.45356e-08
1.83572e-05
9.97039e-08
1.83526e-05
9.91185e-08
1.83441e-05
8.71613e-08
1.83367e-05
6.86471e-08
1.83332e-05
6.93627e-08
1.83335e-05
7.63629e-08
1.8335e-05
8.80767e-08
1.83362e-05
8.84551e-08
1.8338e-05
8.80592e-08
1.83409e-05
8.32522e-08
1.83451e-05
8.13834e-08
1.83504e-05
7.69664e-08
7.46831e-08
1.8355e-05
1.92488e-05
2.60729e-08
1.92434e-05
4.16523e-08
1.92345e-05
3.5097e-08
1.92323e-05
6.1183e-08
1.92328e-05
1.04004e-07
1.92313e-05
1.1206e-07
1.9232e-05
9.37736e-08
1.92342e-05
9.75415e-08
1.9232e-05
1.01316e-07