/*--------------------------------*- C++ -*----------------------------------*\
| =========                 |                                                 |
| \\      /  F ield         | OpenFOAM: The Open Source CFD Toolbox           |
|  \\    /   O peration     | Version:  v1812                                 |
|   \\  /    A nd           | Web:      www.OpenFOAM.com                      |
|    \\/     M anipulation  |                                                 |
\*---------------------------------------------------------------------------*/
FoamFile
{
    version     2.0;
    format      ascii;
    class       volVectorField;
    location    "5";
    object      U;
}
// * * * * * * * * * * * * * * * * * * * * * * * * * * * * * * * * * * * * * //

dimensions      [0 1 -1 0 0 0 0];


internalField   nonuniform List<vector> 
9600
(
(0.986009 0.000697493 0)
(0.983904 -0.0048233 0)
(0.981513 0.00492072 0)
(1.018 -0.0262212 0)
(0.961992 0.0298805 0)
(1.06509 0.00398296 0)
(0.922292 0.0142214 0)
(0.989757 0.00552974 0)
(0.952141 -0.0135301 0)
(0.954035 -0.0297529 0)
(0.947856 -0.00243771 0)
(1.05011 -0.0460525 0)
(0.90444 0.0177815 0)
(1.13473 -0.0150402 0)
(0.872501 0.0230429 0)
(1.16745 0.007175 0)
(0.841459 0.0273638 0)
(1.17735 0.0225693 0)
(0.825838 0.0198656 0)
(1.13759 0.0255398 0)
(0.988279 0.000926825 0)
(0.983723 -0.00472961 0)
(0.982514 0.00456909 0)
(1.01807 -0.0259217 0)
(0.963815 0.0293734 0)
(1.05854 0.00469967 0)
(0.931375 0.0148683 0)
(0.978802 0.00522541 0)
(0.962501 -0.0130853 0)
(0.951203 -0.0295146 0)
(0.953498 -0.00440758 0)
(1.0326 -0.0447629 0)
(0.912969 0.0160999 0)
(1.10994 -0.0135685 0)
(0.891542 0.0218822 0)
(1.13002 0.00863432 0)
(0.888016 0.0270428 0)
(1.10709 0.0223923 0)
(0.924951 0.0224163 0)
(1.01262 0.0230238 0)
(0.992267 0.00109351 0)
(0.983586 -0.00467569 0)
(0.984343 0.00424276 0)
(1.01719 -0.0256691 0)
(0.96766 0.0287672 0)
(1.04878 0.00510159 0)
(0.946367 0.0155552 0)
(0.971756 0.00497521 0)
(0.972228 -0.0128165 0)
(0.952437 -0.029407 0)
(0.959586 -0.00569413 0)
(1.01767 -0.0439071 0)
(0.9319 0.0140366 0)
(1.07867 -0.0128142 0)
(0.929599 0.0206306 0)
(1.07936 0.00913553 0)
(0.94826 0.0267909 0)
(1.04373 0.0221764 0)
(0.984902 0.0241743 0)
(0.982669 0.0225177 0)
(0.996866 0.00123081 0)
(0.983936 -0.00459525 0)
(0.98677 0.00393806 0)
(1.01455 -0.0254676 0)
(0.972919 0.0283559 0)
(1.03897 0.00538394 0)
(0.962432 0.0162084 0)
(0.972593 0.0047987 0)
(0.980141 -0.0126137 0)
(0.956156 -0.0291833 0)
(0.964308 -0.00667993 0)
(1.00446 -0.0433716 0)
(0.953314 0.0125556 0)
(1.05229 -0.012638 0)
(0.967794 0.0202975 0)
(1.04633 0.00884021 0)
(0.989408 0.0272195 0)
(1.02249 0.0219978 0)
(1.00619 0.0247246 0)
(0.995125 0.023655 0)
(1.00084 0.00134235 0)
(0.985174 -0.00448931 0)
(0.989936 0.00364796 0)
(1.00959 -0.0252812 0)
(0.97868 0.0280639 0)
(1.03083 0.00559689 0)
(0.976097 0.016768 0)
(0.979285 0.00471162 0)
(0.987523 -0.0123901 0)
(0.961651 -0.0288699 0)
(0.967813 -0.00751004 0)
(0.995092 -0.0430234 0)
(0.969032 0.0113918 0)
(1.03513 -0.0126237 0)
(0.993827 0.0202264 0)
(1.03278 0.00867176 0)
(1.00986 0.0277 0)
(1.02261 0.0219879 0)
(1.01539 0.0250639 0)
(1.00835 0.0247621 0)
(1.0034 0.00142441 0)
(0.987223 -0.0043813 0)
(0.994067 0.00340674 0)
(1.00249 -0.0250954 0)
(0.9841 0.0277555 0)
(1.02432 0.00574617 0)
(0.986081 0.0171608 0)
(0.988376 0.00468566 0)
(0.994952 -0.012122 0)
(0.967645 -0.0284843 0)
(0.971055 -0.00815504 0)
(0.988758 -0.042778 0)
(0.976655 0.0102855 0)
(1.02467 -0.0127411 0)
(1.00714 0.0198255 0)
(1.02825 0.00880509 0)
(1.01846 0.0275216 0)
(1.02567 0.0222344 0)
(1.02148 0.0251385 0)
(1.01695 0.0253799 0)
(1.00445 0.00147955 0)
(0.989541 -0.00429326 0)
(0.998958 0.00325011 0)
(0.994193 -0.0249015 0)
(0.98849 0.0273974 0)
(1.01862 0.00586152 0)
(0.992651 0.0173665 0)
(0.997496 0.00467903 0)
(1.00247 -0.0117978 0)
(0.973822 -0.0280034 0)
(0.974911 -0.00863674 0)
(0.984225 -0.0425251 0)
(0.978562 0.00915959 0)
(1.01735 -0.0129831 0)
(1.01189 0.0191747 0)
(1.02598 0.00901333 0)
(1.02188 0.0269213 0)
(1.02754 0.0226767 0)
(1.0259 0.0248002 0)
(1.02308 0.025818 0)
(1.0045 0.00151529 0)
(0.99153 -0.00424141 0)
(1.00387 0.00319283 0)
(0.986087 -0.0246843 0)
(0.991492 0.0269945 0)
(1.01321 0.00596202 0)
(0.99689 0.0173842 0)
(1.00565 0.00465371 0)
(1.00954 -0.0114247 0)
(0.979876 -0.027442 0)
(0.979719 -0.00896486 0)
(0.980631 -0.042182 0)
(0.97814 0.00799386 0)
(1.01103 -0.0132708 0)
(1.01223 0.0183627 0)
(1.02384 0.00921247 0)
(1.02354 0.0262402 0)
(1.02908 0.0231545 0)
(1.02945 0.0242534 0)
(1.02795 0.026275 0)
(1.00418 0.00154012 0)
(0.992907 -0.00423129 0)
(1.00791 0.00322852 0)
(0.97944 -0.0244346 0)
(0.993216 0.0265445 0)
(1.0084 0.0060553 0)
(1.00007 0.0172133 0)
(1.01249 0.0045921 0)
(1.0155 -0.0110151 0)
(0.985425 -0.0268241 0)
(0.98526 -0.00913644 0)
(0.977779 -0.0416979 0)
(0.97755 0.00680196 0)
(1.00494 -0.0135291 0)
(1.01074 0.0173498 0)
(1.0215 0.00942947 0)
(1.02458 0.025418 0)
(1.03069 0.0235838 0)
(1.03243 0.0236473 0)
(1.0317 0.0266934 0)
(1.00388 0.00155981 0)
(0.993746 -0.00425638 0)
(1.01047 0.00333763 0)
(0.975033 -0.0241567 0)
(0.994096 0.0260449 0)
(1.00507 0.00613899 0)
(1.00305 0.0168671 0)
(1.01777 0.00450185 0)
(1.01989 -0.010581 0)
(0.990024 -0.0261802 0)
(0.990826 -0.00916535 0)
(0.97591 -0.0410416 0)
(0.977512 0.00560554 0)
(0.99897 -0.0137162 0)
(1.00832 0.016123 0)
(1.01868 0.00964564 0)
(1.02475 0.0243572 0)
(1.03167 0.0239619 0)
(1.03428 0.023003 0)
(1.03388 0.0270005 0)
(1.00376 0.00157698 0)
(0.994296 -0.00430281 0)
(1.01141 0.00349296 0)
(0.973095 -0.023857 0)
(0.994518 0.0254964 0)
(1.00381 0.00620503 0)
(1.00603 0.0163833 0)
(1.02119 0.00440767 0)
(1.02256 -0.0101348 0)
(0.993413 -0.0255328 0)
(0.995475 -0.00908435 0)
(0.975427 -0.0402062 0)
(0.977815 0.0044264 0)
(0.993351 -0.0137839 0)
(1.00488 0.0147186 0)
(1.01489 0.00982385 0)
(1.0232 0.0230868 0)
(1.03086 0.0242977 0)
(1.03411 0.0223621 0)
(1.03392 0.0271652 0)
(1.00375 0.00159159 0)
(0.994794 -0.0043547 0)
(1.011 0.00366673 0)
(0.973376 -0.0235393 0)
(0.994528 0.0249005 0)
(1.00444 0.00624815 0)
(1.00862 0.0158199 0)
(1.0226 0.00433199 0)
(1.02368 -0.00969375 0)
(0.995644 -0.0248843 0)
(0.998473 -0.00895186 0)
(0.976512 -0.0392101 0)
(0.977904 0.00329846 0)
(0.9885 -0.0136746 0)
(1.00023 0.0131846 0)
(1.00976 0.00997375 0)
(1.01931 0.0216837 0)
(1.02751 0.0245607 0)
(1.03135 0.0217758 0)
(1.03154 0.0271645 0)
(1.00377 0.00160206 0)
(0.995359 -0.0043982 0)
(1.00973 0.00383492 0)
(0.97527 -0.0232024 0)
(0.993945 0.0242609 0)
(1.00603 0.00626669 0)
(1.01037 0.0152326 0)
(1.0222 0.00429616 0)
(1.02372 -0.00927493 0)
(0.997039 -0.0242233 0)
(0.99969 -0.00883226 0)
(0.97881 -0.0380851 0)
(0.977423 0.00226005 0)
(0.984831 -0.0133653 0)
(0.994734 0.0115839 0)
(1.00354 0.0101476 0)
(1.01338 0.0202105 0)
(1.0218 0.0247081 0)
(1.02632 0.0212778 0)
(1.02711 0.0269529 0)
(1.00375 0.00160707 0)
(0.99598 -0.00442541 0)
(1.00819 0.00398114 0)
(0.977992 -0.022842 0)
(0.992721 0.023586 0)
(1.00751 0.00626163 0)
(1.01109 0.0146597 0)
(1.02055 0.00430048 0)
(1.02315 -0.00889409 0)
(0.997999 -0.0235375 0)
(0.999626 -0.00876545 0)
(0.981534 -0.0368621 0)
(0.976507 0.00131934 0)
(0.982501 -0.01287 0)
(0.989384 0.0100046 0)
(0.997133 0.0103625 0)
(1.00663 0.018731 0)
(1.01491 0.0247113 0)
(1.02015 0.0208957 0)
(1.02158 0.0264911 0)
(1.00367 0.00160682 0)
(0.996576 -0.00443641 0)
(1.00683 0.00409802 0)
(0.980836 -0.0224508 0)
(0.991114 0.0228884 0)
(1.00822 0.00624227 0)
(1.01096 0.014112 0)
(1.01833 0.00432969 0)
(1.02234 -0.00856787 0)
(0.998806 -0.0228122 0)
(0.99905 -0.00876014 0)
(0.983922 -0.0355641 0)
(0.9756 0.000451797 0)
(0.981296 -0.0122069 0)
(0.985165 0.008503 0)
(0.991594 0.0106132 0)
(1.00051 0.0173264 0)
(1.00827 0.0245355 0)
(1.01412 0.0206447 0)
(1.01603 0.0257961 0)
(1.00354 0.00160245 0)
(0.997074 -0.00443581 0)
(1.00582 0.00418577 0)
(0.983389 -0.0220225 0)
(0.989504 0.0221834 0)
(1.00807 0.00621825 0)
(1.01027 0.0135778 0)
(1.01609 0.00437809 0)
(1.02145 -0.00830037 0)
(0.999551 -0.0220445 0)
(0.998533 -0.00880309 0)
(0.985654 -0.0341933 0)
(0.975052 -0.000377184 0)
(0.980755 -0.0114079 0)
(0.982424 0.00710123 0)
(0.98742 0.0108899 0)
(0.995825 0.016058 0)
(1.0028 0.0241644 0)
(1.00897 0.0205333 0)
(1.01114 0.0249385 0)
(1.00339 0.00159549 0)
(0.997451 -0.00442874 0)
(1.00514 0.00424759 0)
(0.985538 -0.0215538 0)
(0.988123 0.0214837 0)
(1.00732 0.00619622 0)
(1.00931 0.0130424 0)
(1.01409 0.00443837 0)
(1.02055 -0.00809067 0)
(1.00019 -0.0212441 0)
(0.998247 -0.00887264 0)
(0.986858 -0.0327509 0)
(0.974909 -0.00119315 0)
(0.980439 -0.0105145 0)
(0.980821 0.00579959 0)
(0.984407 0.011166 0)
(0.992448 0.0149541 0)
(0.998565 0.023621 0)
(1.00475 0.0205563 0)
(1.00705 0.0239985 0)
(1.00323 0.00158741 0)
(0.997732 -0.00441863 0)
(1.00463 0.00428655 0)
(0.987318 -0.0210439 0)
(0.987019 0.0207939 0)
(1.00634 0.00618339 0)
(1.00829 0.0124919 0)
(1.01239 0.00450673 0)
(1.01966 -0.00793957 0)
(1.00068 -0.0204192 0)
(0.998089 -0.00895222 0)
(0.987809 -0.0312534 0)
(0.975032 -0.00196347 0)
(0.980111 -0.00957533 0)
(0.979821 0.0046047 0)
(0.982061 0.0114101 0)
(0.989836 0.0140335 0)
(0.995163 0.0229403 0)
(1.00115 0.0206735 0)
(1.00358 0.0230449 0)
(1.00308 0.00157911 0)
(0.99795 -0.00440698 0)
(1.00419 0.00430539 0)
(0.98878 -0.0204942 0)
(0.986176 0.0201127 0)
(1.00538 0.00618164 0)
(1.00737 0.0119188 0)
(1.01098 0.00457876 0)
(1.01881 -0.00783606 0)
(1.00101 -0.019579 0)
(0.997918 -0.00903528 0)
(0.988669 -0.0297094 0)
(0.975296 -0.00270925 0)
(0.979747 -0.00859711 0)
(0.979125 0.0035425 0)
(0.980071 0.0115948 0)
(0.98761 0.0133123 0)
(0.992295 0.022133 0)
(0.997992 0.0208224 0)
(1.00063 0.0221375 0)
(1.00293 0.00157139 0)
(0.99813 -0.00439527 0)
(1.00376 0.00430782 0)
(0.989952 -0.0199072 0)
(0.985594 0.0194341 0)
(1.00457 0.0061917 0)
(1.00662 0.0113214 0)
(1.00981 0.00465366 0)
(1.018 -0.00777062 0)
(1.0012 -0.0187217 0)
(0.997675 -0.00912208 0)
(0.989452 -0.0281461 0)
(0.975668 -0.00340796 0)
(0.979428 -0.0076007 0)
(0.978702 0.00262539 0)
(0.978436 0.0117025 0)
(0.985732 0.0127898 0)
(0.989956 0.0212022 0)
(0.995292 0.0209362 0)
(0.998201 0.0213154 0)
(1.00278 0.00156514 0)
(0.998284 -0.00438484 0)
(1.00334 0.00429786 0)
(0.990865 -0.0192872 0)
(0.985282 0.0187518 0)
(1.00394 0.00621471 0)
(1.00606 0.0107004 0)
(1.00887 0.00473322 0)
(1.01724 -0.00773515 0)
(1.00132 -0.0178508 0)
(0.99737 -0.00920394 0)
(0.990123 -0.0265858 0)
(0.976155 -0.00401622 0)
(0.979227 -0.0066216 0)
(0.978606 0.00184735 0)
(0.977283 0.0117247 0)
(0.984314 0.012452 0)
(0.988269 0.0201917 0)
(0.993187 0.0209735 0)
(0.996372 0.020597 0)
(1.00264 0.00156062 0)
(0.998416 -0.00437476 0)
(1.00294 0.00427754 0)
(0.991565 -0.0186388 0)
(0.985216 0.0180575 0)
(1.00347 0.00625564 0)
(1.00567 0.0100577 0)
(1.0081 0.00481977 0)
(1.01652 -0.00771711 0)
(1.00138 -0.0169813 0)
(0.997033 -0.00925712 0)
(0.990667 -0.0250495 0)
(0.97676 -0.00455134 0)
(0.97918 -0.00568044 0)
(0.978838 0.00119652 0)
(0.976684 0.0116616 0)
(0.983418 0.0122615 0)
(0.987288 0.0191527 0)
(0.991736 0.0209165 0)
(0.99513 0.019995 0)
(1.00251 0.0015574 0)
(0.998529 -0.00436422 0)
(1.00256 0.00425056 0)
(0.992105 -0.0179657 0)
(0.985347 0.0173486 0)
(1.00313 0.00630755 0)
(1.00541 0.00939363 0)
(1.00746 0.00491309 0)
(1.01581 -0.00770329 0)
(1.00141 -0.0161174 0)
(0.996688 -0.00927662 0)
(0.991106 -0.0235593 0)
(0.977466 -0.00498831 0)
(0.979279 -0.00479574 0)
(0.979338 0.000681884 0)
(0.976598 0.011517 0)
(0.982992 0.0121685 0)
(0.986938 0.0181038 0)
(0.990881 0.020746 0)
(0.994373 0.0195296 0)
(1.00239 0.00155604 0)
(0.998626 -0.00435427 0)
(1.0022 0.00421816 0)
(0.992537 -0.0172699 0)
(0.985619 0.0166216 0)
(1.00286 0.00637156 0)
(1.00524 0.00870625 0)
(1.0069 0.0050136 0)
(1.01511 -0.00768282 0)
(1.00143 -0.0152705 0)
(0.996347 -0.00924264 0)
(0.99147 -0.022129 0)
(0.978249 -0.00533871 0)
(0.979498 -0.00396742 0)
(0.980019 0.000279994 0)
(0.97692 0.0112794 0)
(0.982916 0.0121594 0)
(0.987059 0.0170661 0)
(0.990498 0.0204311 0)
(0.993949 0.0192012 0)
(1.0023 0.00155761 0)
(0.998709 -0.00434703 0)
(1.00188 0.00418097 0)
(0.992903 -0.0165542 0)
(0.985986 0.0158707 0)
(1.00264 0.00645396 0)
(1.00512 0.0080046 0)
(1.00639 0.00511694 0)
(1.01441 -0.0076486 0)
(1.00144 -0.0144468 0)
(0.99602 -0.0091398 0)
(0.991785 -0.0207807 0)
(0.97909 -0.00561949 0)
(0.979804 -0.00318863 0)
(0.980802 -3.00775e-05 0)
(0.977535 0.010945 0)
(0.983061 0.0122274 0)
(0.987475 0.0160704 0)
(0.990453 0.0199468 0)
(0.993718 0.01898 0)
(1.00222 0.00156089 0)
(0.998783 -0.00434068 0)
(1.00158 0.00413904 0)
(0.993233 -0.0158188 0)
(0.986416 0.0150948 0)
(1.00242 0.00655286 0)
(1.00505 0.00729596 0)
(1.0059 0.0052127 0)
(1.01372 -0.00758081 0)
(1.00145 -0.0136777 0)
(0.99571 -0.00894711 0)
(0.992068 -0.0195194 0)
(0.979977 -0.00582477 0)
(0.980166 -0.0024764 0)
(0.981627 -0.000239305 0)
(0.978342 0.0105199 0)
(0.983325 0.0123362 0)
(0.988034 0.0151561 0)
(0.990633 0.0192931 0)
(0.993577 0.0188345 0)
(1.00215 0.00156598 0)
(0.998851 -0.00433362 0)
(1.00129 0.00409086 0)
(0.993543 -0.0150629 0)
(0.986888 0.0142969 0)
(1.00221 0.0066667 0)
(1.00499 0.0065841 0)
(1.00542 0.00529777 0)
(1.01303 -0.00747165 0)
(1.00147 -0.0129756 0)
(0.995425 -0.00866415 0)
(0.992326 -0.0183205 0)
(0.980901 -0.00596981 0)
(0.980562 -0.00182618 0)
(0.982453 -0.000369402 0)
(0.979272 0.0100083 0)
(0.983646 0.012462 0)
(0.988627 0.0143544 0)
(0.990966 0.0184794 0)
(0.993475 0.0187171 0)
(1.00208 0.00157259 0)
(0.99892 -0.00432502 0)
(1.00103 0.00403629 0)
(0.993843 -0.0142857 0)
(0.987393 0.0134786 0)
(1.00198 0.00679456 0)
(1.00496 0.0058707 0)
(1.00495 0.00536786 0)
(1.01233 -0.00732292 0)
(1.00151 -0.0123244 0)
(0.995167 -0.00831199 0)
(0.992561 -0.0171714 0)
(0.981855 -0.00608251 0)
(0.98098 -0.00120844 0)
(0.983255 -0.000402876 0)
(0.980283 0.00942223 0)
(0.983997 0.012584 0)
(0.989181 0.0136985 0)
(0.991405 0.017521 0)
(0.993408 0.0185343 0)
(1.00202 0.00158007 0)
(0.998992 -0.00431397 0)
(1.00077 0.00397357 0)
(0.994134 -0.0134902 0)
(0.987924 0.0126332 0)
(1.00174 0.00693379 0)
(1.00492 0.00516729 0)
(1.00448 0.00540748 0)
(1.01164 -0.00710726 0)
(1.00155 -0.0117524 0)
(0.994941 -0.00787637 0)
(0.992769 -0.0160701 0)
(0.982838 -0.00617043 0)
(0.981421 -0.000633736 0)
(0.984016 -0.000344763 0)
(0.981348 0.00876729 0)
(0.984378 0.0126504 0)
(0.989655 0.0132065 0)
(0.991915 0.0164632 0)
(0.9934 0.018205 0)
(1.00195 0.00158933 0)
(0.999069 -0.00430081 0)
(1.00053 0.00389916 0)
(0.994415 -0.0126802 0)
(0.988478 0.0117704 0)
(1.00149 0.00707463 0)
(1.0049 0.00448694 0)
(1.00403 0.0054097 0)
(1.01095 -0.00681925 0)
(1.00162 -0.0112601 0)
(0.994752 -0.00738246 0)
(0.992948 -0.0149885 0)
(0.983844 -0.0062346 0)
(0.981887 -9.55744e-05 0)
(0.984725 -0.000208594 0)
(0.982453 0.00805057 0)
(0.984806 0.0126131 0)
(0.990035 0.0128759 0)
(0.992461 0.0153968 0)
(0.993486 0.0176841 0)
(1.00187 0.00159851 0)
(0.999153 -0.00428042 0)
(1.0003 0.00380833 0)
(0.994685 -0.0118497 0)
(0.989053 0.010895 0)
(1.00124 0.00721452 0)
(1.00486 0.00383269 0)
(1.00359 0.00536455 0)
(1.01025 -0.00646123 0)
(1.0017 -0.0108349 0)
(0.994602 -0.00686786 0)
(0.993094 -0.0139043 0)
(0.984868 -0.00629362 0)
(0.982387 0.000392177 0)
(0.985371 4.39193e-05 0)
(0.983581 0.00729754 0)
(0.985303 0.0124441 0)
(0.99033 0.01268 0)
(0.993006 0.0144051 0)
(0.99369 0.0169581 0)
(1.0018 0.00160699 0)
(0.999242 -0.00425303 0)
(1.00008 0.00370235 0)
(0.994943 -0.0109983 0)
(0.989644 0.0100077 0)
(1.00099 0.007353 0)
(1.00483 0.00321397 0)
(1.00319 0.00526538 0)
(1.00954 -0.00603116 0)
(1.0018 -0.0104627 0)
(0.9945 -0.00635485 0)
(0.993205 -0.0127946 0)
(0.985901 -0.00634949 0)
(0.982935 0.000793644 0)
(0.985951 0.000412391 0)
(0.98471 0.00655184 0)
(0.985887 0.0121301 0)
(0.99056 0.012573 0)
(0.993509 0.013557 0)
(0.994017 0.0160552 0)
(1.00172 0.00161514 0)
(0.999335 -0.00421664 0)
(0.999873 0.00357549 0)
(0.995187 -0.01013 0)
(0.99025 0.00911725 0)
(1.00074 0.00747727 0)
(1.00478 0.00264731 0)
(1.00282 0.00510504 0)
(1.00883 -0.00552535 0)
(1.00189 -0.0101223 0)
(0.994448 -0.00586322 0)
(0.993283 -0.0116493 0)
(0.986929 -0.00638135 0)
(0.983542 0.00110673 0)
(0.986467 0.000883562 0)
(0.985819 0.00588219 0)
(0.986566 0.011674 0)
(0.990756 0.0124808 0)
(0.993935 0.0128937 0)
(0.994441 0.0150417 0)
(1.00163 0.00162174 0)
(0.99943 -0.00416929 0)
(0.99969 0.00342696 0)
(0.995418 -0.00924947 0)
(0.990866 0.00822964 0)
(1.00049 0.00757461 0)
(1.00471 0.00214708 0)
(1.00248 0.00487363 0)
(1.00812 -0.00495592 0)
(1.00199 -0.00979994 0)
(0.994454 -0.005408 0)
(0.993329 -0.0104741 0)
(0.987941 -0.00637707 0)
(0.984219 0.00131704 0)
(0.986928 0.00143429 0)
(0.986881 0.00533061 0)
(0.987332 0.0110839 0)
(0.990955 0.0123413 0)
(0.994268 0.0124167 0)
(0.994919 0.0140281 0)
(1.00155 0.00162561 0)
(0.999526 -0.00410668 0)
(0.999529 0.00325419 0)
(0.995633 -0.00835898 0)
(0.991489 0.00735532 0)
(1.00025 0.00763731 0)
(1.00463 0.00172215 0)
(1.00218 0.00456828 0)
(1.0074 -0.0043493 0)
(1.00209 -0.00946731 0)
(0.994522 -0.00501243 0)
(0.993347 -0.00928613 0)
(0.988921 -0.00630729 0)
(0.984975 0.00140928 0)
(0.987351 0.00201964 0)
(0.98787 0.00491081 0)
(0.988171 0.0103916 0)
(0.991193 0.0121287 0)
(0.994508 0.012083 0)
(0.995391 0.0131202 0)
(1.00146 0.00162597 0)
(0.999622 -0.00402491 0)
(0.999392 0.0030565 0)
(0.995833 -0.00746568 0)
(0.992117 0.00650217 0)
(1.00003 0.0076574 0)
(1.00453 0.00138296 0)
(1.00192 0.00418907 0)
(1.00669 -0.00371472 0)
(1.00216 -0.00910248 0)
(0.994654 -0.00469793 0)
(0.993348 -0.00809076 0)
(0.989854 -0.00613754 0)
(0.985809 0.00138733 0)
(0.987754 0.00258348 0)
(0.988768 0.0046471 0)
(0.989064 0.00964964 0)
(0.991497 0.0118103 0)
(0.99468 0.0118153 0)
(0.995811 0.0123777 0)
(1.00138 0.00162191 0)
(0.999715 -0.00392757 0)
(0.999283 0.00284373 0)
(0.996017 -0.0065789 0)
(0.992745 0.00567671 0)
(0.999813 0.00763282 0)
(1.0044 0.00113329 0)
(1.00171 0.00376025 0)
(1.00599 -0.00308608 0)
(1.00221 -0.00868749 0)
(0.994854 -0.00445124 0)
(0.993345 -0.00691531 0)
(0.990722 -0.00585343 0)
(0.986711 0.00125605 0)
(0.988164 0.00309237 0)
(0.989568 0.0045441 0)
(0.989978 0.00890396 0)
(0.99188 0.0113891 0)
(0.994818 0.0115665 0)
(0.996154 0.0118112 0)
(1.0013 0.00161264 0)
(0.999805 -0.00380995 0)
(0.999203 0.00261185 0)
(0.996185 -0.00570577 0)
(0.993368 0.00489378 0)
(0.99962 0.00754083 0)
(1.00424 0.000985585 0)
(1.00153 0.0032923 0)
(1.00531 -0.00248179 0)
(1.00224 -0.00820662 0)
(0.995117 -0.00427491 0)
(0.99335 -0.00580915 0)
(0.991511 -0.0054589 0)
(0.987673 0.00104944 0)
(0.988606 0.0035134 0)
(0.990263 0.00457548 0)
(0.990884 0.00821184 0)
(0.992349 0.010885 0)
(0.994959 0.0112902 0)
(0.996411 0.0113763 0)
(1.00122 0.00159773 0)
(0.999891 -0.00367068 0)
(0.999153 0.00236 0)
(0.996339 -0.00485721 0)
(0.993982 0.00417054 0)
(0.999451 0.00737471 0)
(1.00406 0.00092823 0)
(1.0014 0.00279751 0)
(1.00466 -0.0019262 0)
(1.00223 -0.00766056 0)
(0.995437 -0.00414653 0)
(0.99338 -0.00479194 0)
(0.992214 -0.00494704 0)
(0.988675 0.000814235 0)
(0.989101 0.00382165 0)
(0.990869 0.00469334 0)
(0.991754 0.00761468 0)
(0.992888 0.010317 0)
(0.995129 0.010962 0)
(0.996604 0.0110166 0)
(1.00115 0.00157551 0)
(0.999972 -0.00351085 0)
(0.999134 0.00209659 0)
(0.996478 -0.00403704 0)
(0.994582 0.00350392 0)
(0.99931 0.00714353 0)
(1.00385 0.000953866 0)
(1.00129 0.00229937 0)
(1.00406 -0.00143394 0)
(1.00218 -0.00705045 0)
(0.995806 -0.004041 0)
(0.993451 -0.00387247 0)
(0.992829 -0.00433758 0)
(0.989695 0.0005946 0)
(0.989662 0.00400646 0)
(0.991399 0.00487314 0)
(0.992567 0.00712642 0)
(0.993485 0.00971307 0)
(0.995349 0.0106003 0)
(0.996761 0.0106876 0)
(1.00107 0.00154333 0)
(1.00004 -0.00332396 0)
(0.999145 0.00182069 0)
(0.996604 -0.00326321 0)
(0.995161 0.00291584 0)
(0.999204 0.00683449 0)
(1.00361 0.00104821 0)
(1.00121 0.00182698 0)
(1.00351 -0.00102554 0)
(1.0021 -0.00638095 0)
(0.996211 -0.00393392 0)
(0.993574 -0.00306718 0)
(0.993361 -0.0036591 0)
(0.990707 0.000416194 0)
(0.990298 0.0040578 0)
(0.991881 0.00507954 0)
(0.993301 0.0067541 0)
(0.994122 0.00909724 0)
(0.995628 0.0101944 0)
(0.996906 0.0103539 0)
(1.00101 0.00150387 0)
(1.00011 -0.00311277 0)
(0.999184 0.00152774 0)
(0.99672 -0.00254064 0)
(0.995715 0.00241268 0)
(0.999133 0.00645026 0)
(1.00336 0.00119229 0)
(1.00115 0.00140718 0)
(1.00301 -0.000706762 0)
(1.00198 -0.005676 0)
(0.996639 -0.00380607 0)
(0.993757 -0.00239033 0)
(0.993819 -0.00292377 0)
(0.991686 0.000319765 0)
(0.991011 0.00399302 0)
(0.992342 0.00524002 0)
(0.99395 0.0064904 0)
(0.994774 0.00849673 0)
(0.995971 0.00972908 0)
(0.997058 0.0100204 0)
(1.00094 0.00145453 0)
(1.00016 -0.00287613 0)
(0.99925 0.00122344 0)
(0.996829 -0.0018666 0)
(0.996236 0.00199468 0)
(0.999101 0.005991 0)
(1.00308 0.0013779 0)
(1.0011 0.0010625 0)
(1.00258 -0.000458903 0)
(1.00185 -0.00496616 0)
(0.997074 -0.00365571 0)
(0.99401 -0.00182088 0)
(0.99422 -0.00217788 0)
(0.992605 0.000317964 0)
(0.991779 0.00383845 0)
(0.99281 0.00533363 0)
(0.994519 0.00631719 0)
(0.995413 0.00794704 0)
(0.99638 0.00921516 0)
(0.997241 0.00968446 0)
(1.00088 0.00139194 0)
(1.0002 -0.0026067 0)
(0.999341 0.000916571 0)
(0.996935 -0.00126145 0)
(0.996714 0.00167981 0)
(0.999108 0.00547641 0)
(1.00281 0.00156811 0)
(1.00105 0.000810993 0)
(1.0022 -0.000280255 0)
(1.00169 -0.00426687 0)
(0.997507 -0.00344732 0)
(0.994328 -0.00135666 0)
(0.994577 -0.00145527 0)
(0.993452 0.000405052 0)
(0.992592 0.00363941 0)
(0.993308 0.00535755 0)
(0.995021 0.00619366 0)
(0.996016 0.00747506 0)
(0.996848 0.00866819 0)
(0.997477 0.00930116 0)
(1.00083 0.00132202 0)
(1.00023 -0.0023175 0)
(0.999452 0.000616404 0)
(0.997042 -0.000728374 0)
(0.997147 0.00146606 0)
(0.999151 0.00494646 0)
(1.00255 0.00173132 0)
(1.00099 0.000657832 0)
(1.00189 -0.000147404 0)
(1.00153 -0.00358931 0)
(0.997925 -0.00317868 0)
(0.994708 -0.00098484 0)
(0.994912 -0.000788855 0)
(0.994214 0.000580597 0)
(0.993421 0.00343296 0)
(0.993845 0.00529539 0)
(0.995477 0.00608243 0)
(0.996568 0.00708874 0)
(0.997344 0.00812814 0)
(0.997781 0.00885249 0)
(1.00078 0.00124222 0)
(1.00024 -0.00201384 0)
(0.99958 0.000337813 0)
(0.997157 -0.000282644 0)
(0.997531 0.00135517 0)
(0.999218 0.0044123 0)
(1.00229 0.00185204 0)
(1.00092 0.000592244 0)
(1.00162 -3.4518e-05 0)
(1.00137 -0.00294571 0)
(0.998325 -0.00285134 0)
(0.995142 -0.00068363 0)
(0.995239 -0.000202138 0)
(0.994893 0.000812722 0)
(0.994243 0.00324398 0)
(0.99442 0.00515978 0)
(0.99591 0.00596768 0)
(0.997066 0.00677364 0)
(0.997838 0.00764453 0)
(0.998145 0.00837452 0)
(1.00074 0.00115511 0)
(1.00024 -0.00170503 0)
(0.999716 9.46004e-05 0)
(0.997283 5.53673e-05 0)
(0.997866 0.00132547 0)
(0.999302 0.0039137 0)
(1.00207 0.0019235 0)
(1.00085 0.000593089 0)
(1.00141 7.24049e-05 0)
(1.00122 -0.00234598 0)
(0.998697 -0.00247811 0)
(0.995616 -0.000445671 0)
(0.995574 0.000295728 0)
(0.995493 0.0010817 0)
(0.995036 0.00308937 0)
(0.99503 0.0049737 0)
(0.996336 0.00583779 0)
(0.997518 0.00650024 0)
(0.998313 0.00721756 0)
(0.998543 0.00790926 0)
(1.0007 0.00106402 0)
(1.00021 -0.00140599 0)
(0.999855 -0.000103871 0)
(0.997423 0.000289034 0)
(0.998157 0.00135153 0)
(0.999393 0.00347628 0)
(1.00186 0.00194856 0)
(1.00078 0.000642975 0)
(1.00123 0.000183049 0)
(1.00109 -0.00179179 0)
(0.999038 -0.00208153 0)
(0.996117 -0.00024147 0)
(0.995927 0.000685715 0)
(0.996026 0.00135832 0)
(0.995784 0.00297415 0)
(0.995665 0.00475824 0)
(0.996766 0.00568036 0)
(0.99793 0.00625143 0)
(0.998763 0.00681971 0)
(0.998951 0.00747175 0)
(1.00066 0.000974182 0)
(1.00018 -0.00112975 0)
(0.99999 -0.000246566 0)
(0.99758 0.000434592 0)
(0.998412 0.00140793 0)
(0.999483 0.00311207 0)
(1.00169 0.00194414 0)
(1.0007 0.000727296 0)
(1.00109 0.000299748 0)
(1.00097 -0.0012792 0)
(0.999345 -0.00166831 0)
(0.996627 -6.35355e-05 0)
(0.996302 0.000994445 0)
(0.996507 0.00161495 0)
(0.996476 0.00289304 0)
(0.996312 0.00453093 0)
(0.997209 0.00549161 0)
(0.998308 0.00603429 0)
(0.999186 0.00645637 0)
(0.999364 0.00705878 0)
(1.00063 0.000884884 0)
(1.00014 -0.000879647 0)
(1.00012 -0.000327945 0)
(0.997752 0.000512701 0)
(0.998642 0.00146615 0)
(0.99957 0.0028266 0)
(1.00154 0.00191785 0)
(1.00063 0.000831005 0)
(1.00098 0.000422978 0)
(1.00088 -0.000823388 0)
(0.999616 -0.00124647 0)
(0.997137 0.000109617 0)
(0.9967 0.00123222 0)
(0.996944 0.00184256 0)
(0.997109 0.00285171 0)
(0.996959 0.00430873 0)
(0.997676 0.00527057 0)
(0.998665 0.00583615 0)
(0.999572 0.0061446 0)
(0.999775 0.00665616 0)
(1.00061 0.000798357 0)
(1.00008 -0.000656157 0)
(1.00023 -0.000362709 0)
(0.997935 0.000549378 0)
(0.998852 0.00150356 0)
(0.999651 0.00259458 0)
(1.00141 0.0018843 0)
(1.00057 0.000945546 0)
(1.0009 0.000560473 0)
(1.00081 -0.00042804 0)
(0.999858 -0.000836007 0)
(0.997629 0.000297541 0)
(0.997115 0.00141304 0)
(0.997357 0.00204189 0)
(0.997684 0.00284224 0)
(0.997585 0.00410927 0)
(0.998165 0.00503492 0)
(0.999021 0.00563272 0)
(0.999915 0.00588318 0)
(1.00017 0.00627058 0)
(1.00058 0.000718279 0)
(1.00003 -0.000463112 0)
(1.00033 -0.000362512 0)
(0.998126 0.000565159 0)
(0.999048 0.00151345 0)
(0.99973 0.00240633 0)
(1.00131 0.00186751 0)
(1.00052 0.00107218 0)
(1.00083 0.000705241 0)
(1.00076 -7.41527e-05 0)
(1.00008 -0.000446024 0)
(0.998103 0.000504156 0)
(0.997543 0.0015706 0)
(0.997749 0.00221591 0)
(0.998205 0.00284488 0)
(0.998185 0.00392685 0)
(0.998666 0.00479423 0)
(0.999385 0.00540301 0)
(1.00022 0.00565272 0)
(1.00054 0.00593235 0)
(1.00056 0.000642004 0)
(0.99997 -0.000296527 0)
(1.00042 -0.000330342 0)
(0.998319 0.000569856 0)
(0.999235 0.001504 0)
(0.999809 0.00224931 0)
(1.00123 0.00185939 0)
(1.00048 0.00120528 0)
(1.00079 0.000853212 0)
(1.00074 0.000242966 0)
(1.00028 -8.18621e-05 0)
(0.998552 0.000721579 0)
(0.997974 0.00170505 0)
(0.998124 0.00236259 0)
(0.998672 0.00286043 0)
(0.998749 0.00376535 0)
(0.999169 0.00455094 0)
(0.99977 0.0051504 0)
(1.00052 0.00542217 0)
(1.00087 0.00565045 0)
(1.00055 0.000574429 0)
(0.999913 -0.000158685 0)
(1.0005 -0.00027796 0)
(0.998512 0.000574545 0)
(0.999413 0.00148845 0)
(0.999891 0.00211171 0)
(1.00118 0.00185172 0)
(1.00045 0.00134751 0)
(1.00076 0.00100965 0)
(1.00073 0.000512765 0)
(1.00048 0.000244402 0)
(0.998978 0.000930137 0)
(0.998405 0.00182655 0)
(0.99849 0.00248445 0)
(0.999095 0.00288878 0)
(0.999271 0.00362615 0)
(0.999662 0.00431791 0)
(1.00017 0.00490006 0)
(1.00083 0.00517051 0)
(1.00115 0.00540502 0)
(1.00054 0.000513266 0)
(0.999859 -4.56117e-05 0)
(1.00057 -0.000208141 0)
(0.998704 0.000587876 0)
(0.999584 0.00146993 0)
(0.999977 0.00198879 0)
(1.00116 0.00184306 0)
(1.00043 0.00149397 0)
(1.00074 0.00117761 0)
(1.00074 0.000751415 0)
(1.00067 0.000522102 0)
(0.999383 0.00111647 0)
(0.998833 0.00193558 0)
(0.998848 0.00258677 0)
(0.999475 0.00292268 0)
(0.999748 0.00350902 0)
(1.00014 0.00409156 0)
(1.00057 0.00465468 0)
(1.00115 0.00490147 0)
(1.00143 0.00516008 0)
(1.00053 0.000459471 0)
(0.999809 4.82268e-05 0)
(1.00063 -0.00012736 0)
(0.998893 0.000612922 0)
(0.999749 0.00145834 0)
(1.00007 0.00187885 0)
(1.00116 0.00182056 0)
(1.00044 0.00162644 0)
(1.00073 0.00134611 0)
(1.00076 0.000978757 0)
(1.00085 0.000754735 0)
(0.999772 0.00127429 0)
(0.999261 0.00202057 0)
(0.999203 0.00266653 0)
(0.999821 0.00295966 0)
(1.00017 0.00342531 0)
(1.0006 0.00388096 0)
(1.00096 0.00441214 0)
(1.00148 0.00463908 0)
(1.00171 0.00489514 0)
(1.00052 0.000414772 0)
(0.999764 0.000124363 0)
(1.00069 -4.02449e-05 0)
(0.99908 0.000648974 0)
(0.999905 0.0014599 0)
(1.00016 0.00179392 0)
(1.0012 0.00177508 0)
(1.00046 0.00173842 0)
(1.00072 0.00152079 0)
(1.00078 0.00119396 0)
(1.00102 0.00096798 0)
(1.00015 0.00140681 0)
(0.999688 0.00207278 0)
(0.999562 0.00272113 0)
(1.00014 0.00299307 0)
(1.00055 0.00336831 0)
(1.00103 0.00369514 0)
(1.00136 0.00416648 0)
(1.0018 0.00438713 0)
(1.00201 0.00461112 0)
(1.00052 0.000370377 0)
(0.999724 0.000209786 0)
(1.00074 5.21205e-05 0)
(0.999264 0.000688116 0)
(1.00006 0.00146579 0)
(1.00024 0.00173077 0)
(1.00126 0.00170763 0)
(1.00052 0.00180837 0)
(1.00073 0.00169212 0)
(1.0008 0.00140345 0)
(1.00117 0.00116426 0)
(1.00049 0.00151812 0)
(1.00011 0.00209803 0)
(0.999933 0.00273992 0)
(1.00045 0.00300743 0)
(1.00088 0.00332564 0)
(1.00141 0.00354301 0)
(1.00174 0.00392857 0)
(1.00213 0.00414506 0)
(1.00231 0.00433607 0)
(1.00051 0.000330178 0)
(0.999687 0.00029663 0)
(1.00078 0.000151822 0)
(0.999442 0.000718591 0)
(1.0002 0.00147655 0)
(1.00032 0.0016939 0)
(1.00133 0.00163634 0)
(1.00062 0.00182828 0)
(1.00077 0.00183603 0)
(1.00082 0.00161609 0)
(1.00131 0.00134693 0)
(1.00082 0.00161955 0)
(1.00053 0.00210703 0)
(1.00031 0.00272049 0)
(1.00076 0.0029924 0)
(1.00118 0.00328057 0)
(1.00174 0.00342638 0)
(1.00211 0.00371167 0)
(1.00245 0.00390125 0)
(1.00259 0.00408499 0)
(1.00051 0.000299753 0)
(0.999656 0.000365597 0)
(1.00082 0.000257867 0)
(0.999612 0.000742984 0)
(1.00034 0.00148543 0)
(1.00038 0.00169659 0)
(1.00141 0.00157991 0)
(1.00075 0.00181008 0)
(1.00084 0.00193865 0)
(1.00084 0.00181792 0)
(1.00142 0.00153345 0)
(1.00111 0.0017124 0)
(1.00093 0.00210311 0)
(1.0007 0.00267646 0)
(1.00108 0.00294967 0)
(1.00146 0.00322151 0)
(1.00202 0.00332983 0)
(1.00243 0.00353294 0)
(1.00276 0.00365779 0)
(1.00286 0.0038536 0)
(1.00051 0.000271512 0)
(0.999629 0.000430704 0)
(1.00084 0.000365092 0)
(0.999771 0.000770793 0)
(1.00048 0.00147983 0)
(1.00043 0.0017219 0)
(1.00148 0.00155425 0)
(1.0009 0.00176992 0)
(1.00095 0.00199337 0)
(1.00088 0.00198828 0)
(1.00151 0.00171904 0)
(1.00136 0.00180876 0)
(1.00131 0.00209382 0)
(1.00108 0.00260899 0)
(1.0014 0.00288082 0)
(1.00175 0.00313983 0)
(1.00229 0.00322246 0)
(1.0027 0.00338925 0)
(1.00306 0.00342999 0)
(1.00313 0.00362192 0)
(1.00051 0.000249718 0)
(0.999608 0.00048188 0)
(1.00086 0.000474956 0)
(0.999915 0.000802124 0)
(1.00062 0.0014573 0)
(1.00048 0.0017505 0)
(1.00153 0.00157287 0)
(1.00105 0.0017281 0)
(1.00109 0.00199934 0)
(1.00095 0.00212311 0)
(1.00159 0.00188598 0)
(1.00157 0.00191434 0)
(1.00164 0.00209072 0)
(1.00145 0.0025309 0)
(1.00172 0.00278702 0)
(1.00202 0.00304347 0)
(1.00254 0.00309519 0)
(1.00293 0.00325324 0)
(1.00332 0.00323121 0)
(1.00339 0.0033806 0)
(1.0005 0.000235078 0)
(0.999592 0.000522616 0)