/*--------------------------------*- C++ -*----------------------------------*\
| =========                 |                                                 |
| \\      /  F ield         | OpenFOAM: The Open Source CFD Toolbox           |
|  \\    /   O peration     | Version:  v1812                                 |
|   \\  /    A nd           | Web:      www.OpenFOAM.com                      |
|    \\/     M anipulation  |                                                 |
\*---------------------------------------------------------------------------*/
FoamFile
{
    version     2.0;
    format      ascii;
    class       volScalarField;
    location    "9.8";
    object      p;
}
// * * * * * * * * * * * * * * * * * * * * * * * * * * * * * * * * * * * * * //

dimensions      [0 2 -2 0 0 0 0];


internalField   nonuniform List<scalar> 
9600
(
-1.30339e-10
0.00180182
0.00131907
0.00413615
0.00790051
0.00793268
0.00764771
0.0129745
0.0130657
0.0131283
0.0129969
0.0144991
0.0154964
0.0161365
0.0167267
0.0172584
0.0191839
0.0217178
0.0237377
0.0293124
2.21109e-06
0.00176789
0.00133036
0.00431088
0.00786173
0.00788675
0.0076546
0.0129783
0.0130685
0.0131332
0.0129917
0.0144969
0.0155055
0.0161379
0.0167211
0.0172606
0.0191892
0.021695
0.0237819
0.0287324
3.314e-07
0.00172746
0.00135168
0.00438566
0.0077915
0.00783731
0.00767059
0.0129774
0.0130736
0.0131326
0.0129848
0.014497
0.0155159
0.0161389
0.0167147
0.0172682
0.0191901
0.0216709
0.0237622
0.028178
-4.15745e-06
0.00169636
0.001387
0.00444352
0.00771044
0.00780513
0.00769659
0.0129685
0.0130826
0.0131199
0.0129797
0.0144956
0.0155211
0.0161452
0.016707
0.0172772
0.0191886
0.0216392
0.0237259
0.0276462
-8.60395e-06
0.00168114
0.00143945
0.00447901
0.00762581
0.00779583
0.00773641
0.0129501
0.0130972
0.0130926
0.012975
0.0144897
0.0155242
0.0161547
0.0166981
0.017286
0.0191878
0.0216018
0.0236684
0.0271344
-1.05641e-05
0.00168771
0.0015099
0.00448693
0.00754521
0.007813
0.00779164
0.0129222
0.0131184
0.0130521
0.0129693
0.0144814
0.0155279
0.016164
0.0166904
0.0172945
0.0191884
0.0215593
0.0235882
0.0266393
-7.57347e-06
0.00171834
0.00159386
0.00446931
0.00748028
0.00785505
0.00786008
0.0128871
0.0131457
0.0130027
0.0129637
0.0144728
0.0155328
0.0161724
0.0166848
0.0173021
0.019189
0.0215117
0.0234845
0.0261617
2.09917e-06
0.00177051
0.001684
0.0044346
0.00743895
0.00791457
0.00793633
0.0128477
0.0131782
0.0129503
0.0129593
0.0144648
0.0155395
0.0161801
0.0166805
0.0173083
0.0191871
0.0214586
0.0233584
0.025702
1.89623e-05
0.00183963
0.00177379
0.00439405
0.0074211
0.0079823
0.00801347
0.0128057
0.013215
0.0128996
0.0129564
0.0144578
0.0155478
0.0161865
0.0166761
0.0173126
0.0191799
0.0213997
0.0232115
0.0252576
4.24469e-05
0.00192183
0.00186024
0.00435779
0.00742143
0.00805114
0.008085
0.0127618
0.013255
0.0128532
0.0129553
0.0144514
0.0155569
0.0161913
0.0166705
0.0173145
0.0191654
0.0213347
0.0230453
0.0248244
7.14922e-05
0.00201464
0.00194377
0.00433212
0.00743416
0.00811729
0.00814644
0.0127158
0.0132974
0.0128122
0.0129563
0.0144453
0.0155661
0.0161943
0.0166628
0.0173138
0.0191426
0.0212629
0.0228614
0.0243993
0.000105178
0.00211633
0.00202628
0.00431893
0.00745511
0.00817941
0.00819608
0.0126678
0.0133411
0.0127769
0.0129588
0.0144395
0.015575
0.0161957
0.0166519
0.0173106
0.0191109
0.0211829
0.0226627
0.0239807
0.000143052
0.00222509
0.0021095
0.004317
0.00748157
0.00823723
0.00823483
0.0126177
0.0133851
0.0127463
0.012962
0.0144341
0.015583
0.0161957
0.0166375
0.0173047
0.0190701
0.0210934
0.0224528
0.0235673
0.000185071
0.0023388
0.00219437
0.00432373
0.00751167
0.00829085
0.00826496
0.012566
0.0134285
0.0127192
0.0129647
0.0144295
0.01559
0.016195
0.0166192
0.0172959
0.0190212
0.0209933
0.0222345
0.0231586
0.000231386
0.00245542
0.00228127
0.00433656
0.007544
0.00834043
0.00828912
0.0125131
0.013471
0.0126946
0.0129655
0.0144257
0.0155958
0.0161942
0.0165966
0.0172835
0.0189654
0.0208814
0.0220091
0.0227549
0.000282185
0.00257339
0.00237041
0.00435371
0.0075776
0.00838631
0.00830991
0.0124594
0.0135123
0.0126719
0.0129635
0.0144231
0.0156003
0.0161935
0.01657
0.0172668
0.0189039
0.0207569
0.0217778
0.0223578
0.00033764
0.00269164
0.00246204
0.00437415
0.00761191
0.00842897
0.00832944
0.0124052
0.0135522
0.0126508
0.0129582
0.0144218
0.0156034
0.0161926
0.0165398
0.0172447
0.0188373
0.0206197
0.0215413
0.0219691
0.000397887
0.00280947
0.00255655
0.0043975
0.00764664
0.00846891
0.00834912
0.012351
0.0135903
0.0126315
0.0129492
0.014422
0.0156052
0.016191
0.0165068
0.0172162
0.0187656
0.0204706
0.0212996
0.0215899
0.00046305
0.0029265
0.00265433
0.00442367
0.0076816
0.0085066
0.00836927
0.0122969
0.0136263
0.0126144
0.0129362
0.0144236
0.0156058
0.0161877
0.0164713
0.0171806
0.0186886
0.0203111
0.0210527
0.0212206
0.000533264
0.00304244
0.00275587
0.00445276
0.00771666
0.00854244
0.00839192
0.0122433
0.0136601
0.0126001
0.0129194
0.0144265
0.0156055
0.0161818
0.0164338
0.0171373
0.0186058
0.0201427
0.0208003
0.0208622
0.000608697
0.00315704
0.00286159
0.0044851
0.00775162
0.00857674
0.00841653
0.0121904
0.0136913
0.0125888
0.0128985
0.0144304
0.0156048
0.0161728
0.016394
0.0170859
0.0185171
0.0199665
0.0205422
0.020515
0.000689551
0.00327009
0.00297169
0.00452112
0.00778631
0.00860976
0.00844325
0.0121386
0.0137197
0.0125809
0.0128736
0.0144347
0.0156042
0.0161602
0.0163519
0.017026
0.0184221
0.0197847
0.0202779
0.0201781
0.000776037
0.00338146
0.00308625
0.00456115
0.00782058
0.00864175
0.00847215
0.0120881
0.0137448
0.0125764
0.0128451
0.0144391
0.0156037
0.0161434
0.0163075
0.0169575
0.0183197
0.0195997
0.0200079
0.0198482
0.000868379
0.00349102
0.00320531
0.00460551
0.00785424
0.00867294
0.00850317
0.0120391
0.0137646
0.0125748
0.012813
0.0144431
0.0156036
0.0161221
0.0162608
0.0168803
0.0182085
0.0194135
0.0197348
0.0195206
0.000966809
0.00359872
0.00332875
0.00465454
0.00788703
0.00870351
0.00853626
0.0119916
0.0137831
0.012576
0.0127772
0.0144464
0.0156042
0.0160957
0.0162116
0.0167953
0.0180871
0.0192273
0.0194629
0.0191907
0.00107152
0.00370459
0.00345631
0.00470857
0.00791885
0.00873363
0.00857136
0.0119456
0.0137996
0.0125799
0.0127375
0.0144486
0.0156059
0.0160633
0.0161591
0.0167035
0.0179545
0.0190408
0.0191979
0.0188574
0.0011827
0.00380878
0.00358764
0.00476783
0.00794974
0.0087635
0.00860836
0.0119006
0.0138143
0.0125872
0.0126935
0.0144487
0.0156098
0.0160244
0.0161022
0.0166069
0.0178102
0.0188515
0.0189445
0.0185261
0.00130049
0.00391157
0.00372232
0.00483252
0.00797976
0.00879324
0.00864741
0.0118565
0.013827
0.0125983
0.0126448
0.0144455
0.0156172
0.0159788
0.0160391
0.0165076
0.0176547
0.0186546
0.0187042
0.0182084
0.00142497
0.00401334
0.00385996
0.00490282
0.00800897
0.00882286
0.00868886
0.0118129
0.0138369
0.0126139
0.0125914
0.0144373
0.0156292
0.0159277
0.0159675
0.0164074
0.0174916
0.0184458
0.0184719
0.0179149
0.00155609
0.00411459
0.00400019
0.00497887
0.00803758
0.00885237
0.00873291
0.0117698
0.0138439
0.0126344
0.0125335
0.0144217
0.015646
0.015873
0.0158851
0.0163059
0.0173259
0.0182259
0.0182386
0.0176478
0.00169376
0.00421587
0.0041427
0.00506063
0.00806587
0.0088817
0.00877977
0.0117275
0.0138475
0.0126604
0.0124724
0.0143962
0.0156664
0.0158172
0.0157908
0.0162009
0.0171603
0.0179998
0.0179991
0.0173996
0.0018378
0.0043178
0.00428735
0.005148
0.00809421
0.0089107
0.0088295
0.0116864
0.0138467
0.0126919
0.0124094
0.0143589
0.0156888
0.0157623
0.0156844
0.0160911
0.0169958
0.0177716
0.0177547
0.0171606
0.00198801
0.00442109
0.00443401
0.00524079
0.00812299
0.00893911
0.00888186
0.0116471
0.0138405
0.0127286
0.0123463
0.0143087
0.0157116
0.01571
0.015565
0.0159758
0.0168347
0.0175421
0.0175082
0.0169265
0.00214415
0.00452641
0.00458262
0.0053386
0.00815308
0.00896693
0.00893647
0.0116106
0.0138281
0.0127693
0.0122844
0.0142445
0.0157329
0.0156626
0.015432
0.0158534
0.0166819
0.017312
0.0172576
0.0166977
0.00230603
0.00463426
0.00473353
0.00544088
0.00818509
0.00899447
0.00899259
0.0115776
0.0138102
0.012813
0.0122249
0.0141654
0.0157504
0.0156227
0.0152856
0.015719
0.0165416
0.0170873
0.0169981
0.0164719
0.00247345
0.00474493
0.00488729
0.00554718
0.00821909
0.00902216
0.00904945
0.0115487
0.0137868
0.0128582
0.012169
0.014071
0.0157609
0.0155928
0.0151284
0.015566
0.0164128
0.0168798
0.016729
0.0162405
0.00264622
0.00485848
0.00504483
0.00565704
0.00825503
0.00905096
0.00910605
0.0115238
0.0137586
0.012904
0.0121177
0.0139618
0.0157606
0.0155747
0.0149653
0.0153887
0.0162888
0.0166998
0.0164588
0.0159938
0.00282428
0.00497477
0.00520735
0.00577021
0.00829218
0.00908222
0.00916144
0.0115019
0.0137272
0.0129496
0.0120713
0.0138382
0.015746
0.0155696
0.0148031
0.0151844
0.0161593
0.0165515
0.0162028
0.0157278
0.00300773
0.00509328
0.00537596
0.00588713
0.00832904
0.0091172
0.00921554
0.0114818
0.0136943
0.0129951
0.0120299
0.0137003
0.0157131
0.0155777
0.0146499
0.0149529
0.0160131
0.0164324
0.0159765
0.0154476
0.00319673
0.00521315
0.00555151
0.00600892
0.00836385
0.00915695
0.0092691
0.0114614
0.0136603
0.0130416
0.0119949
0.0135482
0.0156563
0.0155972
0.0145153
0.0146975
0.0158384
0.016335
0.0157934
0.0151659
0.00339169
0.0053335
0.00573396
0.00613715
0.00839539
0.00920197
0.00932342
0.011439
0.0136238
0.0130898
0.0119692
0.0133835
0.0155699
0.015623
0.0144092
0.0144271
0.015624
0.0162455
0.0156635
0.0149032
0.00359308
0.00545372
0.00592248
0.00627359
0.00842291
0.00925199
0.00938054
0.0114139
0.0135838
0.01314
0.0119554
0.0132094
0.0154487
0.0156463
0.0143393
0.0141565
0.0153635
0.0161435
0.0155885
0.0146858
0.00380135
0.00557336
0.00611559
0.00642101
0.00844613
0.00930521
0.00944278
0.0113861
0.0135383
0.0131904
0.0119565
0.013032
0.0152898
0.0156561
0.0143072
0.0139028
0.0150613
0.0160077
0.0155543
0.0145371
0.0040169
0.00569229
0.00631102
0.00658248
0.0084662
0.00935797
0.00951245
0.0113568
0.0134836
0.0132377
0.0119752
0.0128579
0.0150948
0.0156412
0.0143074
0.0136813
0.0147308
0.0158249
0.015536
0.0144655
0.00423999
0.00581084
0.00650591
0.00676012
0.00848558
0.009406
0.00959053
0.0113288
0.0134164
0.0132786
0.0120114
0.0126937
0.0148696
0.0155929
0.0143305
0.013502
0.0143875
0.0155931
0.0155093
0.0144581
0.00447082
0.00592957
0.00669698
0.00695517
0.00850846
0.00944558
0.00967594
0.0113061
0.0133363
0.0133085
0.0120624
0.012546
0.0146219
0.0155065
0.0143653
0.0133704
0.0140471
0.015316
0.0154581
0.0144915
0.00470948
0.00604979
0.00688062
0.0071667
0.0085407
0.00947419
0.00976435
0.0112925
0.0132462
0.0133206
0.0121229
0.0124218
0.0143625
0.0153818
0.0143986
0.013286
0.0137269
0.0149989
0.0153713
0.0145443
0.0049556
0.00617392
0.00705426
0.00739128
0.00858821
0.00949083
0.00985313
0.011291
0.0131484
0.013311
0.0121861
0.0123233
0.0141041
0.0152246
0.0144186
0.0132414
0.0134439
0.014653
0.0152379
0.0145989
0.00520862
0.00630433
0.0072162
0.00762379
0.00865638
0.00949667
0.00993564
0.0113023
0.0130511
0.0132823
0.012243
0.0122463
0.0138559
0.0150433
0.0144203
0.0132257
0.0132068
0.0142961
0.0150509
0.0146387
0.00546782
0.00644333
0.00736537
0.00785783
0.00874942
0.00949745
0.0100013
0.0113238
0.0129654
0.0132387
0.0122871
0.0121863
0.0136214
0.0148458
0.0144051
0.0132295
0.0130147
0.013945
0.0148118
0.0146469
0.00573201
0.00659324
0.00750227
0.00808661
0.00886938
0.00950004
0.010047
0.011349
0.0128976
0.0131873
0.0123173
0.0121375
0.0134011
0.0146367
0.0143734
0.0132485
0.012865
0.0136131
0.0145311
0.0146095
0.00599965
0.00675607
0.00762916
0.00830328
0.00901514
0.00951361
0.0100662
0.0113679
0.0128475
0.0131415
0.0123376
0.0120938
0.0131957
0.0144188
0.0143219
0.0132772
0.0127571
0.013312
0.014224
0.014518
0.00626891
0.0069327
0.00775039
0.00850238
0.00918152
0.00954791
0.0100642
0.0113729
0.0128111
0.0131124
0.0123548
0.0120529
0.0130024
0.0141952
0.0142495
0.0133082
0.0126884
0.0130524
0.0139083
0.0143707
0.00653881
0.00712337
0.00787004
0.00867968
0.00936038
0.00961062
0.0100503
0.0113482
0.0127784
0.0131038
0.0123811
0.0120192
0.0128179
0.0139659
0.0141573
0.0133366
0.0126521
0.0128396
0.0136034
0.0141767
0.00680765
0.00732838
0.00799485
0.00883321
0.00953976
0.009705
0.0100367
0.0112893
0.0127314
0.0131121
0.0124267
0.011999
0.0126453
0.0137295
0.0140442
0.0133598
0.0126416
0.0126715
0.0133242
0.0139552
0.00707361
0.00754397
0.00813013
0.00896802
0.00971109
0.00982821
0.0100341
0.0111543
0.0126559
0.0131322
0.0124955
0.0119995
0.0124917
0.0134902
0.0139059
0.0133722
0.0126537
0.0125447
0.0130771
0.0137268
0.00733798
0.00776436
0.00827582
0.00908236
0.00986491
0.00997582
0.0100627
0.011053
0.0125473
0.013149
0.0125864
0.0120257
0.0123615
0.0132572
0.0137432
0.0133647
0.0126828
0.0124578
0.0128625
0.0135033
0.00760186
0.00801259
0.00843515
0.00916392
0.00998356
0.0101406
0.0101364
0.0109617
0.0124054
0.0131386
0.0126927
0.0120821
0.0122593
0.0130376
0.0135645
0.0133312
0.0127186
0.0124097
0.0126816
0.013288
0.00786095
0.00824487
0.00860932
0.00924978
0.0100796
0.0103048
0.0102481
0.0108949
0.0122385
0.0130858
0.0127961
0.0121678
0.0121921
0.0128361
0.013377
0.0132733
0.0127501
0.012396
0.012541
0.0130851
0.00811497
0.00848293
0.00879647
0.00934145
0.0101538
0.0104549
0.0103852
0.0108628
0.0120652
0.0129916
0.0128765
0.0122765
0.0121659
0.0126602
0.0131849
0.0131938
0.0127698
0.0124073
0.0124474
0.0129049
0.00836417
0.00871587
0.00899382
0.00944183
0.0102128
0.0105862
0.0105374
0.0108702
0.0119089
0.0128642
0.0129219
0.012394
0.0121785
0.0125219
0.0129961
0.0130939
0.0127751
0.0124305
0.0123978
0.0127599
0.00860594
0.00894024
0.00919947
0.00956051
0.0102638
0.0106935
0.0106905
0.0109138
0.0117831
0.0127156
0.0129277
0.0125066
0.0122227
0.012426
0.0128245
0.0129778
0.0127636
0.0124554
0.0123793
0.0126575
0.00884115
0.00915239
0.00940926
0.00969494
0.0103144
0.0107799
0.0108385
0.0109859
0.0116954
0.0125654
0.0128974
0.0126032
0.0122893
0.012368
0.0126809
0.0128558
0.0127337
0.0124763
0.0123785
0.0125955
0.00907633
0.00937135
0.0096056
0.00982963
0.0103686
0.010852
0.0109782
0.0110776
0.0116473
0.0124301
0.0128387
0.0126753
0.0123731
0.0123488
0.0125708
0.0127411
0.0126894
0.0124919
0.0123881
0.0125622
0.00930491
0.00957183
0.00979642
0.00997718
0.0104332
0.0109113
0.0110995
0.0111971
0.0116369
0.0123195
0.0127642
0.0127191
0.0124631
0.0123679
0.0124963
0.0126401
0.0126357
0.0125005
0.0124059
0.0125467
0.00952569
0.00977079
0.00998203
0.0101283
0.0105057
0.010961
0.0112011
0.0113073
0.0116583
0.0122399
0.0126882
0.0127395
0.0125452
0.0124136
0.0124597
0.0125617
0.0125814
0.0125018
0.0124318
0.0125495
0.00973742
0.00995697
0.0101595
0.0102824
0.010589
0.011008
0.0112851
0.011413
0.0117041
0.0121926
0.0126235
0.0127468
0.0126166
0.0124743
0.0124609
0.0125169
0.0125376
0.0124973
0.0124603
0.0125701
0.00994327
0.0101407
0.0103218
0.0104279
0.0106808
0.0110578
0.0113557
0.0115115
0.0117659
0.0121751
0.0125755
0.0127489
0.0126829
0.0125473
0.0124942
0.0125105
0.0125163
0.012494
0.0124872
0.0126016
0.0101374
0.0103155
0.0104762
0.0105692
0.0107781
0.0111095
0.0114139
0.0116
0.0118382
0.0121847
0.0125497
0.0127536
0.0127479
0.0126349
0.0125559
0.0125419
0.0125299
0.0125067
0.0125171
0.0126406
0.0103148
0.0104724
0.0106253
0.0107093
0.0108792
0.0111651
0.0114651
0.0116775
0.0119131
0.0122174
0.0125505
0.0127692
0.012814
0.0127387
0.0126498
0.0126117
0.0125875
0.0125544
0.0125645
0.0126909
0.0104864
0.0106312
0.0107531
0.0108242
0.0109757
0.0112272
0.0115154
0.0117467
0.0119854
0.0122635
0.0125764
0.0128045
0.0128873
0.0128584
0.0127808
0.0127259
0.0126944
0.0126552
0.0126538
0.0127673
0.0106382
0.0107712
0.010874
0.0109337
0.011068
0.0112911
0.0115637
0.0118098
0.0120554
0.0123171
0.0126186
0.0128617
0.0129768
0.012994
0.0129475
0.0128885
0.0128536
0.0128245
0.0128243
0.0129204
0.0107707
0.0108952
0.0109867
0.0110305
0.0111434
0.0113501
0.011607
0.0118636
0.0121213
0.0123799
0.0126753
0.0129306
0.0130803
0.0131382
0.0131314
0.013079
0.0130409
0.013034
0.013062
0.0131882
0.0108865
0.0110188
0.0110951
0.0111181
0.0112185
0.0113766
0.0116334
0.0118918
0.0121849
0.0124858
0.0128053
0.0131033
0.0133167
0.0134388
0.0135002
0.0134869
0.0134117
0.0133091
0.0132218
0.0132282
0.0109663
0.0110578
0.0111368
0.0111796
0.0113443
0.0115229
0.0116988
0.0118624
0.0120283
0.0122535
0.0126344
0.0130643
0.0134111
0.0136232
0.0137831
0.013978
0.0142587
0.0146138
0.0149806
0.0152613
0.0111035
0.0112295
0.0112328
0.0112126
0.0112526
0.011468
0.0117695
0.0121286
0.0124537
0.0127415
0.0130187
0.0132748
0.0135193
0.0137541
0.0139742
0.0141932
0.0143765
0.0145696
0.0147603
0.0148808
0.0109622
0.0110465
0.0112469
0.0114171
0.0116199
0.0117602
0.0119863
0.0121605
0.0123575
0.0125761
0.0128531
0.0131207
0.0133827
0.0136571
0.0139426
0.0142713
0.0146591
0.0150559
0.0154209
0.0156713
0.0112306
0.0114051
0.011474
0.011489
0.0116055
0.0118097
0.012018
0.0122643
0.0125617
0.0128848
0.0131975
0.0134898
0.0137222
0.0139071
0.0140143
0.0140135
0.0139283
0.0137614
0.0135625
0.0133998
0.011041
0.0111518
0.0113827
0.0115977
0.0118206
0.0119718
0.0121751
0.0123686
0.0125866
0.0128112
0.0130567
0.0133165
0.0135853
0.013854
0.0141714
0.0145243
0.0149051
0.0152764
0.0155851
0.0157496
0.0112088
0.0113873
0.0115927
0.0117451
0.0119185
0.0120651
0.0122498
0.0124295
0.0126627
0.0129457
0.0132518
0.0135362
0.0138175
0.0140524
0.0142626
0.0144668
0.0146618
0.0148379
0.0149628
0.0149782
0.0318279
0.0252451
0.0170283
0.0111418
0.00963044
0.010594
0.0117431
0.0125444
0.0131303
0.0135331
0.013795
0.014047
0.0142937
0.0144926
0.0146838
0.01487
0.0149879
0.015067
0.0152556
0.0156134
0.0160017
0.0162943
0.0165193
0.0167636
0.0170721
0.0174136
0.0177106
0.0179649
0.0182543
0.0185679
0.0188283
0.0190818
0.0193989
0.0197681
0.0201647
0.0205801
0.0209905
0.0213691
0.0217289
0.0220876
0.0224468
0.022803
0.0231413
0.0234454
0.0237528
0.0241078
0.0244958
0.0248668
0.0252274
0.0256449
0.0260972
0.0265268
0.026958
0.0274648
0.0280029
0.0284924
0.0289014
0.02925
0.0296197
0.0301028
0.0306826
0.0312794
0.0318496
0.0323798
0.0329128
0.0334475
0.0339713
0.0345133
0.0351078
0.0356794
0.0362781
0.0369079
0.0375424
0.0381634
0.0388156
0.0394899
0.0401775
0.0408818
0.0416006
0.042345
0.0430885
0.0438938
0.0446765
0.0454702
0.0462716
0.0471171
0.0479943
0.0488572
0.0497279
0.0505868
0.0514661
0.052412
0.0533307
0.0542938
0.0552371
0.056195
0.0571266
0.0580206
0.058855
0.0595112
0.0310356
0.0250929
0.017112
0.0112915
0.00972065
0.0106366
0.0117697
0.012563
0.013144
0.0135437
0.0138033
0.0140539
0.0142998
0.014498
0.0146887
0.0148745
0.014992
0.0150703
0.0152583
0.0156158
0.0160041
0.0162966
0.0165212
0.0167652
0.0170735
0.017415
0.0177119
0.0179661
0.0182553
0.018569
0.0188293
0.0190827
0.0193998
0.0197689
0.0201656
0.0205809
0.0209913
0.0213699
0.0217297
0.0220884
0.0224475
0.0228038
0.0231421
0.0234461
0.0237534
0.0241084
0.0244964
0.0248674
0.025228
0.0256453
0.0260977
0.0265272
0.0269584
0.0274652
0.0280032
0.0284928
0.0289018
0.0292503
0.02962
0.0301031
0.0306829
0.0312796
0.0318499
0.03238
0.032913
0.0334477
0.0339715
0.0345135
0.035108
0.0356796
0.0362783
0.0369081
0.0375426
0.0381636
0.0388157
0.03949
0.0401776
0.0408819
0.0416007
0.0423452
0.0430886
0.0438939
0.0446767
0.0454703
0.0462717
0.0471173
0.0479944
0.0488573
0.049728
0.0505869
0.0514662
0.0524121
0.0533308
0.0542938
0.0552372
0.0561951
0.0571267
0.0580207
0.0588551
0.0595113
0.0303157
0.0249384
0.0172741
0.0115615
0.00987533
0.0106911
0.0117951
0.0125834
0.0131613
0.0135575
0.0138141
0.0140624
0.0143067
0.0145036
0.0146935
0.0148789
0.0149959
0.0150737
0.0152611
0.0156183
0.0160065
0.0162987
0.0165232
0.0167669
0.0170749
0.0174163
0.0177132
0.0179671
0.0182563
0.01857
0.0188302
0.0190834
0.0194004
0.0197696
0.0201663
0.0205816
0.0209921
0.0213706
0.0217304
0.0220891
0.0224481
0.0228044
0.0231427
0.0234467
0.023754
0.0241089
0.0244969
0.0248679
0.0252284
0.0256458
0.0260981
0.0265276
0.0269587
0.0274655
0.0280036
0.0284932
0.0289022
0.0292507
0.0296202
0.0301033
0.0306831
0.0312799
0.0318501
0.0323803
0.0329133
0.0334479
0.0339717
0.0345137
0.0351082
0.0356798
0.0362785
0.0369082
0.0375428
0.0381638
0.0388159
0.0394902
0.0401778
0.040882
0.0416008
0.0423453
0.0430888
0.0438941
0.0446768
0.0454704
0.0462718
0.0471174
0.0479945
0.0488574
0.0497281
0.050587
0.0514663
0.0524122
0.0533309
0.0542939
0.0552372
0.0561952
0.0571268
0.0580207
0.0588552
0.0595113
0.0296234
0.0247732
0.0174795
0.0119051
0.0100904
0.0107689
0.0118316
0.0126143
0.0131879
0.0135778
0.0138291
0.014074
0.0143161
0.0145114
0.0146999
0.0148844
0.0150011
0.0150787
0.0152655
0.0156218
0.0160093
0.0163014
0.0165258
0.0167694
0.017077
0.017418
0.0177147
0.0179684
0.0182575
0.0185711
0.0188311
0.0190841
0.0194011
0.0197703
0.020167
0.0205824
0.0209928
0.0213713
0.0217311
0.0220897
0.0224488
0.022805
0.0231433
0.0234472
0.0237545
0.0241094
0.0244974
0.0248684
0.0252288
0.0256462
0.0260986
0.0265281
0.0269591
0.0274658
0.028004
0.0284937
0.0289027
0.029251
0.0296204
0.0301035
0.0306834
0.0312802
0.0318504
0.0323805
0.0329135
0.0334482
0.0339719
0.0345139
0.0351084
0.0356799
0.0362786
0.0369084
0.0375429
0.0381639
0.038816
0.0394903
0.0401779
0.0408822
0.041601
0.0423454
0.0430889
0.0438942
0.0446769
0.0454705
0.0462719
0.0471174
0.0479947
0.0488575
0.0497282
0.0505871
0.0514664
0.0524122
0.0533309
0.054294
0.0552373
0.0561953
0.0571269
0.0580208
0.0588553
0.0595114
0.028931
0.0245869
0.0176968
0.0122733
0.0103317
0.0108592
0.0118746
0.0126537
0.0132233
0.0136051
0.0138495
0.0140897
0.0143289
0.0145223
0.0147089
0.0148918
0.0150084
0.0150867
0.0152729
0.015627
0.0160127
0.0163046
0.0165298
0.0167735
0.0170803
0.0174205
0.0177169
0.0179705
0.0182594
0.0185727
0.0188323
0.0190849
0.0194017
0.0197709
0.0201678
0.0205832
0.0209935
0.0213719
0.0217318
0.0220905
0.0224496
0.0228057
0.0231439
0.0234479
0.0237551
0.02411
0.024498
0.0248689
0.0252294
0.0256467
0.0260991
0.0265285
0.0269595
0.0274662
0.0280045
0.0284942
0.0289032
0.0292514
0.0296206
0.0301036
0.0306837
0.0312805
0.0318508
0.0323808
0.0329138
0.0334484
0.0339722
0.034514
0.0351086
0.0356801
0.0362788
0.0369086
0.0375431
0.0381641
0.0388161
0.0394905
0.040178
0.0408823
0.0416011
0.0423455
0.043089
0.0438943
0.0446771
0.0454706
0.046272
0.0471175
0.0479948
0.0488576
0.0497283
0.0505872
0.0514665
0.0524123
0.053331
0.0542941
0.0552374
0.0561953
0.057127
0.058021
0.0588556
0.0595115
0.0282436
0.0243783
0.017907
0.0126452
0.0105857
0.0109555
0.0119184
0.0126963
0.0132641
0.0136371
0.0138733
0.0141079
0.0143438
0.0145357
0.0147205
0.0149014
0.0150181
0.015098
0.0152838
0.0156344
0.0160168
0.0163083
0.0165351
0.0167794
0.0170851
0.0174239
0.0177199
0.0179738
0.0182624
0.018575
0.018834
0.0190861
0.0194025
0.0197716
0.0201686
0.020584
0.0209941
0.0213724
0.0217324
0.0220915
0.0224505
0.0228064
0.0231446
0.0234486
0.0237559
0.0241107
0.0244986
0.0248695
0.02523
0.0256473
0.0260996
0.026529
0.02696
0.0274667
0.028005
0.0284947
0.0289038
0.0292518
0.0296207
0.0301038
0.030684
0.0312809
0.0318511
0.0323812
0.0329141
0.0334487
0.0339724
0.0345143
0.0351088
0.0356804
0.036279
0.0369088
0.0375433
0.0381642
0.0388163
0.0394906
0.0401782
0.0408825
0.0416012
0.0423457
0.0430891
0.0438944
0.0446772
0.0454707
0.0462721
0.0471177
0.0479949
0.0488578
0.0497285
0.0505873
0.0514666
0.0524124
0.0533311
0.0542942
0.0552375
0.0561955
0.0571272
0.0580212
0.0588559
0.0595117
0.0275715
0.0241469
0.0181001
0.0130142
0.0108514
0.0110589
0.0119627
0.0127402
0.0133083
0.0136726
0.0138995
0.0141275
0.0143598
0.0145504
0.0147336
0.0149127
0.0150301
0.0151125
0.015298
0.015644
0.0160217
0.0163126
0.0165415
0.0167871
0.0170914
0.0174282
0.0177238
0.0179782
0.0182666
0.0185785
0.0188367
0.019088
0.0194036
0.0197724
0.0201695
0.0205848
0.0209945
0.0213725
0.0217328
0.0220924
0.0224516
0.0228072
0.0231452
0.0234495
0.0237569
0.0241116
0.0244992
0.0248702
0.0252307
0.025648
0.0261002
0.0265296
0.0269605
0.0274673
0.0280056
0.0284954
0.0289045
0.0292522
0.029621
0.030104
0.0306845
0.0312814
0.0318516
0.0323816
0.0329145
0.0334491
0.0339728
0.0345146
0.0351091
0.0356806
0.0362792
0.036909
0.0375435
0.0381644
0.0388165
0.0394908
0.0401783
0.0408826
0.0416014
0.0423458
0.0430892
0.0438946
0.0446774
0.0454709
0.0462723
0.0471178
0.0479951
0.0488579
0.0497286
0.0505874
0.0514667
0.0524126
0.0533313
0.0542943
0.0552377
0.0561956
0.0571274
0.0580214
0.0588564
0.0595119
0.0269206
0.0238921
0.018271
0.0133789
0.0111307
0.0111723
0.012008
0.0127846
0.0133553
0.0137112
0.0139277
0.0141482
0.0143766
0.0145659
0.0147476
0.0149251
0.0150436
0.0151291
0.0153146
0.0156553
0.0160274
0.0163173
0.0165488
0.0167958
0.0170986
0.017433
0.0177282
0.0179834
0.0182719
0.0185829
0.0188405
0.0190909
0.0194055
0.0197737
0.0201707
0.0205857
0.0209947
0.0213722
0.0217329
0.0220933
0.0224527
0.022808
0.0231458
0.0234505
0.0237583
0.0241127
0.0245
0.024871
0.0252317
0.0256488
0.0261007
0.0265301
0.0269612
0.0274679
0.0280062
0.0284962
0.0289054
0.0292528
0.0296212
0.0301043
0.0306849
0.0312819
0.0318521
0.0323821
0.032915
0.0334495
0.0339732
0.0345149
0.0351095
0.035681
0.0362795
0.0369093
0.0375438
0.0381646
0.0388167
0.039491
0.0401785
0.0408828
0.0416015
0.042346
0.0430894
0.0438948
0.0446775
0.045471
0.0462724
0.0471179
0.0479952
0.0488581
0.0497287
0.0505875
0.0514668
0.0524127
0.0533314
0.0542944
0.0552379
0.0561957
0.0571277
0.0580218
0.0588571
0.0595121
0.0262939
0.0236175
0.0184194
0.0137385
0.0114235
0.0112968
0.0120544
0.0128283
0.0134042
0.0137526
0.013958
0.0141701
0.0143942
0.014582
0.0147623
0.0149381
0.0150578
0.0151469
0.0153326
0.0156678
0.0160339
0.0163226
0.0165566
0.0168053
0.0171064
0.0174383
0.017733
0.0179892
0.0182777
0.0185881
0.0188452
0.019095
0.0194082
0.0197755
0.0201723
0.0205869
0.0209948
0.0213716
0.0217326
0.0220939
0.0224537
0.0228085
0.0231462
0.0234517
0.0237601
0.0241142
0.0245009
0.024872
0.0252331
0.0256499
0.0261013
0.0265307
0.0269618
0.0274684
0.0280067
0.0284969
0.0289064
0.0292536
0.0296216
0.0301047
0.0306854
0.0312825
0.0318526
0.0323826
0.0329155
0.03345
0.0339737
0.0345154
0.0351099
0.0356814
0.0362799
0.0369097
0.0375441
0.038165
0.0388169
0.0394913
0.0401788
0.040883
0.0416017
0.0423462
0.0430895
0.0438949
0.0446777
0.0454712
0.0462725
0.047118
0.0479954
0.0488582
0.0497289
0.0505877
0.0514669
0.0524128
0.0533315
0.0542946
0.0552381
0.0561958
0.057128
0.0580224
0.0588579
0.0595125
0.0256935
0.0233289
0.0185456
0.0140895
0.0117266
0.0114325
0.0121022
0.0128706
0.0134543
0.0137966
0.0139904
0.0141933
0.0144127
0.014599
0.0147777
0.0149516
0.0150724
0.0151653
0.0153515
0.0156813
0.0160412
0.0163283
0.0165649
0.0168153
0.0171147
0.0174439
0.0177381
0.0179952
0.0182837
0.0185934
0.0188505
0.0190999
0.0194119
0.019778
0.0201744
0.0205884
0.0209951
0.0213709
0.021732
0.0220941
0.0224544
0.0228088
0.0231465
0.0234529
0.0237622
0.0241161
0.0245021
0.0248733
0.0252349
0.0256514
0.0261021
0.0265313
0.0269626
0.0274688
0.0280068
0.0284975
0.0289074
0.0292546
0.0296223
0.0301052
0.0306861
0.031283
0.031853
0.0323832
0.0329161
0.0334506
0.0339743
0.034516
0.0351104
0.0356819
0.0362805
0.0369102
0.0375445
0.0381654
0.0388173
0.0394916
0.040179
0.0408832
0.0416019
0.0423464
0.0430897
0.0438951
0.0446779
0.0454713
0.0462727
0.0471181
0.0479956
0.0488584
0.049729
0.0505878
0.051467
0.052413
0.0533317
0.0542947
0.0552383
0.056196
0.0571284
0.0580231
0.0588588
0.0595129
0.0251216
0.0230315
0.0186476
0.0144268
0.0120372
0.0115806
0.0121525
0.0129108
0.0135043
0.0138427
0.0140248
0.0142179
0.0144322
0.014617
0.0147939
0.0149656
0.0150873
0.0151841
0.0153713
0.0156958
0.0160491
0.0163346
0.0165736
0.0168257
0.0171234
0.0174498
0.0177434
0.0180015
0.0182899
0.0185989
0.018856
0.0191053
0.0194162
0.0197811
0.020177
0.0205902
0.0209956
0.0213701
0.0217312
0.0220941
0.0224547
0.0228087
0.0231464
0.023454
0.0237645
0.0241182
0.0245034
0.0248749
0.025237
0.0256533
0.0261033
0.0265323
0.0269635
0.027469
0.0280065
0.0284976
0.0289083
0.0292556
0.0296231
0.0301061
0.030687
0.0312836
0.0318534
0.0323837
0.0329167
0.0334512
0.033975
0.0345167
0.0351111
0.0356826
0.0362812
0.0369108
0.0375451
0.0381659
0.0388178
0.0394921
0.0401794
0.0408836
0.0416022
0.0423466
0.0430899
0.0438953
0.0446781
0.0454715
0.0462728
0.0471183
0.0479958
0.0488586
0.0497292
0.050588
0.0514672
0.0524132
0.0533318
0.0542949
0.0552386
0.0561962
0.0571288
0.058024
0.0588601
0.0595135
0.0245777
0.0227281
0.0187234
0.014747
0.0123535
0.0117425
0.0122066
0.0129484
0.0135534
0.0138905
0.0140614
0.014244
0.0144528
0.014636
0.0148111
0.0149801
0.0151025
0.0152035
0.0153919
0.0157112
0.0160579
0.0163413
0.0165826
0.0168365
0.0171325
0.017456
0.0177489
0.0180079
0.0182962
0.0186044
0.0188616
0.0191111
0.019421
0.0197848
0.0201799
0.0205923
0.0209962
0.0213695
0.0217303
0.0220939
0.0224548
0.0228083
0.023146
0.023455
0.0237669
0.0241204
0.0245049
0.0248766
0.0252395
0.0256555
0.0261047
0.0265337
0.0269647
0.0274692
0.0280058
0.0284971
0.0289086
0.0292563
0.0296241
0.0301074
0.0306883
0.0312845
0.0318537
0.032384
0.0329171
0.0334517
0.0339757
0.0345174
0.0351117
0.0356833
0.036282
0.0369115
0.0375458
0.0381667
0.0388185
0.0394927
0.04018
0.040884
0.0416026
0.0423469
0.0430902
0.0438956
0.0446783
0.0454716
0.046273
0.0471184
0.047996
0.0488588
0.0497294
0.0505881
0.0514673
0.0524133
0.053332
0.054295
0.0552389
0.0561963
0.0571293
0.0580251
0.0588615
0.0595142
0.0240588
0.0224209
0.0187738
0.0150482
0.0126733
0.0119188
0.0122661
0.0129838
0.0136009
0.0139399
0.0141003
0.0142719
0.0144747
0.0146561
0.0148292
0.0149953
0.0151182
0.0152235
0.0154135
0.0157277
0.0160674
0.0163486
0.0165922
0.0168478
0.017142
0.0174625
0.0177547
0.0180146
0.0183027
0.01861
0.0188673
0.0191172
0.0194263
0.0197889
0.0201832
0.0205945
0.020997
0.021369
0.0217295
0.0220935
0.0224547
0.0228077
0.0231454
0.0234558
0.0237692
0.0241227
0.0245065
0.0248785
0.0252422
0.025658
0.0261065
0.0265354
0.0269663
0.0274694
0.0280047
0.0284959
0.0289081
0.0292564
0.0296247
0.0301089
0.0306902
0.0312858
0.0318542
0.0323842
0.0329173
0.033452
0.0339763
0.0345181
0.0351124
0.0356842
0.0362829
0.0369123
0.0375465
0.0381675
0.0388194
0.0394935
0.0401807
0.0408846
0.041603
0.0423473
0.0430906
0.0438959
0.0446786
0.0454718
0.0462731
0.0471185
0.0479962
0.0488591
0.0497296
0.0505883
0.0514675
0.0524135
0.0533322
0.0542952
0.0552393
0.0561965
0.0571299
0.0580265