/*--------------------------------*- C++ -*----------------------------------*\
| =========                 |                                                 |
| \\      /  F ield         | OpenFOAM: The Open Source CFD Toolbox           |
|  \\    /   O peration     | Version:  v1906                                 |
|   \\  /    A nd           | Web:      www.OpenFOAM.com                      |
|    \\/     M anipulation  |                                                 |
\*---------------------------------------------------------------------------*/
FoamFile
{
    version     2.0;
    format      ascii;
    class       surfaceScalarField;
    location    "5.1";
    object      phi;
}
// * * * * * * * * * * * * * * * * * * * * * * * * * * * * * * * * * * * * * //

dimensions      [0 3 -1 0 0 0 0];
oriented        oriented;


internalField   nonuniform List<scalar> 
19000
(
1.2212e-06
5.14239e-07
1.22385e-06
3.16418e-07
1.11039e-06
-2.77348e-07
1.08528e-06
-3.27911e-07
1.25823e-06
2.16012e-06
1.10694e-06
1.23997e-06
1.10306e-06
-1.2545e-07
1.14797e-06
6.08352e-07
1.09883e-06
-4.76317e-07
1.17174e-06
4.10022e-07
1.17237e-06
2.77724e-07
1.15776e-06
6.71958e-07
1.15447e-06
5.26758e-07
1.1385e-06
2.98708e-07
1.16043e-06
4.8815e-07
1.1332e-06
1.59211e-07
1.15083e-06
3.99909e-07
1.13422e-06
4.04884e-07
1.12669e-06
3.408e-07
3.20337e-07
1.11524e-06
1.27757e-06
4.6093e-07
1.28088e-06
3.13104e-07
1.16485e-06
-1.61317e-07
1.1419e-06
-3.04958e-07
1.32115e-06
1.98087e-06
1.1662e-06
1.39493e-06
1.16276e-06
-1.22016e-07
1.21267e-06
5.58445e-07
1.16358e-06
-4.27231e-07
1.2357e-06
3.37906e-07
1.23409e-06
2.79331e-07
1.22288e-06
6.83168e-07
1.21322e-06
5.36418e-07
1.20192e-06
3.10009e-07
1.21318e-06
4.7689e-07
1.20076e-06
1.71629e-07
1.19337e-06
4.07304e-07
1.20926e-06
3.88987e-07
1.16465e-06
3.85419e-07
2.87058e-07
1.19792e-06
1.3345e-06
4.09209e-07
1.34174e-06
3.05872e-07
1.22459e-06
-4.41721e-08
1.19507e-06
-2.75432e-07
1.37838e-06
1.79755e-06
1.24385e-06
1.52946e-06
1.2281e-06
-1.06266e-07
1.29172e-06
4.9483e-07
1.23779e-06
-3.73297e-07
1.30792e-06
2.67767e-07
1.30156e-06
2.857e-07
1.30133e-06
6.83394e-07
1.2783e-06
5.59444e-07
1.27586e-06
3.12448e-07
1.27523e-06
4.77522e-07
1.27394e-06
1.72924e-07
1.25568e-06
4.25563e-07
1.26985e-06
3.74811e-07
1.24155e-06
4.13722e-07
2.89159e-07
1.23945e-06
1.39145e-06
3.61867e-07
1.40732e-06
2.89994e-07
1.28983e-06
7.33179e-08
1.25011e-06
-2.35709e-07
1.43392e-06
1.61374e-06
1.33743e-06
1.62595e-06
1.30026e-06
-6.9095e-08
1.37582e-06
4.19266e-07
1.31608e-06
-3.13551e-07
1.37686e-06
2.06989e-07
1.37065e-06
2.91907e-07
1.37826e-06
6.75778e-07
1.34849e-06
5.89213e-07
1.34626e-06
3.14685e-07
1.34338e-06
4.80404e-07
1.34281e-06
1.7349e-07
1.33055e-06
4.37826e-07
1.33272e-06
3.72638e-07
1.32167e-06
4.24773e-07
3.05006e-07
1.30582e-06
1.44784e-06
3.22378e-07
1.47668e-06
2.6116e-07
1.36059e-06
1.8941e-07
1.30863e-06
-1.83753e-07
1.48606e-06
1.43631e-06
1.43939e-06
1.67261e-06
1.37718e-06
-6.87741e-09
1.45314e-06
3.43296e-07
1.39329e-06
-2.53694e-07
1.4354e-06
1.64873e-07
1.43623e-06
2.9108e-07
1.44736e-06
6.64646e-07
1.41957e-06
6.17011e-07
1.41193e-06
3.22316e-07
1.40963e-06
4.82704e-07
1.40669e-06
1.76435e-07
1.40287e-06
4.41646e-07
1.39895e-06
3.76555e-07
1.39454e-06
4.29191e-07
3.23146e-07
1.3764e-06
1.50408e-06
2.9397e-07
1.54684e-06
2.18404e-07
1.43657e-06
2.99675e-07
1.37336e-06
-1.20538e-07
1.53426e-06
1.27541e-06
1.53686e-06
1.67001e-06
1.4574e-06
7.25855e-08
1.51923e-06
2.81464e-07
1.46737e-06
-2.01828e-07
1.4874e-06
1.44839e-07
1.49647e-06
2.82015e-07
1.51053e-06
6.50583e-07
1.48979e-06
6.37747e-07
1.4771e-06
3.35006e-07
1.4732e-06
4.86602e-07
1.46755e-06
1.82089e-07
1.46857e-06
4.40629e-07
1.46308e-06
3.82038e-07
1.46173e-06
4.30542e-07
3.40913e-07
1.44397e-06
1.56194e-06
2.78251e-07
1.615e-06
1.65343e-07
1.5177e-06
3.9697e-07
1.44692e-06
-4.97563e-08
1.58075e-06
1.14158e-06
1.6214e-06
1.62936e-06
1.54051e-06
1.53473e-07
1.5794e-06
2.42576e-07
1.53902e-06
-1.61445e-07
1.54118e-06
1.42671e-07
1.55411e-06
2.69091e-07
1.57186e-06
6.32835e-07
1.56018e-06
6.49428e-07
1.54566e-06
3.49519e-07
1.53869e-06
4.93572e-07
1.52952e-06
1.91259e-07
1.5315e-06
4.38647e-07
1.52548e-06
3.88067e-07
1.52684e-06
4.29177e-07
3.56821e-07
1.51093e-06
1.62412e-06
2.74259e-07
1.68058e-06
1.08879e-07
1.60367e-06
4.73885e-07
1.5302e-06
2.37146e-08
1.63025e-06
1.04153e-06
1.69431e-06
1.5653e-06
1.62602e-06
2.21758e-07
1.64154e-06
2.27064e-07
1.61018e-06
-1.30088e-07
1.60218e-06
1.50675e-07
1.61417e-06
2.571e-07
1.63492e-06
6.12079e-07
1.63212e-06
6.52234e-07
1.61914e-06
3.62494e-07
1.60991e-06
5.028e-07
1.59663e-06
2.04541e-07
1.5971e-06
4.38179e-07
1.59005e-06
3.95113e-07
1.59396e-06
4.25276e-07
3.69785e-07
1.58099e-06
1.69312e-06
2.78715e-07
1.74553e-06
5.64716e-08
1.69315e-06
5.26265e-07
1.62186e-06
9.49979e-08
1.68804e-06
9.75352e-07
1.76307e-06
1.49028e-06
1.71278e-06
2.7204e-07
1.71061e-06
2.29241e-07
1.68377e-06
-1.03252e-07
1.67171e-06
1.62736e-07
1.68032e-06
2.48487e-07
1.70212e-06
5.90278e-07
1.7063e-06
6.48055e-07
1.69691e-06
3.71891e-07
1.68752e-06
5.12188e-07
1.67073e-06
2.21328e-07
1.6691e-06
4.39813e-07
1.6605e-06
4.03711e-07
1.66633e-06
4.19442e-07
3.79454e-07
1.65666e-06
1.77008e-06
2.87357e-07
1.81288e-06
1.3672e-08
1.78398e-06
5.55162e-07
1.71932e-06
1.59657e-07
1.75774e-06
9.36939e-07
1.83498e-06
1.41303e-06
1.79987e-06
3.07148e-07
1.78792e-06
2.4119e-07
1.76284e-06
-7.81703e-08
1.74936e-06
1.76217e-07
1.75383e-06
2.44018e-07
1.77465e-06
5.6945e-07
1.78323e-06
6.3948e-07
1.77787e-06
3.77248e-07
1.77035e-06
5.19708e-07
1.75164e-06
2.4004e-07
1.74882e-06
4.42636e-07
1.73875e-06
4.13776e-07
1.74579e-06
4.12409e-07
3.85949e-07
1.73929e-06
1.85464e-06
2.96467e-07
1.88535e-06
-1.70346e-08
1.87459e-06
5.65917e-07
1.82018e-06
2.14068e-07
1.84009e-06
9.1703e-07
1.91383e-06
1.33929e-06
1.88755e-06
3.33426e-07
1.87256e-06
2.56179e-07
1.84897e-06
-5.45793e-08
1.83462e-06
1.90567e-07
1.83485e-06
2.43786e-07
1.8533e-06
5.51003e-07
1.86393e-06
6.28847e-07
1.86198e-06
3.79203e-07
1.85752e-06
5.24166e-07
1.83858e-06
2.58977e-07
1.83608e-06
4.45133e-07
1.82533e-06
4.24527e-07
1.83304e-06
4.04704e-07
3.89459e-07
1.82953e-06
1.94561e-06
3.03694e-07
1.96453e-06
-3.59489e-08
1.96498e-06
5.65468e-07
1.92304e-06
2.56003e-07
1.93331e-06
9.06764e-07
2.00008e-06
1.27252e-06
1.97712e-06
3.5639e-07
1.963e-06
2.70291e-07
1.94182e-06
-3.33982e-08
1.92705e-06
2.05337e-07
1.92359e-06
2.47245e-07
1.93906e-06
5.35538e-07
1.95003e-06
6.17872e-07
1.95031e-06
3.78927e-07
1.94918e-06
5.25296e-07
1.9312e-06
2.76954e-07
1.93037e-06
4.45963e-07
1.92005e-06
4.34854e-07
1.92811e-06
3.96643e-07
3.90079e-07
1.92749e-06
2.04183e-06
3.08054e-07
2.05093e-06
-4.50503e-08
2.05653e-06
5.59868e-07
2.02752e-06
2.85014e-07
2.03449e-06
8.99792e-07
2.09266e-06
1.21435e-06
2.07009e-06
3.78962e-07
2.05817e-06
2.82208e-07
2.04014e-06
-1.53649e-08
2.02596e-06
2.19514e-07
2.02013e-06
2.53081e-07
2.03283e-06
5.22831e-07
2.04309e-06
6.07617e-07
2.04433e-06
3.77684e-07
2.04616e-06
5.23466e-07
2.02969e-06
2.93425e-07
2.03129e-06
4.4436e-07
2.02241e-06
4.43734e-07
2.0305e-06
3.88552e-07
3.87918e-07
2.03266e-06
2.14256e-06
3.09493e-07
2.14439e-06
-4.68753e-08
2.15116e-06
5.53093e-07
2.13384e-06
3.02336e-07
2.14099e-06
8.92642e-07
2.19045e-06
1.16489e-06
2.16762e-06
4.01793e-07
2.15774e-06
2.92085e-07
2.14292e-06
-5.41268e-10
2.13043e-06
2.32003e-07
2.12388e-06
2.59624e-07
2.13467e-06
5.12042e-07
2.14375e-06
5.98537e-07
2.14494e-06
3.76502e-07
2.14911e-06
5.19294e-07
2.13424e-06
3.0829e-07
2.13842e-06
4.4018e-07
2.13165e-06
4.50506e-07
2.13932e-06
3.80881e-07
3.83267e-07
2.14397e-06
2.24753e-06
3.08454e-07
2.24449e-06
-4.38343e-08
2.25051e-06
5.47067e-07
2.24248e-06
3.10365e-07
2.2511e-06
8.8403e-07
2.29282e-06
1.12317e-06
2.27036e-06
4.24256e-07
2.26191e-06
3.00537e-07
2.24981e-06
1.15521e-08
2.23955e-06
2.4226e-07
2.23367e-06
2.65509e-07
2.2436e-06
5.02112e-07
2.25154e-06
5.90599e-07
2.25205e-06
3.75988e-07
2.25798e-06
5.13366e-07
2.24463e-06
3.21635e-07
2.25104e-06
4.33774e-07
2.24666e-06
4.54884e-07
2.2534e-06
3.74139e-07
3.76622e-07
2.26005e-06
2.35676e-06
3.05568e-07
2.35086e-06
-3.79369e-08
2.35565e-06
5.42281e-07
2.35401e-06
3.12008e-07
2.36411e-06
8.73932e-07
2.39964e-06
1.08763e-06
2.37864e-06
4.45258e-07
2.37107e-06
3.08103e-07
2.36097e-06
2.16539e-08
2.35274e-06
2.50498e-07
2.34816e-06
2.70089e-07
2.3581e-06
4.92171e-07
2.36521e-06
5.83488e-07
2.36485e-06
3.76342e-07
2.37207e-06
5.06147e-07
2.36012e-06
3.33589e-07
2.36813e-06
4.25761e-07
2.36613e-06
4.56887e-07
2.37156e-06
3.68709e-07
3.68577e-07
2.3796e-06
2.47049e-06
3.01469e-07
2.46326e-06
-3.07001e-08
2.46709e-06
5.38453e-07
2.46899e-06
3.10106e-07
2.4801e-06
8.62824e-07
2.51111e-06
1.05662e-06
2.49261e-06
4.6376e-07
2.48559e-06
3.15116e-07
2.47673e-06
3.05179e-08
2.46976e-06
2.57463e-07
2.46643e-06
2.73418e-07
2.47686e-06
4.81746e-07
2.4835e-06
5.76847e-07
2.48236e-06
3.77486e-07
2.49047e-06
4.9803e-07
2.47978e-06
3.44278e-07
2.48871e-06
4.16833e-07
2.48889e-06
4.56708e-07
2.49286e-06
3.64742e-07
3.59656e-07
2.50178e-06
2.58909e-06
2.96673e-07
2.5815e-06
-2.31086e-08
2.58498e-06
5.34968e-07
2.58802e-06
3.07069e-07
2.59964e-06
8.51201e-07
2.62763e-06
1.02863e-06
2.6123e-06
4.79095e-07
2.60564e-06
3.21774e-07
2.59744e-06
3.87211e-08
2.59086e-06
2.64046e-07
2.58828e-06
2.75997e-07
2.59928e-06
4.70747e-07
2.60568e-06
5.70444e-07
2.60395e-06
3.79215e-07
2.61262e-06
4.8936e-07
2.60305e-06
3.53851e-07
2.61228e-06
4.07599e-07
2.61435e-06
4.54635e-07
2.61697e-06
3.62121e-07
3.50262e-07
2.62637e-06
2.71299e-06
2.91513e-07
2.70551e-06
-1.56337e-08
2.70936e-06
5.31119e-07
2.71174e-06
3.04695e-07
2.72357e-06
8.39369e-07
2.74976e-06
1.00244e-06
2.73778e-06
4.91072e-07
2.73129e-06
3.28261e-07
2.72346e-06
4.65568e-08
2.71655e-06
2.7095e-07
2.71406e-06
2.78487e-07
2.72551e-06
4.59297e-07
2.73175e-06
5.64203e-07
2.72967e-06
3.81299e-07
2.73862e-06
4.80406e-07
2.72999e-06
3.62479e-07
2.73908e-06
3.98508e-07
2.74277e-06
4.50946e-07
2.7443e-06
3.60594e-07
3.40679e-07
2.75388e-06
2.84263e-06
2.86148e-07
2.83535e-06
-8.34497e-09
2.84021e-06
5.26254e-07
2.84077e-06
3.04134e-07
2.85272e-06
8.27421e-07
2.87798e-06
9.77184e-07
2.86919e-06
4.99861e-07
2.86263e-06
3.34822e-07
2.85511e-06
5.4077e-08
2.84754e-06
2.7852e-07
2.84451e-06
2.81517e-07
2.85626e-06
4.47546e-07
2.86232e-06
5.58138e-07
2.86009e-06
3.83537e-07
2.86919e-06
4.71304e-07
2.8613e-06
3.70363e-07
2.86998e-06
3.89828e-07
2.87508e-06
4.45848e-07
2.87575e-06
3.59932e-07
3.31152e-07
2.88527e-06
2.97845e-06
2.80594e-07
2.97116e-06
-1.05401e-09
2.97757e-06
5.19848e-07
2.97573e-06
3.0597e-07
2.98785e-06
8.15298e-07
3.01269e-06
9.52342e-07
3.00677e-06
5.05783e-07
2.99985e-06
3.41743e-07
2.99269e-06
6.12398e-08
2.98446e-06
2.86749e-07
2.98039e-06
2.85587e-07
2.99236e-06
4.35572e-07
2.99826e-06
5.5224e-07
2.99602e-06
3.8578e-07
3.00527e-06
4.62052e-07
2.99795e-06
3.77681e-07
3.00606e-06
3.81724e-07
3.01246e-06
4.39444e-07
3.01242e-06
3.59974e-07
3.22003e-07
3.02157e-06
3.12083e-06
2.74772e-07
3.11322e-06
6.55721e-09
3.12153e-06
5.11536e-07
3.11715e-06
3.10352e-07
3.1296e-06
8.02848e-07
3.15422e-06
9.27723e-07
3.15083e-06
5.09165e-07
3.1433e-06
3.49279e-07
3.13649e-06
6.80442e-08
3.12787e-06
2.95369e-07
3.12241e-06
2.91046e-07
3.13459e-06
4.23393e-07
3.14039e-06
5.4644e-07
3.13821e-06
3.87961e-07
3.14772e-06
4.52548e-07
3.14086e-06
3.84532e-07
3.14821e-06
3.7438e-07
3.15591e-06
4.31739e-07
3.15532e-06
3.60566e-07
3.13677e-07
3.16365e-06
3.27014e-06
2.68546e-07
3.26185e-06
1.48438e-08
3.27227e-06
5.01121e-07
3.26546e-06
3.17153e-07
3.27845e-06
7.89862e-07
3.30281e-06
9.03361e-07
3.30166e-06
5.10318e-07
3.29337e-06
3.57572e-07
3.28682e-06
7.45878e-08
3.27824e-06
3.03956e-07
3.27119e-06
2.98092e-07
3.28356e-06
4.11022e-07
3.2894e-06
5.40597e-07
3.28721e-06
3.90152e-07
3.29711e-06
4.4265e-07
3.29078e-06
3.90867e-07
3.29707e-06
3.68083e-07
3.30618e-06
4.22628e-07
3.30526e-06
3.6149e-07
3.06694e-07
3.31224e-06
3.42672e-06
2.61752e-07
3.41743e-06
2.414e-08
3.43001e-06
4.88537e-07
3.42106e-06
3.26103e-07
3.43481e-06
7.76115e-07
3.45876e-06
8.79408e-07
3.45953e-06
5.0955e-07
3.45049e-06
3.66612e-07
3.44401e-06
8.10682e-08
3.43594e-06
3.12026e-07
3.42725e-06
3.06785e-07
3.43975e-06
3.98518e-07
3.44582e-06
5.34528e-07
3.44343e-06
3.92543e-07
3.45384e-06
4.32239e-07
3.44821e-06
3.965e-07
3.45311e-06
3.63183e-07
3.46369e-06
4.12047e-07
3.46287e-06
3.62304e-07
3.01569e-07
3.468e-06
3.59093e-06
2.54232e-07
3.58035e-06
3.4722e-08
3.59507e-06
4.73821e-07
3.58429e-06
3.36876e-07
3.599e-06
7.6141e-07
3.62238e-06
8.56027e-07
3.62473e-06
5.07197e-07
3.61511e-06
3.76231e-07
3.60843e-06
8.77539e-08
3.60133e-06
3.19118e-07
3.59106e-06
3.1706e-07
3.60355e-06
3.86024e-07
3.61008e-06
5.28e-07
3.60721e-06
3.95417e-07
3.61815e-06
4.21298e-07
3.61357e-06
4.0108e-07
3.61675e-06
3.60007e-07
3.62863e-06
4.00158e-07
3.62862e-06
3.62318e-07
2.98629e-07
3.63156e-06
3.76308e-06
2.45853e-07
3.75102e-06
4.67855e-08
3.76778e-06
4.57057e-07
3.75551e-06
3.49155e-07
3.77128e-06
7.45634e-07
3.79399e-06
8.33317e-07
3.79756e-06
5.03626e-07
3.78766e-06
3.86129e-07
3.78047e-06
9.4945e-08
3.77473e-06
3.24859e-07
3.76305e-06
3.28743e-07
3.77529e-06
3.73788e-07
3.78258e-06
5.20707e-07
3.77892e-06
3.9908e-07
3.79027e-06
4.09946e-07
3.78718e-06
4.04167e-07
3.78849e-06
3.58698e-07
3.80118e-06
3.87472e-07
3.80274e-06
3.60757e-07
2.97772e-07
3.80359e-06
3.94352e-06
2.36523e-07
3.92986e-06
6.04399e-08
3.94856e-06
4.3836e-07
3.93507e-06
3.6265e-07
3.95192e-06
7.28783e-07
3.97397e-06
8.11267e-07
3.97836e-06
4.99233e-07
3.96856e-06
3.95925e-07
3.96058e-06
1.0293e-07
3.95644e-06
3.28994e-07
3.94361e-06
3.41572e-07
3.95525e-06
3.62147e-07
3.96364e-06
5.12326e-07
3.95897e-06
4.03749e-07
3.97042e-06
3.98492e-07
3.96932e-06
4.05273e-07
3.96883e-06
3.59182e-07
3.98152e-06
3.74788e-07
3.98532e-06
3.56954e-07
2.98404e-07
3.98469e-06
4.13258e-06
2.26197e-07
4.1173e-06
7.57149e-08
4.1378e-06
4.17861e-07
4.12337e-06
3.77084e-07
4.14118e-06
7.10972e-07
4.1627e-06
7.89749e-07
4.1675e-06
4.94431e-07
4.15821e-06
4.05211e-07
4.14921e-06
1.11932e-07
4.14678e-06
3.31422e-07
4.13315e-06
3.55208e-07
4.14379e-06
3.51504e-07
4.15355e-06
5.0256e-07
4.14781e-06
4.09497e-07
4.15894e-06
3.87355e-07
4.16016e-06
4.04059e-07
4.15829e-06
3.61048e-07
4.17e-06
3.63075e-07
4.17635e-06
3.50611e-07
2.99467e-07
4.17528e-06
4.33063e-06
2.14869e-07
4.31378e-06
9.25699e-08
4.33591e-06
3.95732e-07
4.32084e-06
3.92152e-07
4.33939e-06
6.92422e-07
4.3606e-06
7.6854e-07
4.3654e-06
4.89626e-07
4.357e-06
4.13615e-07
4.34686e-06
1.22068e-07
4.34607e-06
3.32209e-07
4.33205e-06
3.69235e-07
4.34127e-06
3.42281e-07
4.35262e-06
4.91215e-07
4.34594e-06
4.16168e-07
4.35615e-06
3.77145e-07
4.35991e-06
4.00304e-07
4.35725e-06
3.63709e-07
4.36724e-06
3.53082e-07
4.37583e-06
3.42021e-07
2.99737e-07
4.37556e-06
4.53807e-06
2.02568e-07
4.51974e-06
1.10903e-07
4.54327e-06
3.72199e-07
4.52793e-06
4.07494e-07
4.54691e-06
6.73446e-07
4.5681e-06
7.47347e-07
4.57253e-06
4.85196e-07
4.56528e-06
4.20864e-07
4.55403e-06
1.33317e-07
4.55469e-06
3.31555e-07
4.54072e-06
3.83202e-07
4.54815e-06
3.34852e-07
4.56114e-06
4.7823e-07
4.55387e-06
4.23432e-07
4.56248e-06
3.68538e-07
4.56877e-06
3.94016e-07
4.56606e-06
3.66419e-07
4.57387e-06
3.4527e-07
4.58392e-06
3.31972e-07
2.98128e-07
4.58553e-06
4.75533e-06
1.89351e-07
4.73568e-06
1.30555e-07
4.76031e-06
3.47572e-07
4.74513e-06
4.22668e-07
4.76415e-06
6.54429e-07
4.78565e-06
7.25843e-07
4.7894e-06
4.81454e-07
4.78343e-06
4.26824e-07
4.77124e-06
1.45514e-07
4.77306e-06
3.29733e-07
4.75959e-06
3.96672e-07
4.76491e-06
3.29529e-07
4.77949e-06
4.63656e-07
4.77211e-06
4.3081e-07
4.77845e-06
3.62195e-07
4.78711e-06
3.8536e-07
4.78504e-06
3.68486e-07
4.79058e-06
3.39726e-07
4.80107e-06
3.21488e-07
2.94073e-07
4.80512e-06
4.98285e-06
1.75298e-07
4.9621e-06
1.51311e-07
4.98741e-06
3.22262e-07
4.97294e-06
4.37138e-07
4.99156e-06
6.35806e-07
5.01369e-06
7.03707e-07
5.01652e-06
4.78628e-07
5.01183e-06
4.3151e-07
4.99897e-06
1.58375e-07
5.00167e-06
3.2704e-07
4.98908e-06
4.0926e-07
4.9921e-06
3.26504e-07
5.00806e-06
4.47701e-07
5.00117e-06
4.37702e-07
5.0048e-06
3.58561e-07
5.01537e-06
3.7479e-07
5.01466e-06
3.69199e-07
5.01812e-06
3.36263e-07
5.028e-06
3.11603e-07
2.87761e-07
5.03431e-06
5.2211e-06
1.60512e-07
5.19953e-06
1.72886e-07
5.22498e-06
2.96807e-07
5.21187e-06
4.50249e-07
5.22961e-06
6.18064e-07
5.25267e-06
6.80647e-07
5.25454e-06
4.76761e-07
5.2509e-06
4.35148e-07
5.23772e-06
1.71555e-07
5.24102e-06
3.23741e-07
5.22964e-06
4.20638e-07
5.23027e-06
3.25876e-07
5.24729e-06
4.30678e-07
5.2416e-06
4.43399e-07
5.2423e-06
3.57859e-07
5.25403e-06
3.63064e-07
5.25531e-06
3.67911e-07
5.25712e-06
3.34459e-07
5.26561e-06
3.03112e-07
2.80004e-07
5.27337e-06
5.47058e-06
1.45122e-07
5.44854e-06
1.94927e-07
5.47345e-06
2.71892e-07
5.46248e-06
4.61218e-07
5.47882e-06
6.01726e-07
5.50304e-06
6.56427e-07
5.50413e-06
4.75678e-07
5.50112e-06
4.3815e-07
5.48795e-06
1.84723e-07
5.49168e-06
3.20015e-07
5.48179e-06
4.30527e-07
5.47999e-06
3.27682e-07
5.49767e-06
4.12993e-07
5.49393e-06
4.47144e-07
5.4917e-06
3.60087e-07
5.50369e-06
3.5107e-07
5.50745e-06
3.64158e-07
5.50809e-06
3.33817e-07
5.51482e-06
2.96376e-07
2.71805e-07
5.52302e-06
5.73179e-06
1.29289e-07
5.70971e-06
2.17008e-07
5.73323e-06
2.48372e-07
5.72535e-06
4.69095e-07
5.73975e-06
5.87332e-07
5.76528e-06
6.30894e-07
5.76593e-06
4.75032e-07
5.76308e-06
4.41002e-07
5.75015e-06
1.97645e-07
5.7542e-06
3.15971e-07
5.74603e-06
4.3869e-07
5.74186e-06
3.31856e-07
5.7597e-06
3.95153e-07
5.75855e-06
4.48292e-07
5.75373e-06
3.64908e-07
5.76496e-06
3.39837e-07
5.77145e-06
3.57676e-07
5.77156e-06
3.33699e-07
5.77643e-06
2.91512e-07
2.63958e-07
5.78427e-06
6.00528e-06
1.13203e-07
5.98366e-06
2.3863e-07
6.00472e-06
2.27304e-07
6.00111e-06
4.7271e-07
6.01297e-06
5.75471e-07
6.0398e-06
6.04067e-07
6.04056e-06
4.7427e-07
6.03741e-06
4.44148e-07
6.02479e-06
2.10265e-07
6.02916e-06
3.11606e-07
6.02291e-06
4.44936e-07
6.01654e-06
3.38231e-07
6.03392e-06
3.77764e-07
6.03588e-06
4.4634e-07
6.0291e-06
3.71681e-07
6.03852e-06
3.30417e-07
6.04769e-06
3.48508e-07
6.0481e-06
3.33291e-07
6.05108e-06
2.88532e-07
2.56975e-07
6.05806e-06
6.2916e-06
9.70873e-08
6.27101e-06
2.59224e-07
6.28843e-06
2.09883e-07
6.29041e-06
4.70729e-07
6.29918e-06
5.66708e-07
6.32688e-06
5.76359e-07
6.3286e-06
4.72558e-07
6.32481e-06
4.4793e-07
6.31243e-06
2.22647e-07
6.31715e-06
3.06892e-07
6.31299e-06
4.49097e-07
6.3047e-06
3.46518e-07
6.3209e-06
3.61566e-07
6.32632e-06
4.40917e-07
6.31848e-06
3.79523e-07
6.32518e-06
3.23712e-07
6.33653e-06
3.37157e-07
6.33822e-06
3.31607e-07
6.33944e-06
2.87309e-07
2.51205e-07
6.34521e-06
6.59136e-06
8.11953e-08
6.57242e-06
2.78162e-07
6.58542e-06
1.96885e-07
6.59395e-06
4.62194e-07
6.59931e-06
5.61353e-07
6.62699e-06
5.48683e-07
6.63054e-06
4.69007e-07
6.62603e-06
4.5244e-07
6.6137e-06
2.34975e-07
6.61873e-06
3.01862e-07
6.61682e-06
4.51004e-07
6.60704e-06
3.563e-07
6.62127e-06
3.4734e-07
6.63024e-06
4.31941e-07
6.6224e-06
3.87362e-07
6.62585e-06
3.20269e-07
6.63842e-06
3.24588e-07
6.64231e-06
3.27715e-07
6.64226e-06
2.87355e-07
2.47019e-07
6.64645e-06
6.90519e-06
6.57991e-08
6.88857e-06
2.94782e-07
6.89681e-06
1.8864e-07
6.91196e-06
4.47048e-07
6.91441e-06
5.58898e-07
6.94076e-06
5.22337e-07
6.94682e-06
4.62943e-07
6.94183e-06
4.57435e-07
6.92923e-06
2.47568e-07
6.93454e-06
2.96561e-07
6.935e-06
4.50542e-07
6.92423e-06
3.6707e-07
6.93585e-06
3.35716e-07
6.94802e-06
4.19776e-07
6.94134e-06
3.94038e-07
6.94144e-06
3.20167e-07
6.95402e-06
3.12008e-07
6.96066e-06
3.2108e-07
6.96024e-06
2.87774e-07
2.44696e-07
6.96256e-06
7.23375e-06
5.11852e-08
7.22011e-06
3.08418e-07
7.22352e-06
1.85232e-07
7.2444e-06
4.26167e-07
7.2454e-06
5.579e-07
7.26899e-06
4.9875e-07
7.2779e-06
4.5403e-07
7.27298e-06
4.62359e-07
7.25979e-06
2.60756e-07
7.26517e-06
2.91184e-07
7.26808e-06
4.47633e-07
7.25691e-06
3.78238e-07
7.2655e-06
3.27128e-07
7.28015e-06
4.05119e-07
7.27564e-06
3.9855e-07
7.27289e-06
3.22914e-07
7.28426e-06
3.00641e-07
7.29354e-06
3.11796e-07
7.29384e-06
2.87478e-07
2.43999e-07
7.29454e-06
7.57777e-06
3.76408e-08
7.56776e-06
3.18424e-07
7.56644e-06
1.86557e-07
7.59147e-06
4.01138e-07
7.59302e-06
5.56351e-07
7.61258e-06
4.79191e-07
7.62426e-06
4.42347e-07
7.6202e-06
4.66422e-07
7.60616e-06
2.74797e-07
7.61127e-06
2.86067e-07
7.61662e-06
4.42287e-07
7.60573e-06
3.89123e-07
7.61105e-06
3.21813e-07
7.62725e-06
3.88916e-07
7.62575e-06
4.00056e-07
7.62104e-06
3.27618e-07
7.63007e-06
2.91616e-07
7.64146e-06
3.00408e-07
7.64343e-06
2.85502e-07
2.44314e-07
7.64312e-06
7.93801e-06
2.54456e-08
7.93223e-06
3.242e-07
7.92645e-06
1.92336e-07
7.95371e-06
3.73875e-07
7.95788e-06
5.52185e-07
7.97255e-06
4.64519e-07
7.98648e-06
4.28419e-07
7.98414e-06
4.68767e-07
7.96919e-06
2.89739e-07
7.97353e-06
2.81735e-07
7.98118e-06
4.34636e-07
7.97126e-06
3.99037e-07
7.97335e-06
3.19727e-07
7.99004e-06
3.72222e-07
7.99207e-06
3.98027e-07
7.98644e-06
3.33246e-07
7.99258e-06
2.85478e-07
8.00507e-06
2.87921e-07
8.00932e-06
2.81245e-07
2.44825e-07
8.00881e-06
8.31527e-06
1.48572e-08
8.31425e-06
3.25219e-07
8.30444e-06
2.02148e-07
8.33192e-06
3.46388e-07
8.34056e-06
5.43553e-07
8.3503e-06
4.54776e-07
8.36523e-06
4.13489e-07
8.36527e-06
4.68724e-07
8.34966e-06
3.05349e-07
8.35263e-06
2.78769e-07
8.36224e-06
4.25023e-07
8.35401e-06
4.07267e-07
8.35315e-06
3.2059e-07
8.36939e-06
3.55982e-07
8.37497e-06
3.92445e-07
8.36966e-06
3.38562e-07
8.3728e-06
2.82335e-07
8.38534e-06
2.75377e-07
8.39196e-06
2.74625e-07
2.44759e-07
8.39203e-06
8.71042e-06
6.09593e-09
8.71442e-06
3.21218e-07
8.70124e-06
2.15328e-07
8.72698e-06
3.20655e-07
8.74114e-06
5.29391e-07
8.74583e-06
4.50082e-07
8.76062e-06
3.98699e-07
8.76391e-06
4.65441e-07
8.74823e-06
3.21025e-07
8.74926e-06
2.77739e-07
8.76036e-06
4.13923e-07
8.75437e-06
4.13261e-07
8.75128e-06
3.23678e-07
8.76626e-06
3.40995e-07
8.775e-06
3.83707e-07
8.77119e-06
3.42377e-07
8.77181e-06
2.81715e-07
8.78321e-06
2.63978e-07
8.79202e-06
2.65813e-07
2.43506e-07
8.79327e-06
9.12437e-06
-6.52095e-10
9.13327e-06
3.12318e-07
9.11772e-06
2.30877e-07
9.14005e-06
2.98322e-07
9.15991e-06
5.0953e-07
9.1611e-06
4.48898e-07
9.17413e-06
3.85667e-07
9.18077e-06
4.58799e-07
9.16571e-06
3.36085e-07
9.16417e-06
2.79275e-07
9.17624e-06
4.01856e-07
9.17296e-06
4.16546e-07
9.16858e-06
3.28052e-07
9.18168e-06
3.27897e-07
9.19297e-06
3.72416e-07
9.19157e-06
3.43773e-07
9.19054e-06
2.82749e-07
9.19983e-06
2.54689e-07
9.21022e-06
2.55417e-07
2.40518e-07
9.21321e-06
9.55806e-06
-5.25701e-09
9.57152e-06
2.98868e-07
9.55475e-06
2.47645e-07
9.57263e-06
2.80439e-07
9.59779e-06
4.8437e-07
9.59718e-06
4.49514e-07
9.60675e-06
3.76089e-07
9.61634e-06
4.49208e-07
9.60303e-06
3.49399e-07
9.59872e-06
2.8359e-07
9.61107e-06
3.89498e-07
9.61086e-06
4.16764e-07
9.60601e-06
3.329e-07
9.61681e-06
3.17091e-07
9.63001e-06
3.59224e-07
9.63142e-06
3.42356e-07
9.62982e-06
2.84355e-07
9.63652e-06
2.47987e-07
9.64748e-06
2.44461e-07
2.35403e-07
9.65259e-06
1.00126e-05
-7.67872e-09
1.003e-05
2.81441e-07
1.00133e-05
2.64343e-07
1.00259e-05
2.67817e-07
1.00554e-05
4.54881e-07
1.00549e-05
4.49963e-07
1.00599e-05
3.71095e-07
1.00715e-05
4.37631e-07
1.00613e-05
3.59616e-07
1.00545e-05
2.90364e-07
1.00663e-05
3.77697e-07
1.00693e-05
4.13828e-07
1.00646e-05
3.37522e-07
1.00731e-05
3.08666e-07
1.00873e-05
3.44986e-07
1.00916e-05
3.38103e-07
1.00903e-05
2.85614e-07
1.00946e-05
2.43636e-07
1.01049e-05
2.3418e-07
2.28198e-07
1.01121e-05
1.04889e-05
-7.98553e-09
1.05095e-05
2.6084e-07
1.04943e-05
2.79616e-07
1.05012e-05
2.60871e-07
1.05336e-05
4.22535e-07
1.05354e-05
4.48127e-07
1.05356e-05
3.70895e-07
1.05476e-05
4.25615e-07
1.05412e-05
3.66069e-07
1.05332e-05
2.98301e-07
1.05437e-05
3.67271e-07
1.05492e-05
4.08317e-07
1.05454e-05
3.41257e-07
1.05517e-05
3.02421e-07
1.05661e-05
3.30513e-07
1.0573e-05
3.313e-07
1.05727e-05
2.85878e-07
1.05754e-05
2.40957e-07
1.05841e-05
2.25469e-07
2.19576e-07
1.05927e-05
1.09884e-05
-6.37577e-09
1.10112e-05
2.38095e-07
1.09987e-05
2.92082e-07
1.1e-05
2.59578e-07
1.10333e-05
3.89219e-07
1.10393e-05
4.42073e-07
1.10356e-05
3.746e-07
1.10462e-05
4.15083e-07
1.10434e-05
3.68875e-07
1.10358e-05
3.05847e-07
1.10445e-05
3.58592e-07
1.10518e-05
4.00985e-07
1.10493e-05
3.43755e-07
1.10538e-05
2.97925e-07
1.10678e-05
3.16553e-07
1.10767e-05
3.22348e-07
1.10778e-05
2.84794e-07
1.10796e-05
2.39187e-07
1.10865e-05
2.18535e-07
2.10673e-07
1.10954e-05
1.15122e-05
-3.19833e-09
1.15358e-05
2.14454e-07
1.15276e-05
3.00346e-07
1.15237e-05
2.63422e-07
1.15558e-05
3.57166e-07
1.15671e-05
4.30721e-07
1.15612e-05
3.80475e-07
1.15689e-05
4.07457e-07
1.15689e-05
3.68836e-07
1.15628e-05
3.11953e-07
1.157e-05
3.51369e-07
1.15785e-05
3.92532e-07
1.15774e-05
3.44848e-07
1.15806e-05
2.94752e-07
1.15935e-05
3.03574e-07
1.16041e-05
3.11783e-07
1.16067e-05
2.82157e-07
1.16082e-05
2.37718e-07
1.16136e-05
2.13134e-07
2.02419e-07
1.16219e-05
1.20616e-05
1.0611e-09
1.20847e-05
1.91275e-07
1.20819e-05
3.0322e-07
1.20739e-05
2.71427e-07
1.21024e-05
3.28644e-07
1.21192e-05
4.13931e-07
1.21133e-05
3.86315e-07
1.21174e-05
4.03357e-07
1.2119e-05
3.67273e-07
1.21148e-05
3.16116e-07
1.21213e-05
3.44923e-07
1.21303e-05
3.83481e-07
1.21307e-05
3.44481e-07
1.21329e-05
2.92519e-07
1.21446e-05
2.91884e-07
1.21563e-05
3.00121e-07
1.21606e-05
2.77871e-07
1.21622e-05
2.36128e-07
1.21665e-05
2.08777e-07
1.95268e-07
1.21737e-05
1.26378e-05
5.85707e-09
1.26593e-05
1.69776e-07
1.26624e-05
3.00106e-07
1.26516e-05
2.82251e-07
1.26747e-05
3.05498e-07
1.26961e-05
3.92533e-07
1.26926e-05
3.89853e-07
1.26934e-05
4.0259e-07
1.26951e-05
3.65542e-07
1.26929e-05
3.18299e-07
1.26992e-05
3.38626e-07
1.27087e-05
3.74002e-07
1.27104e-05
3.42731e-07
1.27121e-05
2.90824e-07
1.27224e-05
2.81659e-07
1.27346e-05
2.87889e-07
1.27405e-05
2.71944e-07
1.27425e-05
2.34127e-07
1.27463e-05
2.05033e-07
1.89166e-07
1.27524e-05
1.32421e-05
1.06584e-08
1.32608e-05
1.51067e-07
1.32697e-05
2.91207e-07
1.3258e-05
2.9403e-07
1.32745e-05
2.88919e-07
1.32989e-05
3.68134e-07
1.32994e-05
3.89439e-07
1.32978e-05
4.04107e-07
1.32989e-05
3.64523e-07
1.32982e-05
3.18918e-07
1.33048e-05
3.32028e-07
1.33148e-05
3.64078e-07
1.33178e-05
3.39649e-07
1.33194e-05
2.893e-07
1.33281e-05
2.72959e-07
1.33404e-05
2.75596e-07
1.33478e-05
2.64467e-07
1.33505e-05
2.31462e-07
1.33539e-05
2.01679e-07
1.83794e-07
1.33592e-05
1.38758e-05
1.49966e-08
1.38914e-05
1.35489e-07
1.39049e-05
2.77734e-07
1.3894e-05
3.04956e-07
1.39036e-05
2.7931e-07
1.39287e-05
3.4302e-07
1.3934e-05
3.84111e-07
1.3932e-05
4.0614e-07
1.3932e-05
3.64486e-07
1.39323e-05
3.18672e-07
1.39393e-05
3.2497e-07
1.39498e-05
3.53552e-07
1.39542e-05
3.35288e-07
1.39559e-05
2.87603e-07
1.39632e-05
2.65636e-07
1.3975e-05
2.63823e-07
1.39838e-05
2.55632e-07
1.39875e-05
2.27826e-07
1.39905e-05
1.98604e-07
1.78862e-07
1.39955e-05
1.45401e-05
1.85209e-08
1.45518e-05
1.23797e-07
1.45686e-05
2.60987e-07
1.45603e-05
3.13252e-07
1.45636e-05
2.7596e-07
1.45868e-05
3.1984e-07
1.45975e-05
3.73455e-07
1.45969e-05
4.06712e-07
1.45961e-05
3.65302e-07
1.45966e-05
3.18198e-07
1.4604e-05
3.17551e-07
1.46152e-05
3.42338e-07
1.46209e-05
3.29584e-07
1.4623e-05
2.85533e-07
1.46292e-05
2.59406e-07
1.46401e-05
2.52919e-07
1.46498e-05
2.45957e-07
1.46547e-05
2.2285e-07
1.46577e-05
1.9563e-07
1.74288e-07
1.46623e-05
1.52364e-05
2.10219e-08
1.52445e-05
1.1571e-07
1.52628e-05
2.4269e-07
1.52579e-05
3.18109e-07
1.52565e-05
2.77332e-07
1.52752e-05
3.0121e-07
1.52909e-05
3.57754e-07
1.52936e-05
4.03953e-07
1.52925e-05
3.66397e-07
1.52929e-05
3.17846e-07
1.53003e-05
3.10161e-07
1.53121e-05
3.30482e-07
1.53193e-05
3.22443e-07
1.5322e-05
2.82829e-07
1.53273e-05
2.54045e-07
1.53373e-05
2.4295e-07
1.53472e-05
2.36075e-07
1.53536e-05
2.16479e-07
1.53569e-05
1.92301e-07
1.70139e-07
1.5361e-05
1.59659e-05
2.24966e-08
1.59705e-05
1.11026e-07
1.59887e-05
2.24575e-07
1.5988e-05
3.18749e-07
1.59842e-05
2.81111e-07
1.59968e-05
2.88617e-07
1.60158e-05
3.38755e-07
1.60231e-05
3.96675e-07
1.60228e-05
3.6667e-07
1.60229e-05
3.17789e-07
1.60299e-05
3.03175e-07
1.60421e-05
3.18233e-07
1.60507e-05
3.13861e-07
1.60544e-05
2.79168e-07
1.60592e-05
2.49262e-07
1.60681e-05
2.33973e-07
1.60779e-05
2.26335e-07
1.60852e-05
2.09151e-07
1.60894e-05
1.88072e-07
1.66307e-07
1.60933e-05
1.673e-05
2.30732e-08
1.67298e-05
1.11239e-07
1.67474e-05
2.07019e-07
1.6752e-05
3.14161e-07
1.67481e-05
2.8493e-07
1.67555e-05
2.81276e-07
1.67746e-05
3.19639e-07
1.67865e-05
3.84732e-07
1.67883e-05
3.64947e-07
1.67882e-05
3.17826e-07
1.67945e-05
2.96852e-07
1.68068e-05
3.0599e-07
1.68167e-05
3.03959e-07
1.68216e-05
2.7426e-07
1.68261e-05
2.44714e-07
1.68342e-05
2.25945e-07
1.68436e-05
2.16908e-07
1.68513e-05
2.01404e-07
1.68566e-05
1.82834e-07
1.6237e-07
1.68605e-05
1.75306e-05
2.28621e-08
1.75292e-05
1.12641e-07
1.75438e-05
1.92351e-07
1.75518e-05
3.06191e-07
1.75494e-05
2.87363e-07
1.75531e-05
2.77587e-07
1.75699e-05
3.02792e-07
1.75857e-05
3.68966e-07
1.75901e-05
3.60555e-07
1.75905e-05
3.17394e-07
1.7596e-05
2.91323e-07
1.76079e-05
2.94124e-07
1.76188e-05
2.93066e-07
1.76251e-05
2.67979e-07
1.76298e-05
2.39938e-07
1.7637e-05
2.18778e-07
1.7646e-05
2.079e-07
1.7654e-05
1.93437e-07
1.76598e-05
1.77005e-07
1.5784e-07
1.76643e-05
1.83691e-05
2.20765e-08
1.83664e-05
1.15412e-07
1.83787e-05
1.80054e-07
1.83896e-05
2.95232e-07
1.83894e-05
2.87579e-07
1.83908e-05
2.7623e-07
1.84044e-05
2.89125e-07
1.84223e-05
3.51097e-07
1.84297e-05
3.53105e-07
1.84312e-05
3.1589e-07
1.84361e-05
2.86444e-07
1.84473e-05
2.82944e-07
1.84588e-05
2.81536e-07
1.84664e-05
2.604e-07
1.84718e-05
2.34567e-07
1.84784e-05
2.12187e-07
1.84868e-05
1.9949e-07
1.84949e-05
1.85275e-07
1.85011e-05
1.70843e-07
1.52701e-07
1.85062e-05
1.92475e-05
2.09382e-08
1.92445e-05
1.18455e-07
1.9254e-05
1.705e-07
1.92671e-05
2.82177e-07
1.92694e-05
2.85263e-07
1.92698e-05
2.75817e-07
1.92804e-05
2.78578e-07
1.92985e-05
3.32951e-07
1.9309e-05
3.42669e-07
1.9312e-05
3.12805e-07
1.93166e-05
2.8184e-07
1.93269e-05
2.72653e-07
1.93388e-05
2.69719e-07
1.93474e-05
2.5172e-07
1.93536e-05
2.28417e-07
1.936e-05
2.05719e-07
1.93677e-05
1.91795e-07
1.9376e-05
1.77057e-07
1.93825e-05
1.64316e-07
1.47236e-07
1.9388e-05
2.01677e-05
1.96401e-08
2.0165e-05
1.21156e-07