/*--------------------------------*- C++ -*----------------------------------*\
| =========                 |                                                 |
| \\      /  F ield         | OpenFOAM: The Open Source CFD Toolbox           |
|  \\    /   O peration     | Version:  v1812                                 |
|   \\  /    A nd           | Web:      www.OpenFOAM.com                      |
|    \\/     M anipulation  |                                                 |
\*---------------------------------------------------------------------------*/
FoamFile
{
    version     2.0;
    format      ascii;
    class       volVectorField;
    location    "5.1";
    object      U;
}
// * * * * * * * * * * * * * * * * * * * * * * * * * * * * * * * * * * * * * //

dimensions      [0 1 -1 0 0 0 0];


internalField   nonuniform List<vector> 
9600
(
(0.757702 0.00552357 0)
(1.30855 0.00346232 0)
(0.808009 -0.00430419 0)
(1.08019 -0.00449896 0)
(0.795017 0.0318972 0)
(1.35094 0.0173471 0)
(0.567704 -0.00222197 0)
(1.29409 0.0115931 0)
(0.694714 -0.01013 0)
(1.16915 0.00975917 0)
(0.847035 0.00665356 0)
(1.14821 0.0168319 0)
(0.843646 0.0145363 0)
(1.12355 0.00868917 0)
(0.833482 0.0164933 0)
(1.1403 0.00514401 0)
(0.812114 0.0157472 0)
(1.14053 0.0171493 0)
(0.810569 0.014884 0)
(1.10647 0.0167151 0)
(0.762298 0.00497493 0)
(1.30106 0.00344136 0)
(0.813217 -0.00265257 0)
(1.07839 -0.00405506 0)
(0.796085 0.0297254 0)
(1.34557 0.0200678 0)
(0.586301 -0.00203615 0)
(1.2836 0.0106603 0)
(0.72202 -0.00903843 0)
(1.16317 0.00842758 0)
(0.865402 0.00644215 0)
(1.13928 0.0172742 0)
(0.869973 0.0147028 0)
(1.10266 0.00924756 0)
(0.870465 0.0159137 0)
(1.10106 0.00585923 0)
(0.870629 0.0158237 0)
(1.06885 0.0164936 0)
(0.913737 0.0172326 0)
(0.98581 0.0141228 0)
(0.773225 0.00435646 0)
(1.28484 0.0034012 0)
(0.827461 -0.0011818 0)
(1.0713 -0.00376305 0)
(0.800624 0.0266272 0)
(1.33281 0.0225582 0)
(0.630385 -0.0019967 0)
(1.25787 0.00959236 0)
(0.777079 -0.0079176 0)
(1.1406 0.00657907 0)
(0.905585 0.0065317 0)
(1.11517 0.0175931 0)
(0.921991 0.0151948 0)
(1.0655 0.00948331 0)
(0.929273 0.0156001 0)
(1.0529 0.0062093 0)
(0.938771 0.016184 0)
(1.01362 0.0160588 0)
(0.969635 0.0187468 0)
(0.965266 0.0138944 0)
(0.791547 0.0038343 0)
(1.25823 0.00329329 0)
(0.853866 0.000205422 0)
(1.05652 -0.00336379 0)
(0.811385 0.0238771 0)
(1.30841 0.024317 0)
(0.701102 -0.00157309 0)
(1.21229 0.00839247 0)
(0.85078 -0.00675013 0)
(1.10036 0.00498509 0)
(0.951488 0.00680108 0)
(1.08297 0.0174228 0)
(0.972532 0.0159445 0)
(1.03208 0.00941914 0)
(0.973383 0.0157134 0)
(1.02244 0.00616934 0)
(0.978428 0.0168133 0)
(0.997959 0.0159101 0)
(0.987979 0.0193173 0)
(0.977264 0.0149256 0)
(0.8173 0.00339637 0)
(1.22079 0.00306271 0)
(0.890979 0.00158706 0)
(1.03473 -0.00276884 0)
(0.8299 0.0213596 0)
(1.26928 0.0254618 0)
(0.788458 -0.000671896 0)
(1.15233 0.00696736 0)
(0.921534 -0.00552544 0)
(1.05493 0.00380918 0)
(0.983135 0.00687668 0)
(1.05415 0.0170635 0)
(1.00331 0.0167541 0)
(1.01286 0.00953092 0)
(0.992822 0.0158333 0)
(1.00716 0.00616488 0)
(0.992367 0.0172369 0)
(0.996619 0.0158761 0)
(0.993418 0.0196626 0)
(0.984912 0.0159864 0)
(0.848825 0.0030533 0)
(1.17497 0.00266612 0)
(0.932404 0.00295112 0)
(1.01082 -0.00200508 0)
(0.854896 0.0189736 0)
(1.21684 0.0258512 0)
(0.873522 0.00057458 0)
(1.09307 0.00560341 0)
(0.971559 -0.0044138 0)
(1.01873 0.00312918 0)
(0.994654 0.00670564 0)
(1.03278 0.0167336 0)
(1.01503 0.0174516 0)
(1.00525 0.00989191 0)
(0.996778 0.0159102 0)
(0.998334 0.00635889 0)
(0.992556 0.0172698 0)
(0.994221 0.0160255 0)
(0.992793 0.0198836 0)
(0.985833 0.0168553 0)
(0.882733 0.002834 0)
(1.12638 0.00212044 0)
(0.969748 0.00420992 0)
(0.991874 -0.00112385 0)
(0.882328 0.0168877 0)
(1.15852 0.0255062 0)
(0.940483 0.00195685 0)
(1.04837 0.00462139 0)
(0.997168 -0.00353565 0)
(0.997033 0.00294226 0)
(0.992998 0.00642975 0)
(1.01722 0.0163667 0)
(1.01573 0.0179226 0)
(1.00364 0.0103573 0)
(0.995699 0.0161015 0)
(0.992962 0.00666441 0)
(0.987763 0.0171493 0)
(0.989136 0.0163026 0)
(0.988799 0.0198808 0)
(0.983408 0.0176377 0)
(0.914916 0.00274467 0)
(1.08203 0.00149356 0)
(0.996645 0.00525211 0)
(0.982966 -0.000173062 0)
(0.907451 0.0152521 0)
(1.10474 0.0246435 0)
(0.98412 0.00322109 0)
(1.02245 0.0041338 0)
(1.0052 -0.00286205 0)
(0.986712 0.00308425 0)
(0.987397 0.00614522 0)
(1.00567 0.0158883 0)
(1.01196 0.0181301 0)
(1.00404 0.0108024 0)
(0.994846 0.0163998 0)
(0.990726 0.00706996 0)
(0.983152 0.017084 0)
(0.983898 0.0165956 0)
(0.98434 0.0197071 0)
(0.980564 0.0183559 0)
(0.942069 0.00276024 0)
(1.04729 0.000873119 0)
(1.01107 0.00601787 0)
(0.984113 0.000780363 0)
(0.927562 0.0141043 0)
(1.06364 0.0235097 0)
(1.00777 0.00419355 0)
(1.01102 0.00405818 0)
(1.00518 -0.00229919 0)
(0.982772 0.00335541 0)
(0.983004 0.00590698 0)
(0.997408 0.0153385 0)
(1.00709 0.0181023 0)
(1.00423 0.0111405 0)
(0.995116 0.0167221 0)
(0.990927 0.00760973 0)
(0.980922 0.0171096 0)
(0.980619 0.01692 0)
(0.981525 0.0194503 0)
(0.979067 0.0189434 0)
(0.962689 0.00283783 0)
(1.02401 0.000339948 0)
(1.01505 0.00649333 0)
(0.991061 0.00168194 0)
(0.942927 0.0133951 0)
(1.03777 0.0222858 0)
(1.01796 0.00487459 0)
(1.00732 0.00423244 0)
(1.00391 -0.00178075 0)
(0.982213 0.00365124 0)
(0.981061 0.0057541 0)
(0.991971 0.0147863 0)
(1.0025 0.0179052 0)
(1.00345 0.0113474 0)
(0.995748 0.0170071 0)
(0.99238 0.00825788 0)
(0.981191 0.0172007 0)
(0.979969 0.0173251 0)
(0.9812 0.01914 0)
(0.979621 0.0193528 0)
(0.977054 0.00293518 0)
(1.01069 -6.09777e-05 0)
(1.01266 0.00671587 0)
(0.99867 0.00246452 0)
(0.955412 0.0130135 0)
(1.02464 0.0210881 0)
(1.02071 0.00536329 0)
(1.00648 0.00451179 0)
(1.00403 -0.00129005 0)
(0.983779 0.00395495 0)
(0.981319 0.00570126 0)
(0.988956 0.0142781 0)
(0.998871 0.0176208 0)
(1.00206 0.0114436 0)
(0.996242 0.0172056 0)
(0.994217 0.00894823 0)
(0.983258 0.0173093 0)
(0.981637 0.0177948 0)
(0.983311 0.0187908 0)
(0.982293 0.0195923 0)
(0.986475 0.00302176 0)
(1.00422 -0.000324276 0)
(1.00788 0.0067607 0)
(1.00374 0.00308867 0)
(0.966594 0.0128265 0)
(1.01955 0.0199917 0)
(1.02013 0.00576139 0)
(1.00631 0.00479288 0)
(1.00537 -0.000842283 0)
(0.986661 0.00427047 0)
(0.983352 0.00574246 0)
(0.9882 0.0138428 0)
(0.996796 0.0173153 0)
(1.00091 0.0114564 0)
(0.996811 0.0172964 0)
(0.996194 0.00962179 0)
(0.986489 0.0173758 0)
(0.985033 0.0182679 0)
(0.987382 0.0184229 0)
(0.986776 0.0196826 0)
(0.992464 0.00308139 0)
(1.00162 -0.000468092 0)
(1.00332 0.00671063 0)
(1.00562 0.00354212 0)
(0.976922 0.0127233 0)
(1.01823 0.0190308 0)
(1.01845 0.00613706 0)
(1.00629 0.00503052 0)
(1.00695 -0.000455368 0)
(0.990037 0.0045853 0)
(0.986665 0.00585669 0)
(0.989531 0.0134876 0)
(0.996639 0.0170192 0)
(1.00074 0.0114271 0)
(0.997932 0.0172804 0)
(0.998441 0.0102469 0)
(0.990506 0.0173536 0)
(0.989601 0.0186892 0)
(0.992756 0.0180539 0)
(0.992485 0.0196259 0)
(0.996234 0.00311011 0)
(1.00081 -0.000519427 0)
(1.0001 0.00662813 0)
(1.00518 0.00383292 0)
(0.986026 0.012635 0)
(1.01803 0.0182086 0)
(1.01665 0.0065224 0)
(1.0065 0.00522533 0)
(1.00821 -0.000136226 0)
(0.993243 0.00487565 0)
(0.99059 0.00600883 0)
(0.992424 0.0131933 0)
(0.998246 0.0167492 0)
(1.00174 0.0113932 0)
(0.999834 0.0171696 0)
(1.00106 0.0108125 0)
(0.995008 0.01723 0)
(0.994796 0.0190251 0)
(0.998695 0.0176997 0)
(0.99866 0.0194288 0)
(0.998573 0.0031109 0)
(1.00067 -0.000506377 0)
(0.998367 0.00654839 0)
(1.00368 0.00398717 0)
(0.993394 0.0125277 0)
(1.01771 0.0175176 0)
(1.01504 0.00691039 0)
(1.00699 0.00538733 0)
(1.00907 0.000123003 0)
(0.995914 0.00512331 0)
(0.99441 0.00615966 0)
(0.996022 0.0129307 0)
(1.00094 0.0165143 0)
(1.00355 0.0113729 0)
(1.0023 0.0169865 0)
(1.00389 0.0113185 0)
(0.999586 0.0170192 0)
(1.00001 0.0192536 0)
(1.00444 0.0173795 0)
(1.00452 0.0191229 0)
(0.99995 0.00308968 0)
(1.00069 -0.000452844 0)
(0.997871 0.00648356 0)
(1.00199 0.00404063 0)
(0.9988 0.0123964 0)
(1.01691 0.0169344 0)
(1.01367 0.00728029 0)
(1.00773 0.00552908 0)
(1.0097 0.000336029 0)
(0.997933 0.00532146 0)
(0.99758 0.00628323 0)
(0.999449 0.0126789 0)
(1.00383 0.0163024 0)
(1.00557 0.0113767 0)
(1.00483 0.0167577 0)
(1.00655 0.0117663 0)
(1.00372 0.0167433 0)
(1.00463 0.0193709 0)
(1.00933 0.017109 0)
(1.00941 0.0187452 0)
(1.00066 0.00305315 0)
(1.00067 -0.00037749 0)
(0.998224 0.00643312 0)
(1.00057 0.00403078 0)
(1.00235 0.0122482 0)
(1.01567 0.0164306 0)
(1.01251 0.00761236 0)
(1.00863 0.00566063 0)
(1.01029 0.000517408 0)
(0.999331 0.00548187 0)
(0.999845 0.00637242 0)
(1.00212 0.0124206 0)
(1.00622 0.0161074 0)
(1.00723 0.011405 0)
(1.00688 0.0164968 0)
(1.00862 0.0121636 0)
(1.00696 0.0164219 0)
(1.00814 0.0193915 0)
(1.01291 0.0168948 0)
(1.01295 0.0183231 0)
(1.00092 0.00300773 0)
(1.0006 -0.000295152 0)
(0.999044 0.0063917 0)
(0.999583 0.00399292 0)
(1.00437 0.0120882 0)
(1.01422 0.015984 0)
(1.01153 0.00789368 0)
(1.0095 0.00578775 0)
(1.01089 0.000681579 0)
(1.00022 0.00562796 0)
(1.00123 0.00643534 0)
(1.00385 0.0121517 0)
(1.00773 0.0159197 0)
(1.00823 0.0114539 0)
(1.00817 0.0162179 0)
(1.00989 0.0125135 0)
(1.00908 0.0160708 0)
(1.01036 0.019336 0)
(1.01506 0.0167375 0)
(1.01511 0.0178724 0)
(1.0009 0.00295724 0)
(1.00048 -0.000212404 0)
(1.00001 0.00635024 0)
(0.999025 0.00395486 0)
(1.00526 0.0119227 0)
(1.01278 0.015574 0)
(1.01072 0.00811959 0)
(1.0102 0.00591086 0)
(1.01149 0.000838079 0)
(1.00077 0.00577419 0)
(1.00194 0.00648776 0)
(1.00477 0.0118738 0)
(1.00838 0.0157371 0)
(1.00859 0.0115119 0)
(1.0087 0.0159402 0)
(1.01039 0.0128161 0)
(1.01017 0.0157095 0)
(1.01142 0.0192232 0)
(1.01597 0.0166344 0)
(1.01612 0.0173951 0)
(1.00076 0.00290419 0)
(1.00035 -0.000131853 0)
(1.00092 0.00629998 0)
(0.998828 0.00393469 0)
(1.00541 0.0117552 0)
(1.01153 0.015184 0)
(1.01007 0.00829012 0)
(1.01066 0.00603273 0)
(1.01201 0.000990422 0)
(1.00113 0.00593062 0)
(1.0022 0.00654417 0)
(1.00516 0.0115848 0)
(1.0084 0.0155642 0)
(1.0085 0.011574 0)
(1.00867 0.0156641 0)
(1.01038 0.0130893 0)
(1.01055 0.0153537 0)
(1.0117 0.0190563 0)
(1.01602 0.016578 0)
(1.01638 0.0168969 0)
(1.00058 0.00284971 0)
(1.00023 -5.37383e-05 0)
(1.00166 0.00623422 0)
(0.998889 0.00394312 0)
(1.00519 0.0115854 0)
(1.01052 0.0148026 0)
(1.00957 0.00840953 0)
(1.0109 0.0061585 0)
(1.01239 0.00113414 0)
(1.00142 0.00610432 0)
(1.00221 0.00662076 0)
(1.00527 0.0112854 0)
(1.00804 0.0153984 0)
(1.00822 0.0116329 0)
(1.00838 0.0153796 0)
(1.01012 0.0133573 0)
(1.01056 0.0150083 0)
(1.01159 0.0188315 0)
(1.0156 0.0165662 0)
(1.01626 0.0163929 0)
(1.0004 0.00279277 0)
(1.00016 2.65127e-05 0)
(1.00219 0.0061476 0)
(0.999105 0.00398432 0)
(1.00483 0.0114122 0)
(1.00975 0.0144249 0)
(1.00917 0.00848272 0)
(1.011 0.0062934 0)
(1.01261 0.00126783 0)
(1.0017 0.00629318 0)
(1.0021 0.00672978 0)
(1.0053 0.0109725 0)
(1.00755 0.015245 0)
(1.0079 0.0116854 0)
(1.00802 0.0150818 0)
(1.00983 0.0136217 0)
(1.01046 0.0146786 0)
(1.0114 0.0185494 0)
(1.01501 0.0166071 0)
(1.01601 0.0159068 0)
(1.00024 0.00273238 0)
(1.00014 0.000112593 0)
(1.00254 0.00603605 0)
(0.999394 0.00405921 0)
(1.00448 0.0112311 0)
(1.00921 0.0140513 0)
(1.00881 0.00851501 0)
(1.01101 0.006439 0)
(1.01268 0.0013974 0)
(1.00199 0.00648413 0)
(1.00196 0.00687712 0)
(1.00537 0.0106512 0)
(1.00704 0.0150933 0)
(1.00763 0.0117365 0)
(1.00772 0.0147698 0)
(1.0096 0.0138773 0)
(1.01037 0.0143835 0)
(1.01127 0.0181986 0)
(1.01439 0.0166924 0)
(1.01574 0.0154746 0)
(1.00011 0.00266774 0)
(1.00019 0.0002076 0)
(1.00271 0.005898 0)
(0.999708 0.00416385 0)
(1.00419 0.0110422 0)
(1.00887 0.0136803 0)
(1.00846 0.00851351 0)
(1.01099 0.00659848 0)
(1.01262 0.00152377 0)
(1.00229 0.00666657 0)
(1.00182 0.00706787 0)
(1.00551 0.0103265 0)
(1.0066 0.0149331 0)
(1.00743 0.0117944 0)
(1.0075 0.014433 0)
(1.00944 0.0141161 0)
(1.01032 0.014146 0)
(1.01125 0.0177656 0)
(1.01384 0.0167939 0)
(1.01549 0.0151436 0)
(0.999977 0.00259566 0)
(1.0003 0.000316925 0)
(1.00275 0.00573423 0)
(1.00002 0.00429313 0)
(1.00399 0.0108408 0)
(1.00869 0.0133188 0)
(1.00809 0.00848119 0)
(1.01095 0.0067733 0)
(1.01249 0.00164953 0)
(1.00258 0.00682861 0)
(1.00171 0.00730582 0)
(1.00573 0.00999428 0)
(1.00627 0.0147666 0)
(1.00728 0.0118706 0)
(1.00736 0.0140693 0)
(1.00935 0.0143241 0)
(1.01032 0.01398 0)
(1.01134 0.0172501 0)
(1.01338 0.0168691 0)
(1.01525 0.0149508 0)
(0.999857 0.00251572 0)
(1.00046 0.000440896 0)
(1.00271 0.00554525 0)
(1.00032 0.0044456 0)
(1.00385 0.010623 0)
(1.00861 0.0129668 0)
(1.0077 0.00842571 0)
(1.01088 0.00695464 0)
(1.01233 0.00178463 0)
(1.00287 0.00696137 0)
(1.00165 0.0075757 0)
(1.00602 0.00966955 0)
(1.00606 0.0145847 0)
(1.00715 0.0119682 0)
(1.0073 0.0136873 0)
(1.00929 0.0144864 0)
(1.01034 0.0139004 0)
(1.01149 0.0166742 0)
(1.01304 0.0168677 0)
(1.01501 0.0149081 0)
(0.99975 0.00242733 0)
(1.00064 0.00058158 0)
(1.00261 0.00533167 0)
(1.0006 0.00461533 0)
(1.00376 0.0103933 0)
(1.0086 0.0126235 0)
(1.00732 0.00835381 0)
(1.01077 0.00713787 0)
(1.01217 0.00193523 0)
(1.00313 0.00705575 0)
(1.00162 0.00786964 0)
(1.00634 0.00936752 0)
(1.00596 0.0143758 0)
(1.00702 0.0120974 0)
(1.00729 0.013293 0)
(1.00927 0.0145796 0)
(1.01036 0.0139082 0)
(1.01167 0.0160798 0)
(1.01281 0.0167442 0)
(1.01475 0.0150017 0)
(0.999662 0.00232779 0)
(1.00081 0.000741177 0)
(1.00251 0.00509663 0)
(1.00086 0.00479771 0)
(1.0037 0.0101491 0)
(1.00861 0.0122932 0)
(1.00694 0.00827164 0)
(1.01062 0.0073143 0)
(1.01203 0.00210759 0)
(1.00338 0.00711398 0)
(1.00162 0.0081905 0)
(1.00666 0.00908617 0)
(1.00597 0.0141263 0)
(1.00689 0.0122631 0)
(1.00732 0.0128997 0)
(1.00927 0.0145883 0)
(1.01036 0.0139922 0)
(1.01186 0.0155181 0)
(1.0127 0.0164703 0)
(1.01447 0.0151585 0)
(0.999602 0.00221837 0)
(1.00096 0.000919385 0)
(1.00242 0.00483785 0)
(1.00109 0.00499256 0)
(1.00367 0.00988992 0)
(1.00861 0.0119705 0)
(1.0066 0.00818912 0)
(1.01042 0.0074726 0)
(1.01192 0.00230854 0)
(1.00362 0.00714192 0)
(1.00163 0.00852523 0)
(1.00697 0.00883287 0)
(1.00607 0.0138313 0)
(1.00675 0.0124594 0)
(1.00737 0.0125293 0)
(1.0093 0.0145008 0)
(1.01036 0.0141281 0)
(1.01202 0.0150342 0)
(1.01267 0.0160542 0)
(1.0142 0.0152733 0)
(0.999573 0.00209962 0)
(1.00106 0.00111264 0)
(1.00235 0.00456163 0)
(1.00129 0.00519488 0)
(1.00368 0.00961917 0)
(1.00857 0.0116537 0)
(1.0063 0.00811024 0)
(1.01017 0.00760573 0)
(1.01184 0.00253533 0)
(1.00385 0.00713947 0)
(1.00164 0.00886007 0)
(1.00724 0.00862661 0)
(1.00624 0.0134963 0)
(1.00661 0.012678 0)
(1.00743 0.0122031 0)
(1.00938 0.0143087 0)
(1.01034 0.0142802 0)
(1.01213 0.0146578 0)
(1.01271 0.0155325 0)
(1.01398 0.0152586 0)
(0.999572 0.00197063 0)
(1.00111 0.0013223 0)
(1.00231 0.00427322 0)
(1.00146 0.00539306 0)
(1.00371 0.00934957 0)
(1.00851 0.0113301 0)
(1.00603 0.00804492 0)
(1.00989 0.00770944 0)
(1.01177 0.00277738 0)
(1.00409 0.00710978 0)
(1.00165 0.00917982 0)
(1.00749 0.00847202 0)
(1.00647 0.0131199 0)
(1.00647 0.0129067 0)
(1.00748 0.0119429 0)
(1.0095 0.0140186 0)
(1.01032 0.0144166 0)
(1.01218 0.0144063 0)
(1.01278 0.0149746 0)
(1.01384 0.0150661 0)
(0.999593 0.00183237 0)
(1.00114 0.00154644 0)
(1.00229 0.00397155 0)
(1.0016 0.00558715 0)
(1.00376 0.00908304 0)
(1.00842 0.0109962 0)
(1.00579 0.00800151 0)
(1.00958 0.00778611 0)
(1.01169 0.00302986 0)
(1.00435 0.00706522 0)
(1.00166 0.0094714 0)
(1.00769 0.00836516 0)
(1.00675 0.0127 0)
(1.00634 0.0131354 0)
(1.00749 0.0117709 0)
(1.00966 0.0136458 0)
(1.01032 0.0144976 0)
(1.01217 0.0142668 0)
(1.01284 0.0144552 0)
(1.01377 0.0147064 0)
(0.999629 0.00168721 0)
(1.00113 0.00178015 0)
(1.00228 0.00366491 0)
(1.00171 0.00576972 0)
(1.00382 0.00882161 0)
(1.00831 0.0106516 0)
(1.00558 0.00797767 0)
(1.00926 0.00784903 0)
(1.01161 0.00329166 0)
(1.00462 0.00701082 0)
(1.00166 0.00973626 0)
(1.00784 0.00831562 0)
(1.00707 0.0122394 0)
(1.00624 0.0133449 0)
(1.00747 0.0116956 0)
(1.00986 0.0132137 0)
(1.01034 0.0144946 0)
(1.0121 0.0142131 0)
(1.01286 0.014031 0)
(1.01378 0.0142422 0)
(0.999673 0.00153391 0)
(1.0011 0.00202428 0)
(1.00228 0.00335838 0)
(1.00181 0.00593163 0)
(1.00388 0.00857721 0)
(1.00818 0.0102817 0)
(1.00538 0.00797646 0)
(1.00893 0.00790482 0)
(1.01151 0.00354855 0)
(1.0049 0.00695158 0)
(1.00166 0.00997743 0)
(1.00795 0.00832531 0)
(1.00742 0.0117477 0)
(1.00618 0.0135128 0)
(1.0074 0.0117207 0)
(1.01008 0.0127547 0)
(1.01042 0.0143963 0)
(1.01199 0.0142112 0)
(1.01283 0.0137127 0)
(1.0138 0.013761 0)
(0.999719 0.00137618 0)
(1.00105 0.00226903 0)
(1.00229 0.00306546 0)
(1.00189 0.00605764 0)
(1.00392 0.00836189 0)
(1.00805 0.00988532 0)
(1.00518 0.00797745 0)
(1.0086 0.00795789 0)
(1.01139 0.00379297 0)
(1.0052 0.0068847 0)
(1.00165 0.0101873 0)
(1.008 0.00838714 0)
(1.00779 0.0112422 0)
(1.00616 0.0136172 0)
(1.00728 0.0118478 0)
(1.0103 0.0122985 0)
(1.01056 0.0141912 0)
(1.01186 0.0142343 0)
(1.01272 0.0134786 0)
(1.01383 0.013328 0)
(0.999764 0.00121456 0)
(1.00099 0.0025124 0)
(1.00229 0.00279705 0)
(1.00197 0.0061352 0)
(1.00395 0.00818451 0)
(1.0079 0.0094596 0)
(1.005 0.00797345 0)
(1.00826 0.00801846 0)
(1.01125 0.00402553 0)
(1.0055 0.00679689 0)
(1.00166 0.0103593 0)
(1.00799 0.00850541 0)
(1.00818 0.0107365 0)
(1.00619 0.0136268 0)
(1.00711 0.0120673 0)
(1.01049 0.0118855 0)
(1.01076 0.0138648 0)
(1.01174 0.014266 0)
(1.01255 0.0133269 0)
(1.01381 0.0129581 0)
(0.999808 0.00105039 0)
(1.00092 0.00275077 0)
(1.00228 0.00256069 0)
(1.00205 0.00614878 0)
(1.00396 0.00805275 0)
(1.00776 0.00902276 0)
(1.00483 0.00796128 0)
(1.00791 0.0080853 0)
(1.01109 0.00425747 0)
(1.00582 0.00669957 0)
(1.00168 0.0104969 0)
(1.00792 0.00868447 0)
(1.00858 0.0102443 0)
(1.0063 0.0135172 0)
(1.00689 0.0123529 0)
(1.01063 0.0115679 0)
(1.01103 0.0134137 0)
(1.01165 0.0142608 0)
(1.01233 0.0132713 0)
(1.01375 0.0126439 0)
(0.999849 0.000889243 0)
(1.00084 0.00296846 0)
(1.00226 0.00238084 0)
(1.00212 0.00607886 0)
(1.00394 0.0079666 0)
(1.0076 0.00858348 0)
(1.00466 0.00791685 0)
(1.00756 0.00817584 0)
(1.01091 0.0044929 0)
(1.00615 0.00658389 0)
(1.00172 0.0105852 0)
(1.00779 0.00891864 0)
(1.00895 0.00979192 0)
(1.0065 0.0132866 0)
(1.00665 0.012663 0)
(1.01068 0.0113866 0)
(1.01135 0.0128731 0)
(1.01162 0.014155 0)
(1.01205 0.0133117 0)
(1.01361 0.0124001 0)
(0.999886 0.000729868 0)
(1.00075 0.00316657 0)
(1.00223 0.00225554 0)
(1.0022 0.00592159 0)
(1.0039 0.0079229 0)
(1.00743 0.00815976 0)
(1.00451 0.007829 0)
(1.00721 0.00828959 0)
(1.0107 0.00473163 0)
(1.00648 0.0064562 0)
(1.0018 0.010623 0)
(1.00761 0.00919573 0)
(1.00929 0.00940605 0)
(1.00677 0.012943 0)
(1.00642 0.0129484 0)
(1.01063 0.0113527 0)
(1.01169 0.0123136 0)
(1.01169 0.0139035 0)
(1.01176 0.0133952 0)
(1.01338 0.0122619 0)
(0.999921 0.000578639 0)
(1.00065 0.00333401 0)
(1.00217 0.00218995 0)
(1.00227 0.00566915 0)
(1.00383 0.0079146 0)
(1.00724 0.00778012 0)
(1.00438 0.00768802 0)
(1.00685 0.00840756 0)
(1.01045 0.00498722 0)
(1.00681 0.00632024 0)
(1.00192 0.0106016 0)
(1.00738 0.00949953 0)
(1.00957 0.00910789 0)
(1.00712 0.0125039 0)
(1.00623 0.0131584 0)
(1.01048 0.0114439 0)
(1.012 0.0118066 0)
(1.01186 0.0135109 0)
(1.01149 0.0134453 0)
(1.01306 0.0122502 0)
(0.999953 0.00043604 0)
(1.00054 0.00346411 0)
(1.00208 0.00218757 0)
(1.00235 0.00534932 0)
(1.00376 0.00790581 0)
(1.00704 0.00745242 0)
(1.00427 0.00749523 0)
(1.00651 0.00850937 0)
(1.01017 0.00526361 0)
(1.00713 0.00617321 0)
(1.00209 0.0105038 0)
(1.00711 0.00981461 0)
(1.00978 0.00891273 0)
(1.00753 0.0119952 0)
(1.00609 0.0132589 0)
(1.01024 0.0116279 0)
(1.01224 0.0114017 0)
(1.01212 0.0130121 0)
(1.01129 0.0133956 0)
(1.01268 0.0123236 0)
(0.999982 0.000305162 0)
(1.00043 0.00355303 0)
(1.00196 0.00223983 0)
(1.00243 0.00499238 0)
(1.00368 0.00787009 0)
(1.0068 0.00719862 0)
(1.00417 0.00725075 0)
(1.00617 0.00857498 0)
(1.00985 0.00557057 0)
(1.00742 0.0060454 0)
(1.0023 0.0103308 0)
(1.00683 0.0101143 0)
(1.0099 0.00882669 0)
(1.00798 0.0114551 0)
(1.00605 0.0132332 0)
(1.00993 0.0118608 0)
(1.01238 0.0111166 0)
(1.01244 0.0124503 0)
(1.0112 0.0132213 0)
(1.01226 0.0124062 0)
(1.00001 0.000191731 0)
(1.00033 0.00358577 0)
(1.00181 0.00235097 0)
(1.00251 0.00461867 0)
(1.00359 0.00778376 0)
(1.00654 0.00703305 0)
(1.00408 0.00698038 0)
(1.00586 0.00859153 0)
(1.00949 0.00590404 0)
(1.00768 0.00595658 0)
(1.00257 0.0100911 0)
(1.00656 0.0103642 0)
(1.00993 0.0088364 0)
(1.00844 0.0109268 0)
(1.00609 0.0130816 0)
(1.00957 0.0120973 0)
(1.0124 0.0109601 0)
(1.01278 0.0118787 0)
(1.01123 0.0129377 0)
(1.01188 0.0124465 0)
(1.00003 9.46171e-05 0)
(1.00022 0.00356731 0)
(1.00164 0.00250168 0)
(1.00257 0.00426677 0)
(1.00352 0.00761793 0)
(1.00625 0.00694926 0)
(1.00399 0.00671505 0)
(1.00558 0.00854593 0)
(1.00911 0.00624694 0)
(1.0079 0.00592178 0)
(1.00288 0.00980298 0)
(1.0063 0.0105399 0)
(1.00988 0.00891762 0)
(1.00889 0.0104466 0)
(1.00624 0.0128185 0)
(1.00921 0.01229 0)
(1.01229 0.0109255 0)
(1.01309 0.0113411 0)
(1.01137 0.0125478 0)
(1.01156 0.0124159 0)
(1.00004 1.75943e-05 0)
(1.00013 0.00349603 0)
(1.00143 0.00268078 0)
(1.00261 0.00395383 0)
(1.00346 0.00736341 0)
(1.00595 0.00693277 0)
(1.00389 0.00647538 0)
(1.00533 0.00843165 0)
(1.00871 0.00658086 0)
(1.00805 0.00595026 0)
(1.00322 0.00949388 0)
(1.00608 0.0106342 0)
(1.00975 0.00904508 0)
(1.00931 0.0100341 0)
(1.00649 0.0124638 0)
(1.00889 0.012393 0)
(1.01205 0.0109821 0)
(1.01334 0.0108858 0)
(1.01162 0.0120577 0)
(1.01135 0.0122988 0)
(1.00006 -3.78755e-05 0)
(1.00005 0.00336932 0)
(1.00121 0.00288022 0)
(1.00262 0.00369184 0)
(1.00341 0.00703316 0)
(1.00564 0.00695238 0)
(1.00378 0.00629155 0)
(1.00511 0.00824135 0)
(1.0083 0.00686733 0)
(1.00815 0.00604968 0)
(1.00358 0.00919811 0)
(1.00589 0.0106463 0)
(1.00954 0.0091842 0)
(1.00967 0.00969015 0)
(1.0068 0.0120452 0)
(1.00861 0.0123875 0)
(1.01171 0.0110822 0)
(1.01347 0.0105564 0)
(1.01192 0.0115091 0)
(1.01125 0.0120761 0)
(1.00006 -7.12693e-05 0)
(0.999987 0.00319147 0)
(1.00098 0.00308715 0)
(1.0026 0.00349611 0)
(1.00338 0.00662742 0)
(1.00532 0.00697359 0)
(1.00365 0.0061897 0)
(1.00492 0.00800441 0)
(1.0079 0.00708398 0)
(1.00819 0.00621302 0)
(1.00394 0.00892991 0)
(1.00575 0.0105818 0)
(1.00929 0.00931371 0)
(1.00996 0.00941449 0)
(1.00717 0.0115878 0)
(1.00842 0.0122731 0)
(1.0113 0.0111649 0)
(1.01347 0.0103482 0)
(1.01224 0.0109701 0)
(1.01129 0.011729 0)
(1.00007 -8.50635e-05 0)
(0.999941 0.00297453 0)
(1.00074 0.00328507 0)
(1.00255 0.00337674 0)
(1.00337 0.0061572 0)
(1.00502 0.0069674 0)
(1.00349 0.00618426 0)
(1.00474 0.00776596 0)
(1.00753 0.00721814 0)
(1.00818 0.00639874 0)
(1.00428 0.00869752 0)
(1.00565 0.0104644 0)
(1.00899 0.00942867 0)
(1.01016 0.00919975 0)
(1.00757 0.0111053 0)
(1.0083 0.0120596 0)
(1.01087 0.0112048 0)
(1.01333 0.0102307 0)
(1.01251 0.01051 0)
(1.01146 0.0112774 0)
(1.00007 -7.70307e-05 0)
(0.999917 0.0027216 0)
(1.00051 0.00345091 0)
(1.00246 0.0033408 0)
(1.00337 0.00566841 0)
(1.00476 0.00689793 0)
(1.00331 0.00625413 0)
(1.00458 0.00756284 0)
(1.00719 0.00726879 0)
(1.00813 0.00656787 0)
(1.0046 0.00850903 0)
(1.00559 0.0103076 0)
(1.00867 0.00951346 0)
(1.01028 0.00903649 0)
(1.00797 0.0106195 0)
(1.00827 0.0117614 0)
(1.01045 0.011199 0)
(1.01308 0.0101692 0)
(1.01269 0.0101551 0)
(1.0117 0.0107803 0)
(1.00006 -5.09768e-05 0)
(0.999914 0.00245284 0)
(1.00031 0.00357393 0)
(1.00232 0.00337692 0)
(1.00338 0.00519293 0)
(1.00454 0.00675113 0)
(1.00312 0.00636646 0)
(1.0044 0.00741582 0)
(1.00687 0.00725923 0)
(1.00806 0.00670061 0)
(1.0049 0.00835158 0)
(1.00556 0.0101229 0)
(1.00834 0.00956046 0)
(1.0103 0.00892009 0)
(1.00836 0.0101598 0)
(1.00833 0.0113878 0)
(1.01007 0.011126 0)
(1.01275 0.0101265 0)
(1.01276 0.0098889 0)
(1.01196 0.0103076 0)
(1.00005 -1.13339e-05 0)
(0.999931 0.00218704 0)
(1.00013 0.00364004 0)
(1.00215 0.00347914 0)
(1.00338 0.00475956 0)
(1.00438 0.00650963 0)
(1.00293 0.00648616 0)
(1.00421 0.00733778 0)
(1.00657 0.00722096 0)
(1.00797 0.0067817 0)
(1.00517 0.00819963 0)
(1.00557 0.00992206 0)
(1.00801 0.00958002 0)
(1.01024 0.00884194 0)
(1.00871 0.00974641 0)
(1.00846 0.0109673 0)
(1.00974 0.0109802 0)
(1.01237 0.0100821 0)
(1.01272 0.00969125 0)
(1.01217 0.00990972 0)
(1.00004 3.79202e-05 0)
(0.999966 0.00193872 0)
(0.999995 0.00362816 0)
(1.00196 0.00362356 0)
(1.00337 0.00440415 0)
(1.00427 0.00617475 0)
(1.00277 0.00656476 0)
(1.004 0.00733711 0)
(1.00627 0.00719002 0)
(1.00787 0.00681542 0)
(1.00542 0.00804037 0)
(1.00561 0.00969983 0)
(1.00769 0.00957089 0)
(1.01011 0.00879142 0)
(1.00901 0.00938109 0)
(1.00865 0.0105254 0)
(1.00949 0.010771 0)
(1.01197 0.0100176 0)
(1.01258 0.00953045 0)
(1.01231 0.00958781 0)
(1.00003 8.69358e-05 0)
(1.00001 0.00172079 0)
(0.999901 0.0035469 0)
(1.00175 0.00378014 0)
(1.00333 0.00413533 0)
(1.00421 0.00578915 0)
(1.00266 0.00657628 0)
(1.00379 0.00738153 0)
(1.00597 0.00718097 0)
(1.00775 0.00682096 0)
(1.00566 0.0078707 0)
(1.00568 0.0094522 0)
(1.0074 0.00951822 0)
(1.00992 0.00876193 0)
(1.00923 0.00906951 0)
(1.00888 0.0100727 0)
(1.00933 0.010503 0)
(1.01158 0.00992326 0)
(1.01238 0.00938149 0)
(1.01235 0.00931968 0)
(1.00002 0.000134547 0)
(1.00006 0.00153463 0)
(0.999851 0.00339998 0)
(1.00154 0.00393677 0)
(1.00325 0.00396294 0)
(1.00419 0.00538556 0)
(1.00261 0.00650651 0)
(1.00359 0.00743743 0)
(1.00566 0.00720535 0)
(1.00762 0.00681939 0)
(1.00587 0.00768431 0)
(1.00578 0.00918098 0)
(1.00714 0.00941614 0)
(1.00968 0.00873608 0)
(1.00937 0.00882034 0)
(1.00912 0.00962604 0)
(1.00924 0.0101737 0)
(1.0112 0.00979587 0)
(1.01212 0.00924271 0)
(1.01233 0.00907852 0)
(1.00001 0.000175962 0)
(1.00012 0.00138754 0)
(0.999847 0.00320092 0)
(1.00134 0.00406236 0)
(1.00313 0.00389758 0)
(1.0042 0.0050044 0)
(1.00264 0.00633598 0)
(1.00342 0.00746977 0)
(1.00534 0.00725492 0)
(1.00745 0.00682796 0)
(1.00606 0.00749516 0)
(1.00591 0.00888851 0)
(1.00693 0.00927296 0)
(1.00941 0.00869065 0)
(1.00943 0.00861971 0)
(1.00934 0.00921483 0)
(1.00924 0.00979101 0)
(1.01088 0.00961688 0)
(1.01181 0.00911549 0)
(1.01224 0.00884527 0)
(1.00001 0.000205985 0)
(1.00017 0.00128601 0)
(0.999882 0.00297311 0)
(1.00118 0.00413874 0)
(1.00298 0.00391648 0)
(1.0042 0.004691 0)
(1.00272 0.00606731 0)
(1.00329 0.00743801 0)
(1.00503 0.00730065 0)
(1.00726 0.00684799 0)
(1.00622 0.00732227 0)
(1.00607 0.00857595 0)
(1.00677 0.00908853 0)
(1.00913 0.00861957 0)
(1.00942 0.00844063 0)
(1.00953 0.00885391 0)
(1.0093 0.00939325 0)
(1.01063 0.00937099 0)
(1.01149 0.00899096 0)
(1.0121 0.00863123 0)
(1 0.000225794 0)
(1.00021 0.00122615 0)
(0.99995 0.00274262 0)
(1.00105 0.00415832 0)
(1.0028 0.00397501 0)
(1.00419 0.0044721 0)
(1.00286 0.00575118 0)
(1.00323 0.00732234 0)
(1.00472 0.00732493 0)
(1.00703 0.00687136 0)
(1.00633 0.00716587 0)
(1.00623 0.00825473 0)
(1.00665 0.00885593 0)
(1.00885 0.0085223 0)
(1.00935 0.00827196 0)
(1.00966 0.00852196 0)
(1.00937 0.0090097 0)
(1.01046 0.00906677 0)
(1.01117 0.00883451 0)
(1.0119 0.00844728 0)
(0.999996 0.000235586 0)
(1.00024 0.00120478 0)
(1.00004 0.00253141 0)
(1.00096 0.00411746 0)
(1.00261 0.00403936 0)
(1.00414 0.00434336 0)
(1.00302 0.00543182 0)
(1.00323 0.00710909 0)
(1.00445 0.00730263 0)
(1.00678 0.00688874 0)
(1.0064 0.00702563 0)
(1.0064 0.0079442 0)
(1.00659 0.00858534 0)
(1.00858 0.00839004 0)
(1.00922 0.00812186 0)
(1.00975 0.00821053 0)
(1.00946 0.00863754 0)
(1.01035 0.0087369 0)
(1.0109 0.00862018 0)
(1.01166 0.0082802 0)
(0.999996 0.000235544 0)
(1.00026 0.00121703 0)
(1.00014 0.00234464 0)
(1.00092 0.00402423 0)
(1.00242 0.00408172 0)
(1.00405 0.00428843 0)
(1.00318 0.0051396 0)
(1.00328 0.00682245 0)
(1.00422 0.00722062 0)
(1.00651 0.00688679 0)
(1.00641 0.00690025 0)
(1.00655 0.00764445 0)
(1.00657 0.00829223 0)
(1.00835 0.00821275 0)
(1.00904 0.00797672 0)
(1.00977 0.00793325 0)
(1.00954 0.00826509 0)
(1.01028 0.00839624 0)
(1.01068 0.00835345 0)
(1.01141 0.00808814 0)
(0.999997 0.000228616 0)
(1.00027 0.00124692 0)
(1.00024 0.00218614 0)
(1.00091 0.00389051 0)
(1.00225 0.00409315 0)
(1.00393 0.00427572 0)
(1.00332 0.00489842 0)
(1.00338 0.00650475 0)
(1.00404 0.00708263 0)
(1.00624 0.0068565 0)
(1.00637 0.00678238 0)
(1.00668 0.00735327 0)
(1.00658 0.0079834 0)
(1.00814 0.00799919 0)
(1.00884 0.00781139 0)
(1.00973 0.00769389 0)
(1.0096 0.00790974 0)
(1.01024 0.00804384 0)
(1.01051 0.00806482 0)
(1.01118 0.00784845 0)
(1 0.000218345 0)
(1.00027 0.00128157 0)
(1.00033 0.00206128 0)
(1.00092 0.00372856 0)
(1.0021 0.00406915 0)
(1.00379 0.00426994 0)
(1.00342 0.00471751 0)
(1.00351 0.00617465 0)
(1.00392 0.00688415 0)
(1.00597 0.0067965 0)
(1.00629 0.00667018 0)
(1.00677 0.00708104 0)
(1.00661 0.00766322 0)
(1.00797 0.00776101 0)
(1.00864 0.00762184 0)
(1.00963 0.00746718 0)
(1.0096 0.00759082 0)
(1.01022 0.00767842 0)
(1.01036 0.00776495 0)
(1.01098 0.00757394 0)
(1.00001 0.000203558 0)
(1.00026 0.00131428 0)
(1.00041 0.0019702 0)
(1.00096 0.00354835 0)
(1.00197 0.00401133 0)
(1.00364 0.00426193 0)
(1.00349 0.00458438 0)
(1.00364 0.00585911 0)
(1.00385 0.00664211 0)
(1.00573 0.00670156 0)
(1.00616 0.00656035 0)
(1.00683 0.00683187 0)
(1.00665 0.00733372 0)
(1.00784 0.00749035 0)
(1.00843 0.007414 0)
(1.00949 0.00723192 0)
(1.00956 0.00729985 0)
(1.0102 0.00731561 0)
(1.01024 0.00743989 0)
(1.01079 0.00728698 0)
(1.00001 0.000190748 0)
(1.00025 0.00133679 0)
(1.00048 0.001902 0)
(1.00101 0.00336765 0)
(1.00187 0.00392001 0)
(1.00348 0.00424586 0)
(1.00351 0.0044736 0)
(1.00376 0.00557187 0)
(1.00382 0.00637454 0)
(1.00551 0.00656007 0)
(1.00601 0.00643775 0)
(1.00683 0.00659847 0)
(1.00668 0.0070046 0)
(1.00774 0.00718528 0)
(1.00823 0.0071874 0)
(1.00932 0.00699728 0)
(1.00947 0.00702527 0)
(1.01015 0.00698048 0)
(1.01015 0.0070946 0)
(1.01061 0.00699849 0)
(1.00002 0.000177308 0)
(1.00024 0.00134779 0)
(1.00053 0.00185387 0)
(1.00106 0.00319648 0)
(1.0018 0.00379833 0)
(1.00332 0.00420845 0)
(1.0035 0.00438604 0)
(1.00387 0.00531482 0)
(1.00383 0.00609479 0)
(1.00532 0.00638175 0)
(1.00583 0.00629948 0)
(1.00679 0.0063742 0)
(1.0067 0.00668927 0)
(1.00766 0.00685599 0)
(1.00805 0.00691898 0)
(1.00913 0.00675482 0)
(1.00933 0.00675133 0)
(1.01005 0.00666557 0)
(1.01006 0.00673778 0)
(1.01046 0.0066819 0)
(1.00003 0.00016656 0)
(1.00022 0.00134621 0)
(1.00056 0.00181741 0)
(1.00111 0.00303415 0)
(1.00175 0.00365898 0)