/*--------------------------------*- C++ -*----------------------------------*\
| =========                 |                                                 |
| \\      /  F ield         | OpenFOAM: The Open Source CFD Toolbox           |
|  \\    /   O peration     | Version:  v1812                                 |
|   \\  /    A nd           | Web:      www.OpenFOAM.com                      |
|    \\/     M anipulation  |                                                 |
\*---------------------------------------------------------------------------*/
FoamFile
{
    version     2.0;
    format      ascii;
    class       surfaceScalarField;
    location    "9.2";
    object      phi;
}
// * * * * * * * * * * * * * * * * * * * * * * * * * * * * * * * * * * * * * //

dimensions      [0 3 -1 0 0 0 0];
oriented        oriented;


internalField   nonuniform List<scalar> 
19000
(
1.15519e-06
-1.3838e-08
1.15275e-06
-2.75777e-07
1.30132e-06
-3.89092e-07
1.13264e-06
1.46854e-06
1.02213e-06
-6.80871e-07
1.17177e-06
5.49207e-09
1.195e-06
1.64012e-08
1.15615e-06
1.00657e-06
1.1864e-06
7.36975e-07
1.16301e-06
8.51466e-07
1.16847e-06
5.60353e-07
1.16356e-06
3.76886e-07
1.14807e-06
-4.80447e-08
1.1673e-06
6.93224e-08
1.17293e-06
-7.91936e-08
1.16926e-06
9.92707e-09
1.17714e-06
1.08883e-07
1.1696e-06
1.70055e-07
1.16709e-06
2.10051e-07
2.40184e-07
1.14761e-06
1.21077e-06
-3.49565e-10
1.20347e-06
-2.68476e-07
1.36441e-06
-5.50033e-07
1.20749e-06
1.62546e-06
1.09528e-06
-5.68659e-07
1.2328e-06
-1.32025e-07
1.25268e-06
-3.47563e-09
1.21709e-06
1.04216e-06
1.24683e-06
7.07236e-07
1.23035e-06
8.67943e-07
1.22797e-06
5.62734e-07
1.2374e-06
3.67454e-07
1.21476e-06
-2.54062e-08
1.23882e-06
4.52662e-08
1.23544e-06
-7.58191e-08
1.24101e-06
4.35761e-09
1.23032e-06
1.19572e-07
1.24447e-06
1.55911e-07
1.21131e-06
2.43208e-07
2.17967e-07
1.23353e-06
1.26879e-06
1.3648e-08
1.25448e-06
-2.54168e-07
1.42418e-06
-7.1974e-07
1.30549e-06
1.74415e-06
1.18132e-06
-4.44488e-07
1.29974e-06
-2.50453e-07
1.32007e-06
-2.38037e-08
1.29503e-06
1.0672e-06
1.31092e-06
6.91341e-07
1.31418e-06
8.64684e-07
1.2974e-06
5.79514e-07
1.32276e-06
3.42095e-07
1.28865e-06
8.70143e-09
1.31352e-06
2.03983e-08
1.30321e-06
-6.55055e-08
1.31207e-06
-4.50487e-09
1.29674e-06
1.34902e-07
1.30547e-06
1.47185e-07
1.28508e-06
2.63594e-07
2.23895e-07
1.27915e-06
1.32914e-06
2.86097e-08
1.30504e-06
-2.30065e-07
1.48332e-06
-8.98022e-07
1.42253e-06
1.80494e-06
1.27826e-06
-3.00212e-07
1.37001e-06
-3.42208e-07
1.3919e-06
-4.56888e-08
1.38389e-06
1.07522e-06
1.38158e-06
6.93645e-07
1.40125e-06
8.45015e-07
1.37651e-06
6.04255e-07
1.40275e-06
3.15851e-07
1.36649e-06
4.49621e-08
1.3802e-06
6.69032e-09
1.37272e-06
-5.8027e-08
1.37746e-06
-9.2458e-09
1.36865e-06
1.43713e-07
1.36856e-06
1.47281e-07
1.35912e-06
2.73035e-07
2.37989e-07
1.34502e-06
1.39178e-06
4.51878e-08
1.35728e-06
-1.95574e-07
1.5407e-06
-1.08144e-06
1.54858e-06
1.79706e-06
1.37988e-06
-1.31508e-07
1.43794e-06
-4.0027e-07
1.46415e-06
-7.18958e-08
1.47397e-06
1.06539e-06
1.45749e-06
7.10123e-07
1.48202e-06
8.20488e-07
1.46017e-06
6.26107e-07
1.4751e-06
3.00923e-07
1.44359e-06
7.6465e-08
1.44343e-06
6.85418e-09
1.43877e-06
-5.33695e-08
1.44177e-06
-1.2242e-08
1.43885e-06
1.46631e-07
1.43663e-06
1.49501e-07
1.43189e-06
2.77774e-07
2.52099e-07
1.41778e-06
1.45716e-06
6.37088e-08
1.41468e-06
-1.53099e-07
1.59554e-06
-1.2623e-06
1.6668e-06
1.7258e-06
1.48023e-06
5.50535e-08
1.50051e-06
-4.20548e-07
1.53342e-06
-1.04808e-07
1.55831e-06
1.0405e-06
1.53739e-06
7.31043e-07
1.55705e-06
8.00832e-07
1.54314e-06
6.40019e-07
1.54458e-06
2.99476e-07
1.51768e-06
1.03369e-07
1.50758e-06
1.69588e-08
1.50111e-06
-4.69075e-08
1.50433e-06
-1.54552e-08
1.50619e-06
1.44766e-07
1.50538e-06
1.50318e-07
1.50473e-06
2.78416e-07
2.64412e-07
1.49242e-06
1.52645e-06
8.34769e-08
1.48034e-06
-1.06996e-07
1.64766e-06
-1.42961e-06
1.76308e-06
1.61038e-06
1.5763e-06
2.41831e-07
1.55988e-06
-4.04124e-07
1.59843e-06
-1.43354e-07
1.63578e-06
1.00315e-06
1.61946e-06
7.47365e-07
1.63115e-06
7.89136e-07
1.62294e-06
6.48228e-07
1.61472e-06
3.07704e-07
1.58983e-06
1.28251e-07
1.57415e-06
3.26393e-08
1.56337e-06
-3.6128e-08
1.56557e-06
-1.76513e-08
1.57105e-06
1.39286e-07
1.57257e-06
1.48801e-07
1.57619e-06
2.7479e-07
2.73805e-07
1.5668e-06
1.60124e-06
1.02364e-07
1.5558e-06
-6.15493e-08
1.69761e-06
-1.57142e-06
1.83358e-06
1.47441e-06
1.66801e-06
4.07393e-07
1.62145e-06
-3.5756e-07
1.65967e-06
-1.81572e-07
1.70733e-06
9.55488e-07
1.70052e-06
7.54177e-07
1.70648e-06
7.83171e-07
1.69977e-06
6.54939e-07
1.68645e-06
3.21027e-07
1.66234e-06
1.52356e-07
1.64403e-06
5.09562e-08
1.62919e-06
-2.12897e-08
1.62848e-06
-1.69368e-08
1.63533e-06
1.32428e-07
1.63849e-06
1.45643e-07
1.64584e-06
2.6744e-07
2.79755e-07
1.63989e-06
1.68262e-06
1.1732e-07
1.64086e-06
-1.97878e-08
1.74726e-06
-1.67783e-06
1.88433e-06
1.33734e-06
1.7561e-06
5.35625e-07
1.6901e-06
-2.91563e-07
1.71945e-06
-2.10914e-07
1.77352e-06
9.01414e-07
1.77728e-06
7.50417e-07
1.78187e-06
7.78582e-07
1.77477e-06
6.62037e-07
1.75992e-06
3.35874e-07
1.73701e-06
1.75268e-07
1.71811e-06
6.9855e-08
1.70077e-06
-3.9455e-09
1.69622e-06
-1.23866e-08
1.70221e-06
1.26435e-07
1.70538e-06
1.42475e-07
1.71516e-06
2.57659e-07
2.82385e-07
1.71253e-06
1.77023e-06
1.25811e-07
1.73408e-06
1.63621e-08
1.80018e-06
-1.74392e-06
1.92639e-06
1.21112e-06
1.841e-06
6.21014e-07
1.76783e-06
-2.18389e-07
1.7818e-06
-2.24887e-07
1.83607e-06
8.47147e-07
1.84882e-06
7.37666e-07
1.85587e-06
7.71531e-07
1.84925e-06
6.68655e-07
1.83565e-06
3.49477e-07
1.8151e-06
1.95816e-07
1.79718e-06
8.77789e-08
1.77908e-06
1.41573e-08
1.77076e-06
-4.07063e-09
1.77453e-06
1.22669e-07
1.77611e-06
1.40892e-07
1.7866e-06
2.47165e-07
2.82308e-07
1.78668e-06
1.86243e-06
1.27127e-07
1.83325e-06
4.55395e-08
1.86067e-06
-1.77134e-06
1.97069e-06
1.1011e-06
1.9235e-06
6.68206e-07
1.85374e-06
-1.48627e-07
1.85122e-06
-2.22369e-07
1.89955e-06
7.98823e-07
1.91803e-06
7.19181e-07
1.92933e-06
7.60228e-07
1.92497e-06
6.73014e-07
1.91465e-06
3.59805e-07
1.89758e-06
2.12886e-07
1.88165e-06
1.03709e-07
1.86424e-06
3.1564e-08
1.85281e-06
7.35802e-09
1.85388e-06
1.21596e-07
1.85295e-06
1.41823e-07
1.86251e-06
2.37608e-07
2.80412e-07
1.86441e-06
1.95745e-06
1.22521e-07
1.93613e-06
6.68529e-08
1.93194e-06
-1.76715e-06
2.02465e-06
1.00839e-06
2.00525e-06
6.8761e-07
1.94558e-06
-8.89622e-08
1.93065e-06
-2.07439e-07
1.9699e-06
7.5958e-07
1.99032e-06
6.98759e-07
2.00537e-06
7.45173e-07
2.00416e-06
6.74233e-07
1.99799e-06
3.65974e-07
1.98493e-06
2.25943e-07
1.97142e-06
1.1722e-07
1.95576e-06
4.72265e-08
1.94218e-06
2.09298e-08
1.94074e-06
1.23043e-07
1.93715e-06
1.45406e-07
1.9446e-06
2.30159e-07
2.7759e-07
1.94742e-06
2.05442e-06
1.14285e-07
2.04118e-06
8.00943e-08
2.01476e-06
-1.74072e-06
2.09123e-06
9.31922e-07
2.08848e-06
6.90355e-07
2.04142e-06
-4.19024e-08
2.02052e-06
-1.86537e-07
2.05129e-06
7.28808e-07
2.07061e-06
6.79437e-07
2.08758e-06
7.28206e-07
2.08898e-06
6.72834e-07
2.08652e-06
3.68437e-07
2.07726e-06
2.35203e-07
2.06605e-06
1.28429e-07
2.05277e-06
6.05004e-08
2.03822e-06
3.54857e-08
2.03486e-06
1.26398e-07
2.02918e-06
1.51085e-07
2.03404e-06
2.253e-07
2.74504e-07
2.03713e-06
2.15362e-06
1.04667e-07
2.14788e-06
8.58345e-08
2.10786e-06
-1.7007e-06
2.17008e-06
8.69694e-07
2.17541e-06
6.85025e-07
2.1405e-06
-6.98372e-09
2.11926e-06
-1.65306e-07
2.1444e-06
7.03672e-07
2.16111e-06
6.62728e-07
2.17815e-06
7.11162e-07
2.1809e-06
6.70087e-07
2.18076e-06
3.68574e-07
2.17452e-06
2.41446e-07
2.1651e-06
1.37848e-07
2.15443e-06
7.11741e-08
2.14005e-06
4.98608e-08
2.13566e-06
1.30794e-07
2.12893e-06
1.57812e-07
2.13142e-06
2.22813e-07
2.71463e-07
2.13446e-06
2.25591e-06
9.52447e-08
2.25648e-06
8.5268e-08
2.20913e-06
-1.65335e-06
2.25961e-06
8.19216e-07
2.2679e-06
6.76732e-07
2.24317e-06
1.77513e-08
2.22477e-06
-1.46909e-07
2.24723e-06
6.81207e-07
2.2612e-06
6.48759e-07
2.27734e-06
6.95026e-07
2.28037e-06
6.67058e-07
2.281e-06
3.67943e-07
2.27683e-06
2.45615e-07
2.26852e-06
1.46154e-07
2.26022e-06
7.94786e-08
2.24694e-06
6.31401e-08
2.24232e-06
1.3541e-07
2.23576e-06
1.64372e-07
2.2366e-06
2.21982e-07
2.68473e-07
2.23959e-06
2.3623e-06
8.68231e-08
2.36765e-06
7.99184e-08
2.31682e-06
-1.60253e-06
2.35832e-06
7.77724e-07
2.36725e-06
6.67801e-07
2.3503e-06
3.46964e-08
2.33545e-06
-1.32053e-07
2.35708e-06
6.59575e-07
2.3689e-06
6.3694e-07
2.38404e-06
6.79884e-07
2.387e-06
6.64099e-07
2.38729e-06
3.67653e-07
2.38444e-06
2.48461e-07
2.37664e-06
1.53953e-07
2.37014e-06
8.59869e-08
2.35844e-06
7.48315e-08
2.35411e-06
1.39745e-07
2.34869e-06
1.69787e-07
2.34875e-06
2.21922e-07
2.65423e-07
2.3518e-06
2.4736e-06
7.96148e-08
2.48218e-06
7.13466e-08
2.42994e-06
-1.55029e-06
2.46525e-06
7.4241e-07
2.47415e-06
6.58901e-07
2.46272e-06
4.61323e-08
2.4506e-06
-1.1994e-07
2.47195e-06
6.38234e-07
2.48231e-06
6.26573e-07
2.49689e-06
6.6531e-07
2.50008e-06
6.60909e-07
2.49958e-06
3.6815e-07
2.49764e-06
2.50402e-07
2.48997e-06
1.61621e-07
2.48454e-06
9.14193e-08
2.47451e-06
8.48562e-08
2.47057e-06
1.43685e-07
2.46676e-06
1.73606e-07
2.46679e-06
2.21892e-07
2.62268e-07
2.46994e-06
2.59043e-06
7.34759e-08
2.60083e-06
6.09464e-08
2.54817e-06
-1.49763e-06
2.57985e-06
7.10723e-07
2.58877e-06
6.4998e-07
2.58091e-06
5.3994e-08
2.57027e-06
-1.09299e-07
2.59103e-06
6.17473e-07
2.60044e-06
6.17158e-07
2.61496e-06
6.50791e-07
2.61897e-06
6.56898e-07
2.61778e-06
3.6934e-07
2.61661e-06
2.51574e-07
2.60897e-06
1.69263e-07
2.60395e-06
9.64396e-08
2.59541e-06
9.33976e-08
2.5917e-06
1.47396e-07
2.58937e-06
1.7593e-07
2.58984e-06
2.21424e-07
2.59109e-07
2.593e-06
2.71321e-06
6.80949e-08
2.72431e-06
4.98496e-08
2.67162e-06
-1.44494e-06
2.70172e-06
6.80623e-07
2.71092e-06
6.40773e-07
2.70511e-06
5.98085e-08
2.69486e-06
-9.90465e-08
2.71449e-06
5.97835e-07
2.72323e-06
6.08425e-07
2.73805e-06
6.35967e-07
2.7434e-06
6.51554e-07
2.74187e-06
3.70864e-07
2.74147e-06
2.51975e-07
2.73395e-06
1.76779e-07
2.72886e-06
1.01537e-07
2.72152e-06
1.00734e-07
2.71779e-06
1.51127e-07
2.7165e-06
1.77225e-07
2.71762e-06
2.20305e-07
2.5613e-07
2.72059e-06
2.84225e-06
6.31154e-08
2.85318e-06
3.89137e-08
2.80061e-06
-1.39236e-06
2.83053e-06
6.50694e-07
2.84031e-06
6.30998e-07
2.8354e-06
6.472e-08
2.82488e-06
-8.85282e-08
2.84301e-06
5.79709e-07
2.8512e-06
6.00228e-07
2.8665e-06
6.20669e-07
2.87343e-06
6.44622e-07
2.87195e-06
3.72353e-07
2.87233e-06
2.51588e-07
2.86512e-06
1.8399e-07
2.85965e-06
1.07007e-07
2.85326e-06
1.07131e-07
2.84931e-06
1.55075e-07
2.84846e-06
1.7807e-07
2.85029e-06
2.18479e-07
2.53477e-07
2.85294e-06
2.97781e-06
5.82044e-08
2.98797e-06
2.87506e-08
2.93556e-06
-1.33995e-06
2.96612e-06
6.20134e-07
2.97671e-06
6.2041e-07
2.97189e-06
6.9533e-08
2.96083e-06
-7.7466e-08
2.97734e-06
5.63197e-07
2.98512e-06
5.92455e-07
3.00094e-06
6.04842e-07
3.00945e-06
6.36115e-07
3.00824e-06
3.73567e-07
3.00937e-06
2.50455e-07
3.00264e-06
1.9072e-07
2.99665e-06
1.13001e-07
2.99095e-06
1.12828e-07
2.98671e-06
1.59315e-07
2.9858e-06
1.78983e-07
2.98827e-06
2.16002e-07
2.51143e-07
2.99061e-06
3.12012e-06
5.3089e-08
3.12911e-06
1.97655e-08
3.07695e-06
-1.28779e-06
3.10842e-06
5.88662e-07
3.12e-06
6.08831e-07
3.11479e-06
7.47488e-08
3.10315e-06
-6.58308e-08
3.1182e-06
5.48153e-07
3.12565e-06
5.85005e-07
3.14201e-06
5.88474e-07
3.15192e-06
6.26212e-07
3.15104e-06
3.7444e-07
3.15282e-06
2.48681e-07
3.1467e-06
1.96836e-07
3.14011e-06
1.1959e-07
3.13493e-06
1.18014e-07
3.13042e-06
1.63819e-07
3.12907e-06
1.80331e-07
3.13205e-06
2.13023e-07
2.48915e-07
3.13428e-06
3.26943e-06
4.75737e-08
3.27699e-06
1.21972e-08
3.22526e-06
-1.23606e-06
3.25755e-06
5.5637e-07
3.27019e-06
5.96191e-07
3.26434e-06
8.06013e-08
3.25225e-06
-5.37401e-08
3.26612e-06
5.34279e-07
3.27332e-06
5.77811e-07
3.29022e-06
5.7157e-07
3.30128e-06
6.1515e-07
3.30068e-06
3.75045e-07
3.30294e-06
2.46421e-07
3.29754e-06
2.02235e-07
3.29033e-06
1.26801e-07
3.28553e-06
1.22819e-07
3.28089e-06
1.68459e-07
3.27887e-06
1.82345e-07
3.28214e-06
2.09755e-07
2.46455e-07
3.2846e-06
3.42596e-06
4.15468e-08
3.432e-06
6.15752e-09
3.38092e-06
-1.18498e-06
3.41373e-06
5.23561e-07
3.42739e-06
5.8253e-07
3.42088e-06
8.71094e-08
3.40853e-06
-4.1385e-08
3.4216e-06
5.21209e-07
3.42855e-06
5.70855e-07
3.44596e-06
5.54165e-07
3.45797e-06
6.03138e-07
3.45746e-06
3.75553e-07
3.46004e-06
2.43844e-07
3.45543e-06
2.06842e-07
3.44762e-06
1.34612e-07
3.4431e-06
1.27338e-07
3.43853e-06
1.73026e-07
3.43578e-06
1.85097e-07
3.43904e-06
2.06496e-07
2.43379e-07
3.44212e-06
3.58998e-06
3.49735e-08
3.59447e-06
1.66771e-09
3.54431e-06
-1.13482e-06
3.57727e-06
4.90608e-07
3.59183e-06
5.67966e-07
3.58479e-06
9.41505e-08
3.57237e-06
-2.89623e-08
3.58501e-06
5.08565e-07
3.5917e-06
5.64169e-07
3.60952e-06
5.36347e-07
3.62235e-06
5.90305e-07
3.62172e-06
3.76181e-07
3.62444e-06
2.41123e-07
3.62067e-06
2.1061e-07
3.61232e-06
1.42963e-07
3.608e-06
1.31656e-07
3.60378e-06
1.77255e-07
3.60034e-06
1.88536e-07
3.60326e-06
2.03577e-07
2.39386e-07
3.60725e-06
3.7618e-06
2.7879e-08
3.76479e-06
-1.31932e-09
3.71576e-06
-1.08579e-06
3.74852e-06
4.57844e-07
3.76385e-06
5.52636e-07
3.75647e-06
1.01534e-07
3.74412e-06
-1.66133e-08
3.75669e-06
4.95998e-07
3.76306e-06
5.57794e-07
3.78115e-06
5.18263e-07
3.79477e-06
5.76677e-07
3.79381e-06
3.77147e-07
3.79651e-06
2.38427e-07
3.7936e-06
2.13517e-07
3.7848e-06
1.51766e-07
3.78058e-06
1.35874e-07
3.77695e-06
1.80879e-07
3.77302e-06
1.92468e-07
3.77525e-06
2.01352e-07
2.3438e-07
3.78025e-06
3.94174e-06
2.03289e-08
3.94333e-06
-2.91453e-09
3.89556e-06
-1.03802e-06
3.92787e-06
4.25532e-07
3.94387e-06
5.36638e-07
3.93635e-06
1.0905e-07
3.92413e-06
-4.39119e-09
3.9369e-06
4.8323e-07
3.94296e-06
5.51732e-07
3.96109e-06
5.00135e-07
3.97558e-06
5.62186e-07
3.97412e-06
3.78609e-07
3.9766e-06
2.35941e-07
3.97459e-06
2.15534e-07
3.96544e-06
1.60916e-07
3.96118e-06
1.4013e-07
3.95836e-06
1.83699e-07
3.95424e-06
1.96587e-07
3.95545e-06
2.00143e-07
2.28511e-07
3.96132e-06
4.13017e-06
1.24056e-08
4.13052e-06
-3.26305e-09
4.08403e-06
-9.91527e-07
4.11569e-06
3.93868e-07
4.13231e-06
5.2002e-07
4.12487e-06
1.16493e-07
4.11274e-06
7.7378e-09
4.12591e-06
4.7006e-07
4.13172e-06
5.45917e-07
4.14962e-06
4.82241e-07
4.16509e-06
5.46715e-07
4.16308e-06
3.80617e-07
4.16511e-06
2.33909e-07
4.16404e-06
2.16606e-07
4.15465e-06
1.70305e-07
4.15019e-06
1.44588e-07
4.14827e-06
1.8562e-07
4.14433e-06
2.0053e-07
4.14439e-06
2.00084e-07
2.22277e-07
4.15062e-06
4.32752e-06
4.19036e-09
4.32678e-06
-2.52845e-09
4.28152e-06
-9.46266e-07
4.31239e-06
3.63002e-07
4.32962e-06
5.0279e-07
4.32244e-06
1.23666e-07
4.31032e-06
1.98626e-08
4.32402e-06
4.56365e-07
4.32972e-06
5.40212e-07
4.34706e-06
4.64898e-07
4.36363e-06
5.3015e-07
4.36116e-06
3.83087e-07
4.36244e-06
2.3263e-07
4.36237e-06
2.16671e-07
4.35287e-06
1.79811e-07
4.34797e-06
1.49483e-07
4.34698e-06
1.86616e-07
4.34357e-06
2.03935e-07
4.34258e-06
2.01078e-07
2.16371e-07
4.34848e-06
4.53421e-06
-4.24786e-09
4.53256e-06
-8.76516e-10
4.48844e-06
-9.02141e-07
4.5184e-06
3.33041e-07
4.53621e-06
4.84979e-07
4.52951e-06
1.30362e-07
4.51728e-06
3.20958e-08
4.53155e-06
4.42096e-07
4.53736e-06
5.34403e-07
4.55383e-06
4.4842e-07
4.57155e-06
5.12438e-07
4.56883e-06
3.85797e-07
4.56903e-06
2.32432e-07
4.56999e-06
2.15718e-07
4.56059e-06
1.89204e-07
4.55493e-06
1.55144e-07
4.55476e-06
1.86787e-07
4.55224e-06
2.0646e-07
4.55052e-06
2.02796e-07
2.11426e-07
4.55546e-06
4.75072e-06
-1.28509e-08
4.74831e-06
1.53522e-09
4.7052e-06
-8.59033e-07
4.73421e-06
3.04026e-07
4.75251e-06
4.66683e-07
4.7465e-06
1.36373e-07
4.73407e-06
4.45215e-08
4.74888e-06
4.27294e-07
4.75507e-06
5.28213e-07
4.7704e-06
4.33089e-07
4.7892e-06
4.9363e-07
4.7866e-06
3.884e-07
4.7854e-06
2.33637e-07
4.78732e-06
2.13794e-07
4.77833e-06
1.98191e-07
4.77165e-06
1.61828e-07
4.77204e-06
1.86395e-07
4.77065e-06
2.07855e-07
4.76868e-06
2.04763e-07
2.07799e-07
4.77231e-06
4.97751e-06
-2.15626e-08
4.97449e-06
4.55459e-09
4.93224e-06
-8.16788e-07
4.96039e-06
2.75885e-07
4.97897e-06
4.48094e-07
4.97386e-06
1.41492e-07
4.96124e-06
5.71351e-08
4.97642e-06
4.12118e-07
4.98329e-06
5.21343e-07
4.99727e-06
4.19103e-07
5.01701e-06
4.73892e-07
5.01494e-06
3.90472e-07
5.01208e-06
2.36495e-07
5.01482e-06
2.11059e-07
5.00665e-06
2.0636e-07
4.9988e-06
1.69673e-07
4.99942e-06
1.85774e-07
4.99926e-06
2.0802e-07
4.9974e-06
2.06625e-07
2.05424e-07
4.99977e-06
5.21507e-06
-3.0313e-08
5.21161e-06
8.01449e-09
5.17001e-06
-7.75189e-07
5.19748e-06
2.48412e-07
5.21611e-06
4.29465e-07
5.21205e-06
1.45555e-07
5.19937e-06
6.98061e-08
5.21465e-06
3.96846e-07
5.22246e-06
5.13526e-07
5.23502e-06
4.06548e-07
5.25543e-06
4.53482e-07
5.25429e-06
3.91612e-07
5.24968e-06
2.41102e-07
5.25297e-06
2.07774e-07
5.24604e-06
2.13282e-07
5.23712e-06
1.78597e-07
5.2375e-06
1.85399e-07
5.23857e-06
2.06942e-07
5.23703e-06
2.08165e-07
2.03959e-07
5.2385e-06
5.46388e-06
-3.90074e-08
5.46019e-06
1.17103e-08
5.41892e-06
-7.33918e-07
5.44609e-06
2.2124e-07
5.46445e-06
4.11107e-07
5.46157e-06
1.48428e-07
5.44907e-06
8.23125e-08
5.4641e-06
3.81817e-07
5.47304e-06
5.04589e-07
5.48419e-06
3.9539e-07
5.50497e-06
4.3271e-07
5.50509e-06
3.91487e-07
5.49884e-06
2.47351e-07
5.50224e-06
2.04378e-07
5.49705e-06
2.18473e-07
5.48732e-06
1.88325e-07
5.48686e-06
1.85856e-07
5.48906e-06
2.0474e-07
5.48816e-06
2.09069e-07
2.03188e-07
5.48893e-06
5.72447e-06
-4.75194e-08
5.72081e-06
1.53718e-08
5.67943e-06
-6.92541e-07
5.70681e-06
1.9386e-07
5.72455e-06
3.93364e-07
5.72293e-06
1.50051e-07
5.71092e-06
9.43272e-08
5.72536e-06
3.67372e-07
5.73547e-06
4.94478e-07
5.74537e-06
3.8549e-07
5.76615e-06
4.11928e-07
5.76784e-06
3.89805e-07
5.76018e-06
2.55008e-07
5.76314e-06
2.01412e-07
5.76009e-06
2.21529e-07
5.75003e-06
1.98382e-07
5.74816e-06
1.8773e-07
5.75125e-06
2.01643e-07
5.75128e-06
2.09043e-07
2.02904e-07
5.75156e-06
5.99737e-06
-5.56933e-08
5.99408e-06
1.86549e-08
5.95209e-06
-6.5055e-07
5.98026e-06
1.65692e-07
5.99704e-06
3.76582e-07
5.99654e-06
1.50552e-07
5.98548e-06
1.0539e-07
5.99906e-06
3.53789e-07
6.01027e-06
4.83267e-07
6.01912e-06
3.76642e-07
6.03956e-06
3.91485e-07
6.04303e-06
3.86336e-07
6.03431e-06
2.63732e-07
6.03628e-06
1.99437e-07
6.03557e-06
2.22245e-07
6.02584e-06
2.0811e-07
6.02216e-06
1.91409e-07
6.02565e-06
1.98158e-07
6.02688e-06
2.07807e-07
2.02826e-07
6.02696e-06
6.28315e-06
-6.33529e-08
6.28065e-06
2.11524e-08
6.23759e-06
-6.07487e-07
6.26702e-06
1.36261e-07
6.28266e-06
3.60942e-07
6.28286e-06
1.50347e-07
6.27328e-06
1.14972e-07
6.28587e-06
3.41197e-07
6.298e-06
4.71144e-07
6.30601e-06
3.68626e-07
6.32581e-06
3.71693e-07
6.33122e-06
3.80922e-07
6.32182e-06
2.73134e-07
6.3224e-06
1.98858e-07
6.3239e-06
2.20744e-07
6.31523e-06
2.16776e-07
6.30977e-06
1.96875e-07
6.31283e-06
1.95095e-07
6.31547e-06
2.05168e-07
2.02547e-07
6.31575e-06
6.58243e-06
-7.03092e-08
6.58118e-06
2.2399e-08
6.53683e-06
-5.6314e-07
6.56753e-06
1.05558e-07
6.58221e-06
3.46263e-07
6.58248e-06
1.50085e-07
6.57482e-06
1.22626e-07
6.5865e-06
3.29518e-07
6.59925e-06
4.58393e-07
6.60662e-06
3.61254e-07
6.62551e-06
3.52805e-07
6.63292e-06
3.7351e-07
6.62337e-06
2.82691e-07
6.62217e-06
2.00054e-07
6.6255e-06
2.17416e-07
6.61865e-06
2.23624e-07
6.61174e-06
2.0379e-07
6.61361e-06
1.93219e-07
6.61749e-06
2.01285e-07
2.01567e-07
6.61847e-06
6.89585e-06
-7.63725e-08
6.89634e-06
2.19095e-08
6.85071e-06
-5.17511e-07
6.88219e-06
7.40845e-08
6.89648e-06
3.3197e-07
6.8961e-06
1.50463e-07
6.89058e-06
1.28152e-07
6.90164e-06
3.18456e-07
6.91472e-06
4.45316e-07
6.92157e-06
3.54404e-07
6.93933e-06
3.35044e-07
6.94871e-06
3.64129e-07
6.93957e-06
2.91827e-07
6.93637e-06
2.03256e-07
6.94084e-06
2.12943e-07
6.93647e-06
2.27996e-07
6.92877e-06
2.11496e-07
6.9289e-06
1.93081e-07
6.9335e-06
1.96694e-07
1.99407e-07
6.93566e-06
7.22413e-06
-8.13637e-08
7.22683e-06
1.92118e-08
7.18005e-06
-4.70737e-07
7.21136e-06
4.27712e-08
7.22619e-06
3.17142e-07
7.22459e-06
1.52064e-07
7.22107e-06
1.31673e-07
7.23195e-06
3.07573e-07
7.24513e-06
4.32138e-07
7.25151e-06
3.48029e-07
7.26794e-06
3.18607e-07
7.27913e-06
3.52939e-07
7.27107e-06
2.99891e-07
7.2658e-06
2.08521e-07
7.27057e-06
2.08175e-07
7.26911e-06
2.29463e-07
7.26141e-06
2.19187e-07
7.25965e-06
1.94848e-07
7.26415e-06
1.9219e-07
1.95808e-07
7.26775e-06
7.56799e-06
-8.5129e-08
7.57331e-06
1.38925e-08
7.52567e-06
-4.23098e-07
7.55555e-06
1.28914e-08
7.57203e-06
3.00659e-07
7.56884e-06
1.55263e-07
7.56692e-06
1.33591e-07
7.5781e-06
2.96394e-07
7.59125e-06
4.18986e-07
7.59713e-06
3.42148e-07
7.61208e-06
3.03655e-07
7.62482e-06
3.40198e-07
7.61841e-06
3.06306e-07
7.61127e-06
2.15659e-07
7.61547e-06
2.03969e-07
7.61698e-06
2.27952e-07
7.61017e-06
2.26e-07
7.60669e-06
1.98327e-07
7.61035e-06
1.88528e-07
1.90929e-07
7.61523e-06
7.92823e-06
-8.75523e-08
7.93643e-06
5.70156e-09
7.88841e-06
-3.75078e-07
7.91536e-06
-1.40676e-08
7.93461e-06
2.81414e-07
7.92982e-06
1.60054e-07
7.92883e-06
1.34583e-07
7.94068e-06
2.84542e-07
7.95384e-06
4.05823e-07
7.95917e-06
3.36823e-07
7.97246e-06
2.90362e-07
7.98645e-06
3.26212e-07
7.98206e-06
3.10688e-07
7.97361e-06
2.2411e-07
7.97644e-06
2.01145e-07
7.98049e-06
2.23902e-07
7.97552e-06
2.30969e-07
7.97082e-06
2.03026e-07
7.97306e-06
1.86285e-07
1.85287e-07
7.9787e-06
8.3057e-06
-8.85685e-08
8.3165e-06
-5.09949e-09
8.26909e-06
-3.2767e-07
8.29156e-06
-3.65347e-08
8.31446e-06
2.58511e-07
8.30855e-06
1.65961e-07
8.30757e-06
1.35569e-07
8.32028e-06
2.71826e-07
8.33365e-06
3.92461e-07
8.3384e-06
3.32072e-07
8.34985e-06
2.78911e-07
8.36461e-06
3.11448e-07
8.36251e-06
3.12788e-07
8.35346e-06
2.33165e-07
8.35442e-06
2.00183e-07
8.36023e-06
2.18096e-07
8.35782e-06
2.33373e-07
8.35273e-06
2.08119e-07
8.35328e-06
1.85734e-07
1.79654e-07
8.35891e-06
8.70128e-06
-8.81826e-08
8.71414e-06
-1.7961e-08
8.66852e-06
-2.82054e-07
8.68512e-06
-5.31368e-08
8.71197e-06
2.31668e-07
8.7059e-06
1.72032e-07
8.70405e-06
1.37419e-07
8.71753e-06
2.58342e-07
8.73129e-06
3.787e-07
8.73555e-06
3.2781e-07
8.74491e-06
2.69549e-07
8.75984e-06
2.96518e-07
8.76025e-06
3.12378e-07
8.75139e-06
2.42025e-07
8.75045e-06
2.01125e-07
8.75705e-06
2.11502e-07
8.75748e-06
2.3294e-07
8.75297e-06
2.12632e-07
8.75205e-06
1.86654e-07
1.74875e-07
8.75683e-06
9.11591e-06
-8.64722e-08
9.1302e-06
-3.22481e-08
9.0875e-06
-2.3936e-07
9.09744e-06
-6.30764e-08
9.12753e-06
2.01581e-07
9.12267e-06
1.76894e-07
9.11924e-06
1.4085e-07
9.13298e-06
2.44597e-07
9.14733e-06
3.64355e-07
9.15123e-06
3.23905e-07
9.15818e-06
2.62599e-07
9.17284e-06
2.81863e-07
9.17585e-06
3.09366e-07
9.16811e-06
2.49768e-07
9.16556e-06
2.03674e-07
9.17199e-06
2.05064e-07
9.17519e-06
2.29748e-07
9.17199e-06
2.15823e-07
9.17022e-06
1.8843e-07
1.7148e-07
9.17361e-06
9.55058e-06
-8.35891e-08
9.5656e-06
-4.72721e-08
9.52687e-06
-2.00626e-07
9.53026e-06
-6.64748e-08
9.56178e-06
1.70061e-07
9.55961e-06
1.79065e-07
9.55416e-06
1.46306e-07
9.56725e-06
2.31501e-07
9.58229e-06
3.4932e-07
9.58621e-06
3.19985e-07
9.59075e-06
2.58057e-07
9.60474e-06
2.6787e-07
9.61027e-06
3.03843e-07
9.60439e-06
2.55642e-07
9.60078e-06
2.07281e-07
9.60634e-06
1.99505e-07
9.61181e-06
2.24279e-07
9.61045e-06
2.17182e-07
9.6085e-06
1.90388e-07
1.69474e-07
9.6105e-06
1.00063e-05
-7.97677e-08
1.00213e-05
-6.2272e-08
9.98754e-06
-1.66848e-07
9.98482e-06
-6.37588e-08
1.00157e-05
1.39224e-07
1.00172e-05
1.77477e-07
1.00097e-05
1.53838e-07
1.00213e-05
2.19928e-07
1.00371e-05
3.33475e-07
1.00418e-05
3.15341e-07
1.00444e-05
2.55457e-07
1.00572e-05
2.5508e-07
1.00649e-05
2.96157e-07
1.00613e-05
2.59242e-07
1.00572e-05
2.11345e-07
1.00614e-05
1.95264e-07
1.00685e-05
2.17252e-07
1.00692e-05
2.16459e-07
1.00675e-05
1.92048e-07
1.68413e-07
1.00686e-05
1.04842e-05
-7.53162e-08
1.04984e-05
-7.64411e-08
1.04704e-05
-1.38909e-07
1.04623e-05
-5.56078e-08
1.04902e-05
1.11279e-07
1.04963e-05
1.71425e-07
1.04875e-05
1.62623e-07
1.04965e-05
2.10863e-07
1.05132e-05
3.16845e-07
1.05192e-05
3.09268e-07
1.05205e-05
2.54198e-07
1.05313e-05
2.44276e-07
1.05408e-05
2.8662e-07
1.05396e-05
2.60497e-07
1.05358e-05
2.15173e-07
1.05386e-05
1.92445e-07
1.05463e-05
2.09553e-07
1.05492e-05
2.13571e-07
1.05481e-05
1.93111e-07
1.67763e-07
1.05488e-05
1.09853e-05
-7.0582e-08
1.09978e-05
-8.89918e-08
1.09764e-05
-1.17508e-07
1.09638e-05
-4.29313e-08
1.09871e-05
8.79037e-08
1.09978e-05
1.60713e-07
1.09893e-05
1.7117e-07
1.09949e-05
2.0531e-07
1.10116e-05
3.00138e-07
1.10196e-05
3.01211e-07
1.10203e-05
2.53541e-07
1.10289e-05
2.35685e-07
1.10394e-05
2.76034e-07
1.10405e-05
2.5945e-07
1.10374e-05
2.18286e-07
1.1039e-05
1.90816e-07
1.10466e-05
2.02006e-07
1.10515e-05
2.08674e-07
1.10513e-05
1.9326e-07
1.67244e-07
1.10518e-05
1.15107e-05
-6.5945e-08
1.15209e-05
-9.91486e-08
1.1506e-05
-1.0264e-07
1.14904e-05
-2.73393e-08
1.15081e-05
7.02555e-08
1.15227e-05
1.46117e-07
1.15163e-05
1.77581e-07
1.15181e-05
2.03421e-07
1.15336e-05
2.84663e-07
1.15435e-05
2.91316e-07
1.15446e-05
2.52425e-07
1.15513e-05
2.29057e-07
1.1562e-05
2.6532e-07
1.15651e-05
2.56372e-07
1.1563e-05
2.20379e-07
1.15639e-05
1.89913e-07
1.15707e-05
1.95213e-07
1.15771e-05
2.02221e-07
1.15783e-05
1.92088e-07
1.66789e-07
1.15787e-05
1.20616e-05
-6.17712e-08
1.20687e-05
-1.0624e-07
1.20598e-05
-9.37456e-08
1.20433e-05
-1.07949e-08
1.20546e-05
5.89715e-08
1.20715e-05
1.29197e-07
1.20691e-05
1.79939e-07
1.20681e-05
2.04501e-07
1.20808e-05
2.71892e-07
1.2092e-05
2.80169e-07
1.20943e-05
2.50076e-07
1.20995e-05
2.2388e-07
1.21098e-05
2.55043e-07
1.21145e-05
2.51673e-07
1.21136e-05
2.21285e-07
1.21142e-05
1.89316e-07
1.212e-05
1.89387e-07
1.21273e-05
1.9491e-07
1.21301e-05
1.89314e-07
1.66165e-07
1.21307e-05
1.26392e-05
-5.83707e-08
1.26428e-05
-1.09849e-07
1.26389e-05
-8.98815e-08
1.26234e-05
4.75664e-09
1.26284e-05
5.39619e-08
1.26456e-05
1.11965e-07
1.26483e-05
1.77268e-07
1.26457e-05
2.07056e-07
1.26549e-05
2.6269e-07
1.26664e-05
2.68746e-07
1.26702e-05
2.46291e-07
1.26747e-05
2.19379e-07
1.26842e-05
2.45531e-07
1.26901e-05
2.45755e-07
1.26904e-05
2.2097e-07
1.2691e-05
1.88669e-07
1.2696e-05
1.84434e-07
1.27035e-05
1.87405e-07
1.27078e-05
1.8502e-07
1.64945e-07
1.2709e-05
1.32445e-05
-5.59569e-08
1.32446e-05
-1.09921e-07
1.32445e-05
-8.98195e-08
1.32316e-05
1.76716e-08
1.32311e-05
5.44759e-08
1.32465e-05
9.65907e-08
1.32541e-05
1.69638e-07
1.32519e-05
2.09247e-07
1.32576e-05
2.57002e-07
1.32682e-05
2.58191e-07
1.32732e-05
2.41212e-07
1.32777e-05
2.14887e-07
1.32865e-05
2.36782e-07
1.32932e-05
2.39025e-07
1.32947e-05
2.19499e-07
1.32956e-05
1.87715e-07
1.32999e-05
1.8017e-07
1.33072e-05
1.80128e-07
1.33126e-05
1.79583e-07
1.62721e-07
1.33148e-05
1.38788e-05
-5.46122e-08
1.38757e-05
-1.06822e-07
1.3878e-05
-9.20679e-08
1.3869e-05
2.66602e-08
1.38641e-05
5.93774e-08
1.38757e-05
8.49223e-08
1.38872e-05
1.58162e-07
1.38872e-05
2.09307e-07
1.38901e-05
2.54068e-07
1.3899e-05
2.49288e-07
1.3905e-05
2.3522e-07
1.39098e-05
2.10069e-07
1.39181e-05
2.2851e-07
1.39253e-05
2.31801e-07
1.39278e-05
2.17016e-07
1.39292e-05
1.86301e-07
1.3933e-05
1.76364e-07
1.39399e-05
1.7325e-07
1.3946e-05
1.7348e-07
1.59342e-07
1.39494e-05
1.45434e-05
-5.43755e-08
1.45374e-05
-1.0076e-07
1.45403e-05
-9.49582e-08
1.45362e-05
3.07492e-08
1.45286e-05
6.6939e-08
1.45352e-05
7.83162e-08
1.45486e-05
1.4482e-07
1.45521e-05
2.05786e-07
1.45536e-05
2.5257e-07
1.45606e-05
2.42237e-07
1.45669e-05
2.28989e-07
1.45721e-05
2.04819e-07
1.45802e-05
2.20447e-07
1.45878e-05
2.24171e-07
1.45911e-05
2.13692e-07
1.4593e-05
1.84401e-07
1.45966e-05
1.7277e-07
1.46031e-05
1.66788e-07
1.46095e-05
1.67098e-07
1.54958e-07
1.46138e-05
1.52394e-05
-5.48826e-08
1.52286e-05
-9.00136e-08
1.52329e-05
-9.92439e-08
1.52348e-05
2.88968e-08
1.52257e-05
7.59756e-08
1.52261e-05
7.80021e-08
1.52391e-05
1.31732e-07
1.52473e-05
1.97621e-07
1.52493e-05
2.50535e-07
1.52546e-05
2.36962e-07
1.52605e-05
2.23106e-07
1.52661e-05
1.99183e-07
1.52741e-05
2.12501e-07
1.52822e-05
2.16089e-07
1.52862e-05
2.09616e-07
1.52886e-05
1.82016e-07
1.52921e-05
1.69281e-07
1.52982e-05
1.6068e-07
1.53046e-05
1.60678e-07
1.49883e-07
1.53097e-05
1.59692e-05
-5.67562e-08
1.59673e-05
-8.81214e-08
1.59702e-05
-1.02099e-07
1.59688e-05
3.02156e-08
1.59549e-05
8.9895e-08
1.59501e-05
8.28751e-08
1.59611e-05
1.20695e-07
1.5974e-05
1.84692e-07
1.59785e-05
2.46025e-07
1.59824e-05
2.33129e-07
1.59875e-05
2.1795e-07
1.59933e-05
1.9342e-07
1.60012e-05
2.04586e-07
1.60097e-05
2.07575e-07
1.60146e-05
2.04694e-07
1.60175e-05
1.79177e-07
1.60209e-05
1.65833e-07
1.60267e-05
1.54887e-07
1.60332e-05
1.54221e-07
1.4446e-07
1.60386e-05
1.67316e-05
-5.77481e-08
1.67144e-05
-7.09381e-08
1.67134e-05
-1.01136e-07
1.67228e-05
2.08729e-08
1.67178e-05
9.48944e-08
1.67113e-05
8.93407e-08
1.67184e-05
1.13627e-07
1.67339e-05
1.69139e-07
1.67423e-05
2.37713e-07
1.67458e-05
2.29553e-07
1.67499e-05
2.13865e-07
1.67555e-05
1.87841e-07
1.67634e-05
1.96668e-07
1.67722e-05
1.98774e-07
1.6778e-05
1.98906e-07
1.67814e-05
1.75761e-07
1.67848e-05
1.6244e-07
1.67902e-05
1.49454e-07
1.67967e-05
1.47763e-07
1.38826e-07
1.68023e-05
1.75319e-05
-5.92981e-08
1.75238e-05
-6.2871e-08
1.75161e-05
-9.34166e-08
1.75204e-05
1.65872e-08
1.75178e-05
9.74595e-08
1.75109e-05
9.62439e-08
1.75139e-05
1.10637e-07
1.75294e-05
1.53706e-07
1.75412e-05
2.2583e-07
1.7546e-05
2.24829e-07
1.75492e-05
2.10658e-07
1.75542e-05
1.8278e-07
1.7562e-05
1.88947e-07
1.75711e-05
1.89648e-07
1.75776e-05
1.92352e-07
1.75818e-05
1.71638e-07
1.75853e-05
1.58881e-07
1.75903e-05
1.4447e-07
1.75967e-05
1.41397e-07
1.32958e-07
1.76025e-05
1.83686e-05
-5.95648e-08
1.83567e-05
-5.09213e-08
1.83484e-05
-8.51736e-08
1.83556e-05
9.42252e-09
1.83565e-05
9.65266e-08
1.83502e-05
1.02539e-07
1.83499e-05
1.11009e-07
1.8363e-05
1.40572e-07
1.83775e-05
2.11328e-07
1.83842e-05
2.1815e-07
1.83871e-05
2.07715e-07
1.83916e-05
1.78319e-07
1.83988e-05
1.81733e-07
1.84081e-05
1.80314e-07
1.84155e-05
1.85012e-07
1.84202e-05
1.66854e-07
1.84242e-05
1.54914e-07
1.84288e-05
1.39847e-07
1.84349e-05
1.35347e-07
1.26855e-07
1.8441e-05
1.92464e-05
-5.96041e-08
1.9238e-05
-4.2497e-08
1.92259e-05
-7.30734e-08
1.9231e-05
4.33758e-09
1.92346e-05
9.28795e-08
1.923e-05
1.07181e-07
1.92276e-05
1.13407e-07
1.92373e-05
1.30871e-07
1.92529e-05
1.95685e-07
1.92618e-05
2.09268e-07
1.92652e-05
2.04295e-07
1.92692e-05
1.74328e-07
1.92758e-05
1.75182e-07
1.92849e-05
1.71197e-07
1.92931e-05
1.76854e-07
1.92985e-05
1.61453e-07