/*--------------------------------*- C++ -*----------------------------------*\
| =========                 |                                                 |
| \\      /  F ield         | OpenFOAM: The Open Source CFD Toolbox           |
|  \\    /   O peration     | Version:  v1906                                 |
|   \\  /    A nd           | Web:      www.OpenFOAM.com                      |
|    \\/     M anipulation  |                                                 |
\*---------------------------------------------------------------------------*/
FoamFile
{
    version     2.0;
    format      ascii;
    class       volVectorField;
    location    "9.2";
    object      U;
}
// * * * * * * * * * * * * * * * * * * * * * * * * * * * * * * * * * * * * * //

dimensions      [0 1 -1 0 0 0 0];


internalField   nonuniform List<vector> 
9600
(
(0.695045 -0.00024471 0)
(1.26072 -0.00303266 0)
(0.727344 -0.00308942 0)
(1.48057 0.017658 0)
(0.495383 -0.0109232 0)
(1.22829 0.00169915 0)
(0.798666 0.000721478 0)
(1.22498 0.017841 0)
(0.765688 0.0148912 0)
(1.25049 0.0180978 0)
(0.760599 0.0131874 0)
(1.22142 0.00951743 0)
(0.785339 -0.00174893 0)
(1.16662 0.00253692 0)
(0.841442 -0.00252936 0)
(1.15835 0.000378766 0)
(0.848784 0.00422521 0)
(1.15602 0.00738329 0)
(0.851437 0.00913082 0)
(1.13764 0.0123407 0)
(0.703047 -6.93026e-05 0)
(1.25361 -0.0029535 0)
(0.728355 -0.00568754 0)
(1.47499 0.0195279 0)
(0.535577 -0.0088372 0)
(1.22442 -0.00112695 0)
(0.808399 3.99771e-05 0)
(1.22244 0.0184806 0)
(0.780209 0.0143821 0)
(1.2384 0.0184194 0)
(0.791971 0.0130994 0)
(1.19654 0.00951404 0)
(0.839372 -0.00105926 0)
(1.13279 0.00182659 0)
(0.899728 -0.00262408 0)
(1.11269 0.000274676 0)
(0.920036 0.00453641 0)
(1.08318 0.00663506 0)
(0.954586 0.0109164 0)
(1.02114 0.0103621 0)
(0.720474 7.4338e-05 0)
(1.23785 -0.00289596 0)
(0.732885 -0.00765578 0)
(1.46302 0.0218612 0)
(0.606378 -0.00713027 0)
(1.21015 -0.00315227 0)
(0.833543 -0.000309529 0)
(1.21047 0.0192782 0)
(0.820614 0.0137816 0)
(1.20816 0.0187268 0)
(0.857149 0.0133456 0)
(1.15281 0.00914132 0)
(0.918582 -0.000223713 0)
(1.08377 0.00091247 0)
(0.967953 -0.00230347 0)
(1.06297 -6.86782e-05 0)
(0.983361 0.00502343 0)
(1.03605 0.00624875 0)
(1.00082 0.0118793 0)
(1.00195 0.010649 0)
(0.748731 0.000212181 0)
(1.21153 -0.00268673 0)
(0.743448 -0.00968177 0)
(1.44091 0.0231781 0)
(0.704236 -0.00528044 0)
(1.17842 -0.00474466 0)
(0.87439 -0.000577163 0)
(1.18529 0.0196322 0)
(0.882053 0.0135999 0)
(1.16331 0.0185479 0)
(0.932889 0.0139009 0)
(1.10773 0.00840926 0)
(0.983745 0.000772772 0)
(1.04714 0.000277125 0)
(1.00724 -0.00198519 0)
(1.03705 -0.0003018 0)
(1.01115 0.00545756 0)
(1.02436 0.0062172 0)
(1.01322 0.0123368 0)
(1.00814 0.0115905 0)
(0.787572 0.000369053 0)
(1.17467 -0.00235616 0)
(0.763292 -0.0118604 0)
(1.40463 0.0235412 0)
(0.816169 -0.00300992 0)
(1.13116 -0.00589747 0)
(0.92123 -0.000974154 0)
(1.14991 0.0195412 0)
(0.946976 0.0138362 0)
(1.11735 0.0179999 0)
(0.993778 0.0144699 0)
(1.07626 0.0078125 0)
(1.01969 0.0017296 0)
(1.0302 0.000103583 0)
(1.01919 -0.00184221 0)
(1.02648 -0.000403716 0)
(1.01896 0.00569661 0)
(1.02334 0.00627796 0)
(1.01839 0.0126728 0)
(1.01372 0.0124441 0)
(0.833878 0.000545966 0)
(1.13069 -0.00193194 0)
(0.793749 -0.0140653 0)
(1.3526 0.023091 0)
(0.920923 -0.000444156 0)
(1.07998 -0.00652968 0)
(0.960347 -0.00147012 0)
(1.11291 0.0191726 0)
(0.998838 0.0142583 0)
(1.08327 0.0174455 0)
(1.03038 0.0148697 0)
(1.05991 0.00760474 0)
(1.03322 0.00252656 0)
(1.02438 0.000303732 0)
(1.01839 -0.0016849 0)
(1.01862 -0.00050595 0)
(1.01817 0.00571965 0)
(1.02185 0.00635202 0)
(1.02044 0.0128532 0)
(1.01739 0.0131169 0)
(0.881802 0.00074025 0)
(1.08626 -0.00143977 0)
(0.831906 -0.0161628 0)
(1.28799 0.0218859 0)
(1.00039 0.00219176 0)
(1.03869 -0.00654438 0)
(0.983082 -0.002074 0)
(1.08157 0.0186001 0)
(1.03113 0.0146606 0)
(1.06453 0.0170841 0)
(1.04702 0.0151054 0)
(1.05225 0.00771897 0)
(1.03551 0.00323002 0)
(1.02175 0.000724577 0)
(1.01419 -0.00139056 0)
(1.01041 -0.000622634 0)
(1.01277 0.00556971 0)
(1.0176 0.00636374 0)
(1.01894 0.012782 0)
(1.01816 0.0136344 0)
(0.924627 0.000939074 0)
(1.04913 -0.000929126 0)
(0.87135 -0.0179969 0)
(1.21806 0.0201644 0)
(1.04781 0.00470107 0)
(1.01477 -0.0059891 0)
(0.989817 -0.00273605 0)
(1.05726 0.0178307 0)
(1.0454 0.0149105 0)
(1.05603 0.0169084 0)
(1.05153 0.0152708 0)
(1.04734 0.00801319 0)
(1.03345 0.00390851 0)
(1.01946 0.00125831 0)
(1.01017 -0.000954154 0)
(1.00323 -0.000651914 0)
(1.00556 0.00532153 0)
(1.01109 0.00625871 0)
(1.01441 0.012487 0)
(1.0157 0.0140162 0)
(0.957373 0.0011157 0)
(1.02455 -0.000440579 0)
(0.905809 -0.0194479 0)
(1.15121 0.0182817 0)
(1.06704 0.0067899 0)
(1.00682 -0.00504144 0)
(0.987274 -0.00331849 0)
(1.03733 0.016895 0)
(1.04608 0.0149417 0)
(1.05057 0.0168175 0)
(1.04937 0.0154383 0)
(1.04234 0.00838494 0)
(1.0299 0.00457197 0)
(1.01722 0.00183574 0)
(1.0074 -0.000415405 0)
(0.998311 -0.00054809 0)
(0.998996 0.00504706 0)
(1.00407 0.00610152 0)
(1.00826 0.0120659 0)
(1.01105 0.0142454 0)
(0.978484 0.0012375 0)
(1.01294 -2.03179e-06 0)
(0.932252 -0.02044 0)
(1.09427 0.0165058 0)
(1.0671 0.00827322 0)
(1.00808 -0.00390556 0)
(0.982967 -0.00369089 0)
(1.01974 0.0158859 0)
(1.03808 0.0147577 0)
(1.04373 0.0167068 0)
(1.04346 0.0156106 0)
(1.03667 0.0087593 0)
(1.02601 0.00518701 0)
(1.01534 0.00239908 0)
(1.00612 0.000179093 0)
(0.995914 -0.000314135 0)
(0.994475 0.00482566 0)
(0.998242 0.0060012 0)
(1.00218 0.01159 0)
(1.00567 0.0142945 0)
(0.989678 0.00128646 0)
(1.01048 0.000365958 0)
(0.951118 -0.0209644 0)
(1.05096 0.0149469 0)
(1.05725 0.00917201 0)
(1.01172 -0.00276392 0)
(0.981215 -0.00377381 0)
(1.00498 0.0149295 0)
(1.02645 0.0144202 0)
(1.03494 0.016512 0)
(1.0357 0.0157446 0)
(1.03076 0.00907247 0)
(1.02243 0.00571535 0)
(1.01405 0.00291271 0)
(1.00614 0.000778876 0)
(0.995668 4.58134e-05 0)
(0.992319 0.00471507 0)
(0.994484 0.00600696 0)
(0.997418 0.0111109 0)
(1.00081 0.0141998 0)
(0.994364 0.0012659 0)
(1.01207 0.000646596 0)
(0.964517 -0.0210773 0)
(1.02157 0.0136247 0)
(1.04431 0.00960393 0)
(1.01384 -0.00175862 0)
(0.982586 -0.00360524 0)
(0.994668 0.0141207 0)
(1.01565 0.0140146 0)
(1.02603 0.0162197 0)
(1.02789 0.0158083 0)
(1.0253 0.00928064 0)
(1.01947 0.0061338 0)
(1.01328 0.00335743 0)
(1.007 0.0013297 0)
(0.996909 0.000510489 0)
(0.992205 0.00471997 0)
(0.992875 0.00611742 0)
(0.994546 0.0107024 0)
(0.997246 0.0140436 0)
(0.995854 0.0011958 0)
(1.01391 0.00083371 0)
(0.974473 -0.020878 0)
(1.00373 0.0125202 0)
(1.03202 0.00973589 0)
(1.01352 -0.000948876 0)
(0.985668 -0.0032891 0)
(0.98942 0.0134867 0)
(1.00835 0.0136139 0)
(1.01902 0.0158625 0)
(1.02147 0.0158006 0)
(1.02082 0.00938003 0)
(1.01716 0.00643837 0)
(1.01278 0.00372821 0)
(1.00815 0.00179901 0)
(0.998884 0.00103378 0)
(0.99353 0.00481391 0)
(0.993086 0.0063196 0)
(0.993653 0.0104281 0)
(0.995398 0.0138765 0)
(0.996334 0.00110108 0)
(1.01434 0.000932238 0)
(0.982194 -0.0204738 0)
(0.99396 0.0116151 0)
(1.0218 0.00969742 0)
(1.01155 -0.000332391 0)
(0.988938 -0.00292719 0)
(0.988207 0.0129905 0)
(1.00493 0.0132608 0)
(1.01474 0.0154882 0)
(1.01715 0.0157451 0)
(1.01756 0.00939997 0)
(1.0154 0.00664579 0)
(1.01232 0.00403721 0)
(1.00914 0.00218064 0)
(1.00094 0.00156908 0)
(0.995629 0.00496699 0)
(0.994602 0.00658236 0)
(0.994482 0.0102919 0)
(0.995338 0.0137084 0)
(0.996792 0.00100225 0)
(1.01334 0.000953939 0)
(0.988175 -0.0199505 0)
(0.98905 0.0108851 0)
(1.01392 0.00958612 0)
(1.00911 0.0001131 0)
(0.991606 -0.00259342 0)
(0.989197 0.0125681 0)
(1.00422 0.0129647 0)
(1.01276 0.015129 0)
(1.01478 0.0156728 0)
(1.01545 0.00938339 0)
(1.01412 0.00678175 0)
(1.01184 0.00430547 0)
(1.00978 0.00247796 0)
(1.00265 0.00207357 0)
(0.997905 0.00515051 0)
(0.996823 0.00685437 0)
(0.996502 0.0102499 0)
(0.99675 0.013544 0)
(0.997453 0.00091138 0)
(1.01151 0.000914894 0)
(0.992595 -0.0193655 0)
(0.986781 0.0102946 0)
(1.00822 0.00946521 0)
(1.00706 0.000422779 0)
(0.993549 -0.00231937 0)
(0.990791 0.0121716 0)
(1.0047 0.0127149 0)
(1.01208 0.0147948 0)
(1.01373 0.0156045 0)
(1.01424 0.00936801 0)
(1.01323 0.00686913 0)
(1.01141 0.00455235 0)
(1.0101 0.00270763 0)
(1.00389 0.00251976 0)
(0.99994 0.00533849 0)
(0.999174 0.00709016 0)
(0.999032 0.0102513 0)
(0.998993 0.0133889 0)
(0.998235 0.000832936 0)
(1.00948 0.000832729 0)
(0.995612 -0.0187531 0)
(0.985879 0.00980825 0)
(1.0044 0.0093431 0)
(1.00575 0.000633758 0)
(0.994941 -0.00209728 0)
(0.992092 0.0117818 0)
(1.00522 0.0124985 0)
(1.01177 0.0144801 0)
(1.01327 0.0155369 0)
(1.01359 0.00937503 0)
(1.01267 0.0069266 0)
(1.01111 0.00479214 0)
(1.01025 0.00289522 0)
(1.00473 0.00289531 0)
(1.00154 0.00551416 0)
(1.00124 0.0072698 0)
(1.00146 0.0102585 0)
(1.00136 0.0132411 0)
(0.999004 0.000766607 0)
(1.00765 0.000724068 0)
(0.997457 -0.01813 0)
(0.985689 0.00938556 0)
(1.00209 0.00922252 0)
(1.00517 0.0007769 0)
(0.995983 -0.00191037 0)
(0.99284 0.0113979 0)
(1.00526 0.012304 0)
(1.01133 0.0141726 0)
(1.01288 0.0154533 0)
(1.0132 0.00940591 0)
(1.01233 0.00696314 0)
(1.01098 0.00502916 0)
(1.01037 0.00306734 0)
(1.00531 0.00320542 0)
(1.00269 0.00567239 0)
(1.00283 0.00739432 0)
(1.00343 0.0102473 0)
(1.00336 0.0130943 0)
(0.999672 0.0007099 0)
(1.00619 0.000602577 0)
(0.998412 -0.0175038 0)
(0.985879 0.00899443 0)
(1.00088 0.0091 0)
(1.0051 0.000877329 0)
(0.996791 -0.00173844 0)
(0.993143 0.0110303 0)
(1.00478 0.0121232 0)
(1.01066 0.0138616 0)
(1.01231 0.0153409 0)
(1.01287 0.0094497 0)
(1.0121 0.0069798 0)
(1.01097 0.00525935 0)
(1.01049 0.003244 0)
(1.00578 0.00347078 0)
(1.00349 0.00581796 0)
(1.00396 0.00747676 0)
(1.00482 0.0102084 0)
(1.00477 0.0129474 0)
(1.0002 0.000659094 0)
(1.00514 0.00047913 0)
(0.998753 -0.0168777 0)
(0.986271 0.00861252 0)
(1.00036 0.00896995 0)
(1.00534 0.000956804 0)
(0.997402 -0.00156517 0)
(0.993217 0.0106901 0)
(1.00396 0.0119526 0)
(1.00987 0.0135413 0)
(1.01156 0.0151934 0)
(1.01253 0.00949472 0)
(1.01192 0.00697859 0)
(1.01104 0.005476 0)
(1.01062 0.00343287 0)
(1.00619 0.00370951 0)
(1.00405 0.00595883 0)
(1.00472 0.00753373 0)
(1.00573 0.0101453 0)
(1.00563 0.0128063 0)
(1.00057 0.000610069 0)
(1.00446 0.000361957 0)
(0.998711 -0.016253 0)
(0.98678 0.00822431 0)
(1.0002 0.00882821 0)
(1.00575 0.00103103 0)
(0.997825 -0.00138642 0)
(0.993243 0.010381 0)
(1.00302 0.0117914 0)
(1.00915 0.0132099 0)
(1.01074 0.0150078 0)
(1.01217 0.00953116 0)
(1.01173 0.00696147 0)
(1.01113 0.00567593 0)
(1.01073 0.00363259 0)
(1.00657 0.00392751 0)
(1.00444 0.00610319 0)
(1.00522 0.00757772 0)
(1.00628 0.010063 0)
(1.00609 0.0126771 0)
(1.0008 0.000560471 0)
(1.00407 0.000257001 0)
(0.998457 -0.0156296 0)
(0.98738 0.00782447 0)
(1.00016 0.00867132 0)
(1.00621 0.00110798 0)
(0.998082 -0.00119771 0)
(0.993325 0.0100992 0)
(1.00212 0.0116385 0)
(1.00859 0.0128679 0)
(1.00995 0.0147878 0)
(1.0118 0.00955289 0)
(1.01154 0.0069269 0)
(1.01121 0.00586013 0)
(1.01081 0.00384295 0)
(1.00691 0.00413128 0)
(1.00473 0.00626144 0)
(1.00554 0.00761928 0)
(1.0066 0.00996099 0)
(1.0063 0.0125676 0)
(1.00087 0.000507789 0)
(1.0039 0.000165709 0)
(0.998109 -0.0150104 0)
(0.988068 0.00741164 0)
(1.0001 0.00850074 0)
(1.00667 0.00119376 0)
(0.99822 -0.000999882 0)
(0.993504 0.00984191 0)
(1.00134 0.0114904 0)
(1.00823 0.012512 0)
(1.00928 0.0145444 0)
(1.01144 0.00956222 0)
(1.01134 0.00687399 0)
(1.01124 0.00602806 0)
(1.01084 0.00406517 0)
(1.00719 0.00432485 0)
(1.00496 0.00643856 0)
(1.00575 0.00767067 0)
(1.00682 0.00983098 0)
(1.00639 0.0124785 0)
(1.0008 0.000450005 0)
(1.0039 8.98807e-05 0)
(0.997742 -0.0143984 0)
(0.988835 0.00698984 0)
(0.999963 0.00831375 0)
(1.00705 0.00128998 0)
(0.9983 -0.000798334 0)
(0.993779 0.00960419 0)
(1.00074 0.0113465 0)
(1.00805 0.0121406 0)
(1.00875 0.0142837 0)
(1.01107 0.00956642 0)
(1.01114 0.00680876 0)
(1.01122 0.00617881 0)
(1.01084 0.00430067 0)
(1.00742 0.00450304 0)
(1.00515 0.00662878 0)
(1.00592 0.00774801 0)
(1.00701 0.00967239 0)
(1.00646 0.0123864 0)
(1.00063 0.000386845 0)
(1.00399 3.22379e-05 0)
(0.997406 -0.013796 0)
(0.989648 0.00656482 0)
(0.999757 0.00811103 0)
(1.0073 0.00139485 0)
(0.998384 -0.000594028 0)
(0.994124 0.00937522 0)
(1.00033 0.0112092 0)
(1.00799 0.011756 0)
(1.00838 0.0140039 0)
(1.0107 0.00957466 0)
(1.01094 0.00673945 0)
(1.01113 0.00631176 0)
(1.01079 0.00455329 0)
(1.00761 0.00466397 0)
(1.00533 0.00681939 0)
(1.00606 0.00786324 0)
(1.00721 0.00950023 0)
(1.00658 0.0122542 0)
(1.00039 0.000318153 0)
(1.0041 -7.8757e-06 0)
(0.997137 -0.0132061 0)
(0.990449 0.0061399 0)
(0.999535 0.00789825 0)
(1.00741 0.00150653 0)
(0.998516 -0.000388671 0)
(0.994497 0.00915079 0)
(1.0001 0.0110814 0)
(1.00799 0.0113582 0)
(1.00815 0.0137033 0)
(1.01032 0.00959373 0)
(1.01075 0.00666452 0)
(1.011 0.00642269 0)
(1.0107 0.00482665 0)
(1.00777 0.00481161 0)
(1.0055 0.00699638 0)
(1.00619 0.00801854 0)
(1.00745 0.00933567 0)
(1.00677 0.0120466 0)
(1.00012 0.000243688 0)
(1.00419 -3.14443e-05 0)
(0.996964 -0.0126306 0)
(0.99118 0.00571834 0)
(0.999346 0.00767907 0)
(1.00739 0.00162012 0)
(0.998717 -0.000185832 0)
(0.994862 0.00892471 0)
(1 0.0109647 0)
(1.00801 0.0109533 0)
(1.00801 0.0133803 0)
(1.00992 0.00962808 0)
(1.01056 0.00658203 0)
(1.01086 0.00650461 0)
(1.01056 0.00512135 0)
(1.0079 0.00495229 0)
(1.00567 0.00714317 0)
(1.00633 0.00820754 0)
(1.00768 0.00920859 0)
(1.00706 0.0117474 0)
(0.999871 0.000165505 0)
(1.00422 -4.06294e-05 0)
(0.996903 -0.0120729 0)
(0.991798 0.00530603 0)
(0.99922 0.00744832 0)
(1.00724 0.00173788 0)
(0.998979 1.38388e-05 0)
(0.995197 0.00868689 0)
(0.999998 0.0108598 0)
(1.00803 0.0105533 0)
(1.00794 0.0130319 0)
(1.00952 0.00968206 0)
(1.01037 0.00650549 0)
(1.01072 0.00655393 0)
(1.01038 0.00543068 0)
(1.00802 0.00509292 0)
(1.00583 0.00724605 0)
(1.00645 0.0084121 0)
(1.0079 0.00914853 0)
(1.0074 0.0113763 0)
(0.999666 8.50497e-05 0)
(1.00417 -3.87626e-05 0)
(0.996955 -0.0115292 0)
(0.992296 0.00490482 0)
(0.999152 0.0072045 0)
(1.00701 0.00185695 0)
(0.999275 0.000212943 0)
(0.995503 0.00843637 0)
(1.00004 0.0107599 0)
(1.00803 0.010166 0)
(1.00789 0.0126563 0)
(1.00913 0.00975553 0)
(1.01015 0.00645272 0)
(1.01061 0.00657093 0)
(1.01018 0.00574986 0)
(1.00811 0.00524309 0)
(1.006 0.00729899 0)
(1.00658 0.00860598 0)
(1.00807 0.00917184 0)
(1.00777 0.0109831 0)
(0.999516 -9.50903e-08 0)
(1.00406 -2.17718e-05 0)
(0.997098 -0.0109995 0)
(0.992698 0.00451211 0)
(0.999119 0.00695712 0)
(1.00673 0.00196748 0)
(0.999574 0.000414322 0)
(0.995791 0.00816974 0)
(1.0001 0.0106555 0)
(1.00803 0.00979726 0)
(1.00787 0.0122505 0)
(1.00875 0.009839 0)
(1.0099 0.00643477 0)
(1.01052 0.00655246 0)
(1.00997 0.00607405 0)
(1.00818 0.00542177 0)
(1.00617 0.00730565 0)
(1.00672 0.00875561 0)
(1.00819 0.009269 0)
(1.00814 0.0106432 0)
(0.999419 -8.62474e-05 0)
(1.00389 3.57922e-06 0)
(0.997301 -0.0104846 0)
(0.993049 0.00413016 0)
(0.999094 0.00670526 0)
(1.00643 0.00206963 0)
(0.999849 0.000625746 0)
(0.996078 0.007888 0)
(1.00016 0.0105432 0)
(1.00802 0.00945183 0)
(1.00784 0.0118096 0)
(1.00837 0.00991715 0)
(1.00963 0.00645919 0)
(1.01047 0.00649939 0)
(1.00977 0.00638716 0)
(1.00822 0.00564517 0)
(1.00635 0.0072884 0)
(1.00687 0.00884178 0)
(1.00828 0.00939781 0)
(1.00845 0.0104159 0)
(0.999365 -0.000173067 0)
(1.0037 3.32041e-05 0)
(0.997527 -0.00997783 0)
(0.993391 0.00376405 0)
(0.999056 0.00643976 0)
(1.00612 0.00215593 0)
(1.00009 0.00084887 0)
(0.996374 0.00760048 0)
(1.0002 0.0104184 0)
(1.008 0.00913948 0)
(1.00782 0.0113373 0)
(1.00801 0.00997962 0)
(1.00934 0.00652703 0)
(1.01043 0.00642082 0)
(1.0096 0.00666934 0)
(1.00824 0.00590587 0)
(1.00653 0.00726415 0)
(1.00704 0.00887269 0)
(1.00835 0.00950975 0)
(1.00871 0.0102949 0)
(0.999344 -0.000261513 0)
(1.00348 7.12969e-05 0)
(0.99775 -0.00948128 0)
(0.993751 0.00340847 0)
(0.998998 0.00616965 0)
(1.00583 0.00222346 0)
(1.00028 0.00107701 0)
(0.996682 0.007316 0)
(1.00022 0.0102705 0)
(1.00796 0.00887111 0)
(1.00781 0.0108501 0)
(1.00766 0.0100183 0)
(1.00902 0.006636 0)
(1.01039 0.00632864 0)
(1.00945 0.00691778 0)
(1.00821 0.0061986 0)
(1.0067 0.00723742 0)
(1.00722 0.00886341 0)
(1.00842 0.00959152 0)
(1.00891 0.0102281 0)
(0.999344 -0.000349953 0)
(1.00325 0.000112974 0)
(0.99795 -0.0089917 0)
(0.99414 0.00305658 0)
(0.998923 0.00590822 0)
(1.00554 0.00226979 0)
(1.00045 0.00130056 0)
(0.996999 0.00704148 0)
(1.00022 0.0100919 0)
(1.00791 0.00864012 0)
(1.00781 0.0103611 0)
(1.00733 0.0100244 0)
(1.00867 0.00678474 0)
(1.01036 0.00623071 0)
(1.00935 0.00713052 0)
(1.00815 0.0065332 0)
(1.00685 0.00721918 0)
(1.00741 0.00880973 0)
(1.00849 0.00966342 0)
(1.00906 0.0101789 0)
(0.999358 -0.000437642 0)
(1.00302 0.000151905 0)
(0.998123 -0.00850092 0)
(0.994553 0.00270688 0)
(0.998838 0.00565777 0)
(1.00525 0.00228823 0)
(1.00059 0.00151127 0)
(0.997318 0.00677922 0)
(1.00022 0.00988565 0)
(1.00783 0.00842762 0)
(1.00781 0.0098729 0)
(1.00701 0.00999089 0)
(1.0083 0.0069713 0)
(1.01032 0.00612918 0)
(1.00929 0.00728238 0)
(1.00806 0.00690352 0)
(1.00696 0.00723253 0)
(1.00762 0.00868923 0)
(1.00857 0.00972384 0)
(1.00917 0.0101534 0)
(0.99938 -0.00052187 0)
(1.00278 0.000190375 0)
(0.998268 -0.00800699 0)
(0.994979 0.00234718 0)
(0.99875 0.00542519 0)
(1.00497 0.00229268 0)
(1.00071 0.00170735 0)
(0.997631 0.00653069 0)
(1.00021 0.00965664 0)
(1.00772 0.00822626 0)
(1.00782 0.00939297 0)
(1.00671 0.00991659 0)
(1.00789 0.00719651 0)
(1.01026 0.00604142 0)
(1.00927 0.00735211 0)
(1.00795 0.00728922 0)
(1.00703 0.00731821 0)
(1.00783 0.00850976 0)
(1.00868 0.00973443 0)
(1.00924 0.0101738 0)
(0.999405 -0.000602896 0)
(1.00255 0.000225425 0)
(0.998386 -0.00750207 0)
(0.995409 0.00197216 0)
(0.998666 0.00521005 0)
(1.0047 0.00228874 0)
(1.00082 0.00188101 0)
(0.997933 0.00630441 0)
(1.00019 0.00941403 0)
(1.00759 0.00804092 0)
(1.00782 0.00892931 0)
(1.00645 0.00979596 0)
(1.00747 0.00744833 0)
(1.01017 0.00599092 0)
(1.0093 0.007337 0)
(1.00783 0.00765481 0)
(1.00702 0.00750152 0)
(1.00802 0.00831679 0)
(1.00882 0.00964863 0)
(1.00929 0.0102308 0)
(0.999431 -0.000677224 0)
(1.00231 0.000246482 0)
(0.99848 -0.00698128 0)
(0.995832 0.00157864 0)
(0.99859 0.00500773 0)
(1.00442 0.00227932 0)
(1.00092 0.00202089 0)
(0.998222 0.00610562 0)
(1.00017 0.00916349 0)
(1.00743 0.00787024 0)
(1.00782 0.00849046 0)
(1.00621 0.00963164 0)
(1.00702 0.00771178 0)
(1.01005 0.00599092 0)
(1.00937 0.00724771 0)
(1.00774 0.00795805 0)
(1.00694 0.00776724 0)
(1.00817 0.00816786 0)
(1.00901 0.00945713 0)
(1.00934 0.0102609 0)
(0.999456 -0.000742948 0)
(1.00208 0.000249282 0)
(0.998549 -0.00644275 0)
(0.996242 0.00116351 0)
(0.998525 0.00481035 0)
(1.00414 0.00227759 0)
(1.00101 0.00211871 0)
(0.998497 0.00592262 0)
(1.00013 0.00890988 0)
(1.00723 0.00770261 0)
(1.00782 0.00807336 0)
(1.00602 0.0094277 0)
(1.00655 0.00797689 0)
(1.00987 0.00604874 0)
(1.00947 0.0071027 0)
(1.0077 0.00817301 0)
(1.00681 0.0080859 0)
(1.00825 0.00811016 0)
(1.00921 0.00920781 0)
(1.00943 0.0102005 0)
(0.999479 -0.000800656 0)
(1.00186 0.0002333 0)
(0.998594 -0.00588526 0)
(0.996636 0.000736823 0)
(0.998474 0.00460706 0)
(1.00386 0.002297 0)
(1.00108 0.00217347 0)
(0.998757 0.00573599 0)
(1.00009 0.00866145 0)
(1.00701 0.0075384 0)
(1.00781 0.00766807 0)
(1.00586 0.00917719 0)
(1.00609 0.00822846 0)
(1.00963 0.00617087 0)
(1.00958 0.00692373 0)
(1.00771 0.00828018 0)
(1.00665 0.00842097 0)
(1.00825 0.00815067 0)
(1.00941 0.00895709 0)
(1.00956 0.0100386 0)
(0.999499 -0.000844391 0)
(1.00165 0.000190069 0)
(0.998616 -0.00531464 0)
(0.997009 0.000326536 0)
(0.99844 0.00439017 0)
(1.00356 0.00234206 0)
(1.00114 0.00219198 0)
(0.999006 0.00553541 0)
(1.00005 0.0084228 0)
(1.00675 0.00739395 0)
(1.00778 0.00728322 0)
(1.00576 0.00887877 0)
(1.00563 0.00844897 0)
(1.00932 0.00636113 0)
(1.00969 0.00674235 0)
(1.00779 0.00826875 0)
(1.00649 0.00873685 0)
(1.00815 0.00827774 0)
(1.00958 0.00873806 0)
(1.00975 0.00979486 0)
(0.999517 -0.000876256 0)
(1.00145 0.000114221 0)
(0.998618 -0.0047346 0)
(0.997359 -3.76396e-05 0)
(0.998426 0.00413645 0)
(1.00327 0.00242135 0)
(1.00119 0.00220443 0)
(0.999245 0.00531938 0)
(1 0.00818338 0)
(1.00647 0.00727087 0)
(1.00773 0.00692871 0)
(1.0057 0.00853581 0)
(1.0052 0.00862001 0)
(1.00894 0.00661368 0)
(1.00977 0.00659735 0)
(1.00794 0.0081414 0)
(1.00635 0.00899595 0)
(1.00797 0.00848285 0)
(1.00967 0.00857873 0)
(1.00996 0.00949444 0)
(0.999532 -0.000892976 0)
(1.00127 1.10355e-05 0)
(0.998602 -0.00416341 0)
(0.997679 -0.000353329 0)
(0.998433 0.00383189 0)
(1.00297 0.00252594 0)
(1.00121 0.00221875 0)
(0.999474 0.00508434 0)
(0.999962 0.00793936 0)
(1.00615 0.00717361 0)
(1.00765 0.0066166 0)
(1.00569 0.0081513 0)
(1.00481 0.00872069 0)
(1.0085 0.00690544 0)
(1.00978 0.00652284 0)
(1.00814 0.0079223 0)
(1.00626 0.00915276 0)
(1.00771 0.00874225 0)
(1.00966 0.00850864 0)
(1.01018 0.00916311 0)
(0.999545 -0.000894432 0)
(1.00111 -0.000121952 0)
(0.998573 -0.00360639 0)
(0.997967 -0.000607524 0)
(0.998465 0.00346667 0)
(1.00268 0.00263362 0)
(1.0012 0.00223986 0)
(0.999692 0.00482702 0)
(0.999929 0.00768732 0)
(1.00581 0.00710016 0)
(1.00753 0.00635892 0)
(1.00572 0.00773495 0)
(1.00449 0.00873742 0)
(1.00802 0.00720385 0)
(1.00971 0.00653436 0)
(1.00838 0.00766167 0)
(1.00626 0.0091765 0)
(1.00742 0.00899789 0)
(1.00953 0.00854307 0)
(1.01037 0.00885006 0)
(0.999556 -0.000883506 0)
(1.00096 -0.000273169 0)
(0.998535 -0.00307586 0)
(0.998216 -0.000779784 0)
(0.998522 0.00304601 0)
(1.0024 0.00272692 0)
(1.00117 0.00228917 0)
(0.999896 0.00454588 0)
(0.999912 0.00740867 0)
(1.00545 0.00704094 0)
(1.00737 0.00617094 0)
(1.00577 0.00732142 0)
(1.00424 0.00867245 0)
(1.00752 0.0074746 0)
(1.00954 0.0066156 0)
(1.00861 0.00741044 0)
(1.00634 0.00907472 0)
(1.00714 0.00918358 0)
(1.00928 0.00865348 0)
(1.01046 0.00861898 0)
(0.999566 -0.000859065 0)
(1.00084 -0.000435002 0)
(0.998495 -0.00259138 0)
(0.998421 -0.000865024 0)
(0.998602 0.00259352 0)
(1.00214 0.00278645 0)
(1.0011 0.00238253 0)
(1.00008 0.00426839 0)
(0.999917 0.00709832 0)
(1.00509 0.00698514 0)
(1.00716 0.00605004 0)
(1.00583 0.0069319 0)
(1.00405 0.00852794 0)
(1.00702 0.00769069 0)
(1.00929 0.00674379 0)
(1.0088 0.00720092 0)
(1.00649 0.00888693 0)
(1.0069 0.00927727 0)
(1.00895 0.00878155 0)
(1.01044 0.00849875 0)
(0.999575 -0.000823671 0)
(1.00073 -0.000606343 0)
(0.998461 -0.00215846 0)
(0.998582 -0.000861779 0)
(0.9987 0.00213593 0)
(1.00192 0.00278787 0)
(1.001 0.00252183 0)
(1.00024 0.00403195 0)
(0.999944 0.00675548 0)
(1.00474 0.00691073 0)
(1.0069 0.00599633 0)
(1.00588 0.00658362 0)
(1.00393 0.00831377 0)
(1.00655 0.00783764 0)
(1.00897 0.0069005 0)
(1.00895 0.00703843 0)
(1.00669 0.00863219 0)
(1.00671 0.00927902 0)
(1.00858 0.00887708 0)
(1.01029 0.00845349 0)
(0.999583 -0.000779128 0)
(1.00065 -0.000770595 0)
(0.998439 -0.00179228 0)
(0.998701 -0.000785255 0)
(0.998806 0.00171366 0)
(1.00175 0.00271645 0)
(1.00089 0.00268448 0)
(1.00036 0.00385168 0)
(0.999988 0.00639359 0)
(1.00442 0.0067896 0)
(1.00661 0.00599788 0)
(1.00592 0.00629985 0)
(1.00387 0.00804793 0)
(1.00611 0.00789922 0)
(1.00859 0.0070552 0)
(1.00902 0.0069258 0)
(1.00693 0.00832712 0)
(1.00659 0.00919121 0)
(1.00819 0.00893637 0)
(1.01004 0.00843129 0)
(0.999592 -0.000731156 0)
(1.00058 -0.000918575 0)
(0.998437 -0.00150217 0)
(0.998781 -0.000645554 0)
(0.998913 0.00135022 0)
(1.00162 0.00257305 0)
(1.00077 0.00284885 0)
(1.00044 0.00373727 0)
(1.00004 0.00603244 0)
(1.00412 0.00660915 0)
(1.00629 0.00600832 0)
(1.00592 0.00608988 0)
(1.00385 0.00776233 0)
(1.00572 0.00787713 0)
(1.00817 0.00717211 0)
(1.009 0.0068588 0)
(1.00718 0.00800932 0)
(1.00656 0.00900934 0)
(1.00781 0.0089661 0)
(1.00972 0.00840861 0)
(0.999601 -0.000681947 0)
(1.00054 -0.00104513 0)
(0.99846 -0.00128799 0)
(0.998832 -0.000452761 0)
(0.99901 0.00106229 0)
(1.00154 0.00235035 0)
(1.00067 0.00298165 0)
(1.00049 0.00370558 0)
(1.0001 0.00570489 0)
(1.00386 0.00637909 0)
(1.00597 0.00599012 0)
(1.00589 0.00593578 0)
(1.00386 0.00748335 0)
(1.00539 0.00779633 0)
(1.00773 0.00724124 0)
(1.0089 0.00681879 0)
(1.0074 0.00772093 0)
(1.0066 0.00874637 0)
(1.00747 0.00894943 0)
(1.00935 0.00838959 0)
(0.999612 -0.000635921 0)
(1.0005 -0.00113978 0)
(0.998512 -0.00115087 0)
(0.998864 -0.000240708 0)
(0.999086 0.000869377 0)
(1.00151 0.00208142 0)
(1.00061 0.00304998 0)
(1.00051 0.00373901 0)
(1.00014 0.00543506 0)
(1.00364 0.00611269 0)
(1.00565 0.00593275 0)
(1.00584 0.00580675 0)
(1.00389 0.00721464 0)
(1.0051 0.00767506 0)
(1.00729 0.0072709 0)
(1.00874 0.00678302 0)
(1.00758 0.00747403 0)
(1.00671 0.00843635 0)
(1.00719 0.00886225 0)
(1.00894 0.00837942 0)
(0.999625 -0.000597155 0)
(1.00047 -0.00119869 0)
(0.998593 -0.00108224 0)
(0.998888 -2.03522e-05 0)
(0.999136 0.000766218 0)
(1.00152 0.00180229 0)
(1.00059 0.00303414 0)
(1.00052 0.00380242 0)
(1.00016 0.00524122 0)
(1.00344 0.00584546 0)
(1.00535 0.00583881 0)
(1.00577 0.00569561 0)
(1.00394 0.00696078 0)
(1.00486 0.00752195 0)
(1.00686 0.00727682 0)
(1.00852 0.00675152 0)
(1.00771 0.00725961 0)
(1.00686 0.00810875 0)
(1.00699 0.00868999 0)
(1.00852 0.00835101 0)
(0.99964 -0.000566576 0)
(1.00045 -0.00121409 0)
(0.998703 -0.00107295 0)
(0.998916 0.000175519 0)
(0.999154 0.000752525 0)
(1.00154 0.00154438 0)
(1.00062 0.00292129 0)
(1.00053 0.00385608 0)
(1.00015 0.00512836 0)
(1.00326 0.00560495 0)
(1.00507 0.00569646 0)
(1.00568 0.00557554 0)
(1.00399 0.00672276 0)
(1.00468 0.00734379 0)
(1.00645 0.00726176 0)
(1.00826 0.00673477 0)
(1.00778 0.00708503 0)
(1.00702 0.00779304 0)
(1.00687 0.00845884 0)
(1.00812 0.00828586 0)
(0.999658 -0.00055567 0)
(1.00042 -0.00119247 0)
(0.998834 -0.00108068 0)
(0.998961 0.000323764 0)
(0.999148 0.000816834 0)
(1.00156 0.00134459 0)
(1.0007 0.00272768 0)
(1.00057 0.00387181 0)
(1.00013 0.00508597 0)
(1.00308 0.00541731 0)
(1.00482 0.00554015 0)
(1.00559 0.00542942 0)
(1.00405 0.00648829 0)
(1.00454 0.00714099 0)
(1.00607 0.00720021 0)
(1.00796 0.00669951 0)
(1.00778 0.00692805 0)
(1.00718 0.00748021 0)
(1.00683 0.00817402 0)
(1.00779 0.00814518 0)
(0.999678 -0.000527116 0)
(1.0004 -0.00115537 0)
(0.998982 -0.00113727 0)
(0.999027 0.000391062 0)
(0.999122 0.000907393 0)
(1.00157 0.00120335 0)
(1.00083 0.00248224 0)
(1.00066 0.00382177 0)
(1.0001 0.00506791 0)
(1.00289 0.00527593 0)
(1.00456 0.00539579 0)
(1.0055 0.00527263 0)
(1.00411 0.00625058 0)
(1.00445 0.00692569 0)
(1.00573 0.0071113 0)
(1.00765 0.00664387 0)
(1.00773 0.00679065 0)
(1.00731 0.00719292 0)
(1.00685 0.00786967 0)
(1.00753 0.00793881 0)
(0.999699 -0.000569554 0)
(1.00036 -0.00101525 0)
(0.999134 -0.00113297 0)
(0.999124 0.000432232 0)
(0.999091 0.00104398 0)
(1.00155 0.00115951 0)
(1.00098 0.00224514 0)
(1.00081 0.00369656 0)
(1.00009 0.0050527 0)
(1.00268 0.0051833 0)
(1.00431 0.00526948 0)
(1.00541 0.00512172 0)
(1.00419 0.00600573 0)
(1.0044 0.00667989 0)
(1.00542 0.00699578 0)
(1.00733 0.00656957 0)
(1.00763 0.0066567 0)
(1.00741 0.00692996 0)
(1.00689 0.00756595 0)
(1.00735 0.00768913 0)
(0.999725 -0.000545283 0)
(1.00035 -0.00099775 0)
(0.999279 -0.0012321 0)
(0.99924 0.000383857 0)
(0.999062 0.00119001 0)
(1.00151 0.00121494 0)
(1.00113 0.00203908 0)
(1.00101 0.00346164 0)
(1.0001 0.00498663 0)
(1.00247 0.00511601 0)
(1.00405 0.00516429 0)
(1.0053 0.00498187 0)
(1.00426 0.00577351 0)
(1.0044 0.00641448 0)
(1.00517 0.00685151 0)
(1.00701 0.00648994 0)
(1.00749 0.00652812 0)
(1.00747 0.00668456 0)
(1.00694 0.00727111 0)
(1.00724 0.0074185 0)
(0.999748 -0.000572076 0)
(1.00029 -0.000869396 0)
(0.999436 -0.0012321 0)
(0.999417 0.000309669 0)
(0.999069 0.00132271 0)
(1.00143 0.00134325 0)
(1.00126 0.00191163 0)
(1.00126 0.00317277 0)
(1.00018 0.00484094 0)
(1.00228 0.00505022 0)
(1.00379 0.00508477 0)
(1.00519 0.00484695 0)
(1.00434 0.00555605 0)
(1.00444 0.00614605 0)
(1.00497 0.0066685 0)
(1.0067 0.00638652 0)
(1.00731 0.00640331 0)
(1.00751 0.00644883 0)
(1.00701 0.00697638 0)
(1.00717 0.00713843 0)
(0.999776 -0.000604655 0)
(1.00026 -0.000712601 0)
(0.999546 -0.00114928 0)
(0.999585 0.00023873 0)
(0.999095 0.00139561 0)
(1.00133 0.00146919 0)
(1.00133 0.00185013 0)
(1.00151 0.00287758 0)
(1.0003 0.00460256 0)
(1.00211 0.0049553 0)
(1.00351 0.00501786 0)
(1.00504 0.00471826 0)
(1.00439 0.00533309 0)
(1.00449 0.00586675 0)
(1.00482 0.00645002 0)
(1.00641 0.00624194 0)
(1.00709 0.00627073 0)
(1.00749 0.00622489 0)
(1.00706 0.00667618 0)
(1.00713 0.00684813 0)
(0.999797 -0.000583505 0)
(1.0002 -0.000626919 0)
(0.999652 -0.00109036 0)
(0.999782 0.000142297 0)
(0.999158 0.00138573 0)
(1.00123 0.00156458 0)
(1.00136 0.0018406 0)
(1.00175 0.00261203 0)
(1.00048 0.00429596 0)
(1.00198 0.00481302 0)
(1.00324 0.00494838 0)
(1.00487 0.00460843 0)
(1.00443 0.00512128 0)
(1.00457 0.00557939 0)
(1.00471 0.00621934 0)
(1.00615 0.00607437 0)
(1.00687 0.00612167 0)
(1.00742 0.00601577 0)
(1.0071 0.00637026 0)
(1.00712 0.00653113 0)
(0.999825 -0.000606412 0)
(1.00018 -0.000509778 0)
(0.999715 -0.000934305 0)
(0.999953 7.58675e-05 0)
(0.999241 0.00134193 0)
(1.00113 0.00164307 0)
(1.00134 0.0018879 0)
(1.00195 0.00242112 0)
(1.00069 0.00397636 0)
(1.00191 0.00461993 0)
(1.00297 0.00486711 0)
(1.00467 0.00450715 0)
(1.00442 0.00493076 0)
(1.00464 0.00528526 0)
(1.00465 0.00595974 0)
(1.00592 0.00589037 0)
(1.00662 0.00595194 0)
(1.00729 0.00581941 0)
(1.0071 0.0060908 0)
(1.00711 0.00621185 0)
(0.999839 -0.000601492 0)
(1.00013 -0.000388508 0)
(0.999766 -0.000803419 0)
(1.00012 1.47825e-05 0)
(0.999349 0.00127334 0)
(1.00104 0.0016952 0)
(1.00129 0.00194757 0)
(1.00209 0.00228877 0)
(1.00091 0.00366744 0)
(1.0019 0.00438345 0)
(1.00273 0.00477071 0)
(1.00445 0.0044248 0)
(1.00438 0.00478211 0)
(1.00471 0.00503438 0)
(1.00463 0.00568944 0)
(1.00572 0.00570641 0)
(1.00638 0.00579907 0)
(1.00714 0.00564349 0)
(1.00705 0.00586787 0)
(1.0071 0.00592367 0)
(0.999868 -0.000581277 0)
(1.00011 -0.000363268 0)
(0.99977 -0.000656604 0)
(1.00025 1.79567e-05 0)
(0.999473 0.00119085 0)
(1.00098 0.00171231 0)
(1.00122 0.00200559 0)
(1.00219 0.00221319 0)
(1.00112 0.00339705 0)
(1.00193 0.00412036 0)
(1.00253 0.00464213 0)
(1.00422 0.00433137 0)
(1.0043 0.00462644 0)
(1.00474 0.004783 0)
(1.00462 0.00537822 0)
(1.00556 0.00544127 0)
(1.00614 0.00559192 0)