/*--------------------------------*- C++ -*----------------------------------*\
| =========                 |                                                 |
| \\      /  F ield         | OpenFOAM: The Open Source CFD Toolbox           |
|  \\    /   O peration     | Version:  v1812                                 |
|   \\  /    A nd           | Web:      www.OpenFOAM.com                      |
|    \\/     M anipulation  |                                                 |
\*---------------------------------------------------------------------------*/
FoamFile
{
    version     2.0;
    format      ascii;
    class       volScalarField;
    location    "7.2";
    object      p;
}
// * * * * * * * * * * * * * * * * * * * * * * * * * * * * * * * * * * * * * //

dimensions      [0 2 -2 0 0 0 0];


internalField   nonuniform List<scalar> 
9600
(
-5.6878e-10
-0.000108763
0.00072521
0.00346392
0.00381307
0.00315781
0.00452957
0.00748559
0.00796097
0.00949008
0.00852321
0.0103056
0.0110497
0.0114944
0.0116315
0.0126498
0.0142203
0.0162737
0.0175228
0.0206723
-3.37444e-07
-0.000130053
0.000735646
0.00350111
0.00377987
0.00312517
0.00453058
0.00748998
0.00796996
0.00948614
0.00851833
0.0103022
0.0110576
0.0114996
0.0116322
0.0126458
0.0142237
0.0162304
0.0175458
0.0203788
-2.41955e-06
-0.000152328
0.000750488
0.00353307
0.00372087
0.00309283
0.00453999
0.00750309
0.00797882
0.00946694
0.00852818
0.0102962
0.0110698
0.0115046
0.0116335
0.0126379
0.0142258
0.016177
0.0175447
0.0200245
-4.22463e-06
-0.000166268
0.000772702
0.00354991
0.00366022
0.00308553
0.0045553
0.00752601
0.00799342
0.00943099
0.0085322
0.0102846
0.0110815
0.0115107
0.0116328
0.0126282
0.0142231
0.0161202
0.0175156
0.0196834
-4.45549e-06
-0.000167066
0.000803594
0.00354818
0.00360994
0.00310453
0.00457631
0.00756022
0.00801805
0.00937887
0.0085398
0.0102675
0.0110938
0.0115167
0.0116301
0.0126157
0.0142166
0.0160578
0.0174631
0.0193546
-2.23455e-06
-0.000150857
0.000843481
0.00352771
0.00357905
0.00314772
0.00460422
0.00760484
0.00805412
0.00931575
0.00855131
0.0102475
0.0111072
0.0115206
0.0116263
0.0125998
0.0142067
0.0159907
0.0173892
0.0190333
2.92576e-06
-0.000117071
0.000889794
0.00349268
0.00357575
0.00321135
0.00463984
0.007657
0.00810068
0.00924886
0.00856719
0.0102267
0.0111212
0.0115223
0.0116222
0.0125807
0.0141935
0.01592
0.0172935
0.018717
1.08822e-05
-6.76973e-05
0.000939486
0.00344961
0.0036014
0.0032884
0.00468187
0.00771262
0.0081558
0.00918353
0.00858719
0.0102063
0.0111359
0.0115226
0.0116173
0.0125595
0.0141763
0.0158455
0.0171763
0.018405
2.10936e-05
-5.12177e-06
0.000991088
0.00340472
0.00364867
0.00337079
0.00472654
0.00776737
0.00821717
0.00912208
0.00861062
0.0101868
0.0111511
0.0115217
0.0116112
0.0125375
0.0141536
0.0157671
0.0170403
0.0180964
3.30112e-05
6.90069e-05
0.001045
0.00336261
0.00370655
0.00345211
0.00476872
0.00781761
0.00828226
0.0090649
0.00863658
0.0101685
0.0111663
0.01152
0.0116037
0.0125156
0.0141244
0.0156856
0.0168887
0.0177896
4.63534e-05
0.000153569
0.00110204
0.0033263
0.00376732
0.00352879
0.00480401
0.00786085
0.00834871
0.00901152
0.00866384
0.0101513
0.0111813
0.0115182
0.011595
0.012495
0.0140892
0.0156016
0.0167244
0.0174838
6.12169e-05
0.000247253
0.00116231
0.00329735
0.00382846
0.00360003
0.00482978
0.00789588
0.00841466
0.00896131
0.00869116
0.0101354
0.0111959
0.0115171
0.0115852
0.0124764
0.0140487
0.0155149
0.0165508
0.0171799
7.79625e-05
0.000348181
0.00122521
0.0032761
0.00389029
0.00366659
0.00484661
0.00792272
0.00847904
0.00891371
0.00871754
0.0101214
0.0112097
0.0115177
0.0115745
0.0124604
0.0140043
0.0154248
0.0163712
0.0168787
9.70027e-05
0.000454199
0.00129009
0.00326203
0.00395373
0.00372992
0.00485636
0.00794223
0.00854156
0.00886845
0.00874222
0.0101098
0.0112225
0.0115205
0.0115627
0.0124465
0.0139572
0.0153299
0.0161879
0.0165812
0.000118694
0.000563402
0.00135667
0.00325403
0.00401907
0.00379133
0.00486166
0.0079556
0.00860238
0.00882549
0.00876456
0.0101007
0.011234
0.0115256
0.0115494
0.0124335
0.0139084
0.0152289
0.0160024
0.0162887
0.000143273
0.000674365
0.0014251
0.00325088
0.00408584
0.00385151
0.00486512
0.00796424
0.00866177
0.00878507
0.00878403
0.0100945
0.0112438
0.0115328
0.0115344
0.0124198
0.0138587
0.0151204
0.0158153
0.0160032
0.000170905
0.00078616
0.00149579
0.00325159
0.00415327
0.0039108
0.00486891
0.00796945
0.0087199
0.00874753
0.00880024
0.0100915
0.0112517
0.0115413
0.0115179
0.0124031
0.0138079
0.0150043
0.0156266
0.0157263
0.000201689
0.000898218
0.00156911
0.0032555
0.00422057
0.00396933
0.00487457
0.00797238
0.00877677
0.00871327
0.00881291
0.0100917
0.0112576
0.0115501
0.0115002
0.012382
0.0137558
0.014881
0.0154355
0.0154584
0.000235855
0.00101013
0.00164544
0.00326235
0.00428782
0.00402705
0.004883
0.00797404
0.00883224
0.00868268
0.00882185
0.0100953
0.0112615
0.0115582
0.0114819
0.0123554
0.013702
0.0147521
0.0152408
0.0151996
0.00027362
0.00112155
0.0017251
0.00327219
0.00435449
0.00408406
0.0048947
0.00797512
0.00888607
0.0086561
0.00882704
0.0101031
0.0112641
0.0115645
0.011463
0.0123224
0.0136457
0.0146192
0.0150418
0.0149495
0.000315211
0.00123216
0.00180834
0.00328523
0.00442038
0.00414056
0.00490981
0.00797615
0.00893799
0.00863369
0.00882854
0.0101202
0.0112661
0.0115683
0.0114436
0.0122827
0.0135859
0.0144837
0.014839
0.0147083
0.000360876
0.0013417
0.00189536
0.00330182
0.00448539
0.00419673
0.00492833
0.00797769
0.00898788
0.0086155
0.0088263
0.0101331
0.0112686
0.0115694
0.0114235
0.0122362
0.013522
0.0143467
0.0146321
0.0144759
0.000410887
0.00144992
0.00198626
0.00332238
0.00454932
0.00425278
0.00495012
0.00798013
0.00903579
0.0086016
0.00882052
0.0101443
0.0112717
0.0115674
0.0114024
0.0121829
0.0134531
0.0142095
0.0144206
0.0142505
0.000465538
0.00155659
0.00208101
0.00334732
0.00461197
0.00430901
0.00497503
0.00798369
0.00908174
0.00859188
0.00881177
0.0101547
0.0112757
0.011562
0.0113804
0.0121229
0.013378
0.0140743
0.014205
0.0140276
0.00052514
0.00166154
0.00217944
0.00337705
0.00467319
0.00436567
0.00500284
0.00798841
0.0091259
0.00858594
0.0088005
0.0101651
0.0112805
0.0115531
0.0113572
0.0120567
0.0132954
0.0139426
0.0139887
0.0138008
0.000589985
0.00176466
0.00228129
0.00341196
0.00473291
0.00442298
0.00503342
0.00799418
0.00916856
0.00858357
0.00878687
0.0101752
0.0112861
0.0115404
0.0113325
0.0119847
0.0132039
0.0138153
0.0137777
0.0135662
0.000660333
0.00186589
0.00238625
0.00345245
0.00479115
0.00448112
0.0050667
0.00800078
0.00921003
0.00858478
0.00877108
0.0101844
0.0112925
0.0115236
0.0113059
0.0119086
0.0131017
0.01369
0.0135781
0.0133273
0.000736455
0.00196527
0.0024939
0.00349894
0.0048479
0.00454029
0.00510248
0.00800785
0.00925056
0.0085897
0.00875332
0.0101923
0.0112999
0.0115024
0.0112765
0.011831
0.0129893
0.0135611
0.0133913
0.0130931
0.000818612
0.00206287
0.00260367
0.00355185
0.00490329
0.0046006
0.00514046
0.00801513
0.00929016
0.00859839
0.00873372
0.0101981
0.011309
0.0114774
0.0112426
0.0117537
0.0128704
0.0134258
0.0132129
0.0128706
0.000906975
0.0021589
0.00271504
0.00361144
0.00495764
0.00466202
0.00517655
0.00802253
0.00932885
0.00861073
0.00871219
0.0102008
0.0113198
0.0114496
0.0112028
0.0116757
0.0127488
0.0132863
0.013038
0.0126594
0.00100169
0.00225375
0.00282753
0.0036778
0.00501137
0.00472446
0.00522119
0.00803006
0.00936657
0.00862683
0.00868901
0.0101997
0.011332
0.0114197
0.011157
0.0115961
0.0126249
0.013146
0.0128669
0.012455
0.00110285
0.00234782
0.00294072
0.00375089
0.00506505
0.00478763
0.00526941
0.00803787
0.00940305
0.00864683
0.00866458
0.0101938
0.0113444
0.011388
0.0111052
0.0115157
0.0124985
0.0130042
0.0127032
0.012257
0.00121046
0.00244158
0.00305428
0.00383052
0.00511937
0.00485128
0.00532046
0.00804631
0.00943849
0.00867054
0.00863897
0.0101826
0.0113566
0.0113551
0.0110469
0.0114358
0.012372
0.012858
0.0125469
0.0120704
0.00132449
0.00253558
0.00316806
0.00391628
0.00517503
0.00491534
0.00537387
0.00805568
0.00947339
0.00869762
0.00861216
0.0101657
0.011368
0.0113216
0.0109807
0.0113561
0.0122508
0.0127072
0.0123928
0.0118996
0.0014449
0.00263038
0.00328207
0.0040076
0.0052327
0.0049802
0.00542895
0.00806581
0.0095081
0.00872799
0.0085838
0.0101424
0.0113784
0.011288
0.010905
0.0112741
0.0121389
0.0125571
0.0122355
0.0117427
0.00157171
0.00272645
0.00339639
0.00410383
0.00529294
0.00504641
0.00548499
0.00807645
0.00954305
0.00876199
0.00855368
0.0101116
0.0113878
0.0112558
0.0108198
0.011186
0.012037
0.0124153
0.0120737
0.0115927
0.00170482
0.00282412
0.00351144
0.00420443
0.00535596
0.00511468
0.00554134
0.00808711
0.00957865
0.00880027
0.00852189
0.0100718
0.0113955
0.0112281
0.0107258
0.0110884
0.0119431
0.0122873
0.0119104
0.0114423
0.00184417
0.00292355
0.00362784
0.00430913
0.00542147
0.00518617
0.00559775
0.00809658
0.00961509
0.00884411
0.00848863
0.0100205
0.0114007
0.0112081
0.0106252
0.0109774
0.011854
0.0121774
0.0117516
0.0112853
0.00198983
0.00302475
0.0037463
0.00441794
0.00548901
0.00526236
0.00565434
0.00810318
0.00965205
0.008895
0.00845509
0.00995558
0.0114009
0.0111988
0.0105221
0.0108485
0.0117642
0.0120897
0.0116065
0.0111181
0.00214178
0.00313134
0.00386744
0.00453113
0.00555792
0.00534448
0.00571155
0.00810529
0.00968808
0.00895401
0.00842385
0.00987506
0.0113911
0.0112033
0.0104244
0.0106994
0.0116645
0.0120248
0.0114889
0.0109438
0.00230013
0.00323566
0.00399119
0.0046496
0.00562721
0.0054327
0.00577102
0.00810222
0.00972139
0.00902171
0.0083983
0.00977862
0.0113659
0.0112217
0.0103412
0.0105325
0.0115434
0.0119745
0.0114112
0.0107778
0.00246509
0.00334093
0.00411702
0.00477455
0.00569636
0.00552643
0.00583481
0.00809383
0.00974994
0.00909764
0.00838203
0.00966854
0.0113193
0.0112492
0.0102814
0.0103567
0.011393
0.0119242
0.0113766
0.0106444
0.00263676
0.00344791
0.00424395
0.00490702
0.00576579
0.00562392
0.00590514
0.00808086
0.00977072
0.00917987
0.00837868
0.00954897
0.0112462
0.0112785
0.0102505
0.0101824
0.0112124
0.0118607
0.0113759
0.0105632
0.00281532
0.00355736
0.00437032
0.00504804
0.0058369
0.00572211
0.00598382
0.00806551
0.00978041
0.0092654
0.00839102
0.00942503
0.011145
0.0113022
0.0102495
0.0100195
0.0110046
0.0117757
0.011395
0.0105399
0.00300075
0.00367009
0.00449411
0.00519806
0.00591265
0.0058176
0.00607047
0.00805063
0.00977681
0.00935083
0.00842066
0.00930266
0.0110189
0.0113129
0.0102758
0.00987917
0.0107743
0.0116632
0.0114225
0.0105663
0.00319269
0.00378735
0.00461352
0.00535619
0.00599689
0.00590843
0.00616326
0.00803938
0.00975982
0.00943164
0.00846754
0.00918808
0.0108707
0.0113039
0.0103219
0.00977209
0.0105322
0.0115153
0.0114482
0.0106297
0.0033907
0.00391067
0.00472739
0.00552021
0.00609341
0.00599423
0.00625874
0.00803499
0.00973162
0.00950271
0.0085292
0.00908687
0.0107067
0.0112733
0.0103784
0.0097029
0.0102949
0.0113277
0.0114583
0.0107197
0.00359422
0.00404159
0.00483531
0.0056866
0.00620568
0.00607582
0.00635156
0.00803979
0.00969709
0.00956128
0.00860114
0.00900207
0.0105359
0.0112225
0.010438
0.00966859
0.0100777
0.0111059
0.0114364
0.0108256
0.00380248
0.0041816
0.00493776
0.00585089
0.00633565
0.00615609
0.00643572
0.008053
0.00966379
0.00960777
0.00867729
0.00893442
0.0103652
0.0111541
0.0104988
0.00966487
0.00988825
0.0108617
0.0113709
0.0109334
0.00401448
0.00433196
0.00503632
0.00600819
0.0064829
0.00624147
0.00650713
0.00807021
0.009638
0.00964558
0.00875332
0.00888328
0.0101964
0.0110687
0.0105581
0.00969065
0.00973182
0.0106078
0.0112578
0.0110267
0.00422899
0.00449392
0.00513365
0.00615369
0.00664521
0.00633985
0.00656489
0.00808274
0.0096216
0.00968317
0.0088288
0.00884645
0.0100354
0.0109663
0.0106089
0.00974337
0.00961574
0.0103582
0.0110997
0.0110885
0.00444475
0.00466822
0.00523344
0.0062836
0.00681796
0.00645847
0.00661157
0.0080809
0.00961161
0.00972841
0.00890672
0.00882231
0.0098879
0.0108493
0.0106458
0.00981569
0.00954482
0.0101295
0.0109048
0.011104
0.00466082
0.00485479
0.00533958
0.0063957
0.00699408
0.00660215
0.00665432
0.00805835
0.00960022
0.00978497
0.0089938
0.00881134
0.00974373
0.0107188
0.0106672
0.00989982
0.00951652
0.00993619
0.0106897
0.0110652
0.00487624
0.00505338
0.00545625
0.00648908
0.00716451
0.00677238
0.00670401
0.00801301
0.00957612
0.00985321
0.00909751
0.00881651
0.00959998
0.0105735
0.0106709
0.00999147
0.0095245
0.00978537
0.0104749
0.0109756
0.0050901
0.00526207
0.00558852
0.00656621
0.00731872
0.00696652
0.00677383
0.00794727
0.00952741
0.00992823
0.00922258
0.00884372
0.00947088
0.0104143
0.0106506
0.0100858
0.00956535
0.00967781
0.0102768
0.0108495
0.00530346
0.0054771
0.00573633
0.0066316
0.0074492
0.00717777
0.00687731
0.00787227
0.00944579
0.00999689
0.0093697
0.00889848
0.00936355
0.0102483
0.0106001
0.0101729
0.009636
0.00961398
0.0101061
0.0107061
0.00551705
0.00569903
0.00589985
0.0066874
0.0075504
0.00739298
0.00702183
0.00781015
0.00933148
0.0100412
0.00953415
0.00898671
0.00928366
0.0100845
0.0105205
0.01024
0.00972831
0.00959503
0.00996923
0.0105621
0.00572996
0.00593049
0.00607943
0.00673705
0.00762031
0.00759952
0.00720573
0.00778135
0.00919443
0.0100455
0.00970122
0.00911045
0.00923861
0.00992939
0.0104182
0.0102787
0.00982887
0.00961919
0.00987128
0.010427
0.00594184
0.00615179
0.00627388
0.00680152
0.00766713
0.00778589
0.00741771
0.00779531
0.00905199
0.0100042
0.00985097
0.00926543
0.00923647
0.00979065
0.0102995
0.0102883
0.00992326
0.00967806
0.00981848
0.0103084
0.0061513
0.00636717
0.00648155
0.00688652
0.00769707
0.00794263
0.0076406
0.00785386
0.00892543
0.00992261
0.00996725
0.00943954
0.00928009
0.00968148
0.0101723
0.0102687
0.0100017
0.00975803
0.0098139
0.0102188
0.0063589
0.00657655
0.00669585
0.00699192
0.0077201
0.00806845
0.00786125
0.00795482
0.00883146
0.00981497
0.01004
0.0096161
0.00936542
0.00961661
0.0100498
0.0102222
0.0100582
0.00984322
0.00984951
0.0101717
0.006566
0.00677923
0.00690756
0.00711734
0.00774842
0.00816641
0.00806782
0.00808898
0.00877868
0.00969975
0.0100675
0.00977911
0.00948363
0.00959991
0.00995134
0.0101609
0.0100907
0.00992139
0.00990771
0.0101677
0.00677162
0.00697423
0.00711508
0.0072614
0.00778778
0.00824052
0.00825214
0.00824407
0.00877012
0.00959596
0.010057
0.00991495
0.00962144
0.00962464
0.00988719
0.0100995
0.0101034
0.00998786
0.0099723
0.010195
0.00697554
0.00716478
0.00731365
0.00741718
0.00784208
0.00829934
0.00841141
0.00840871
0.00880341
0.00951665
0.0100231
0.0100182
0.00976409
0.00970059
0.0098624
0.0100503
0.0101046
0.0100449
0.010038
0.0102398
0.00717673
0.00734854
0.00750301
0.00758006
0.00791339
0.00835111
0.00854535
0.00857219
0.00887148
0.00946962
0.00998151
0.0100932
0.00993601
0.00981505
0.00988044
0.010021
0.0101004
0.010093
0.0101062
0.0102943
0.00737367
0.00752907
0.00768255
0.00774509
0.00800147
0.00840129
0.00865508
0.00872625
0.00896475
0.0094575
0.00994582
0.0101402
0.0100614
0.00993812
0.00993625
0.0100206
0.0100997
0.0101325
0.0101738
0.0103566
0.00756541
0.00770145
0.00785163
0.00790776
0.00810403
0.00845725
0.00874683
0.00886676
0.00907347
0.00947818
0.0099254
0.0101715
0.0101681
0.0100596
0.0100191
0.0100574
0.0101171
0.0101699
0.0102396
0.0104274
0.00775102
0.0078722
0.00801072
0.00806185
0.00821468
0.00852014
0.00882509
0.00899191
0.00919058
0.00952691
0.00992611
0.010199
0.0102613
0.0101811
0.0101212
0.0101273
0.0101621
0.0102141
0.0103038
0.010502
0.00792778
0.00803646
0.00816142
0.00820899
0.0083312
0.00859106
0.00889408
0.00910027
0.00930804
0.00959722
0.00995034
0.0102311
0.0103352
0.0103046
0.010241
0.0102232
0.0102394
0.0102791
0.0103746
0.0105815
0.00809366
0.00818706
0.00830335
0.00834899
0.00844987
0.00866998
0.00895965
0.00919381
0.00941962
0.00968218
0.00999647
0.0102772
0.0104367
0.0104417
0.0103863
0.0103508
0.0103515
0.0103777
0.0104662
0.0106743
0.00824992
0.008338
0.00843593
0.00847224
0.00856017
0.00875245
0.00902626
0.00927556
0.00952091
0.00977751
0.0100639
0.0103274
0.0104541
0.0105282
0.0105321
0.0104944
0.0104814
0.0104942
0.0105706
0.0107767
0.00839246
0.00847491
0.00855781
0.00858384
0.00866214
0.00883629
0.00909693
0.00935222
0.00960731
0.00986961
0.0101651
0.0104596
0.010709
0.010824
0.0108451
0.0108148
0.0107617
0.0107214
0.0107442
0.0109065
0.00851745
0.00859757
0.00867492
0.00868957
0.00875364
0.00890269
0.00914778
0.00942363
0.00968461
0.00991337
0.0101531
0.0104483
0.0106705
0.0108281
0.010955
0.0110468
0.0110994
0.0111215
0.0111681
0.0112932
0.00862722
0.00871217
0.00878489
0.00878941
0.00885693
0.00898496
0.00919109
0.00946041
0.0098119
0.0101618
0.0104978
0.0108313
0.0111091
0.011286
0.0113556
0.0113523
0.0113293
0.0113589
0.0113703
0.0114303
0.00870571
0.00876639
0.00881875
0.00883824
0.00892681
0.00907783
0.00927053
0.00942507
0.00955353
0.00972967
0.0100816
0.010555
0.0110853
0.0115396
0.0119388
0.0122462
0.012513
0.0127348
0.0130381
0.0133228
0.00883426
0.00891875
0.00897862
0.00894141
0.00897651
0.00905686
0.0092352
0.00952378
0.00993289
0.0103616
0.0107544
0.0110675
0.0113211
0.0115458
0.0116976
0.0119087
0.0121807
0.0125158
0.0128157
0.0130498
0.00869357
0.00875571
0.00892358
0.00906905
0.00920845
0.00935234
0.00954534
0.00976727
0.0100056
0.0102251
0.0104957
0.0108173
0.0111604
0.0115444
0.0119745
0.01244
0.012894
0.0133035
0.0136601
0.0138987
0.00895025
0.00905747
0.00916713
0.00919001
0.00929028
0.00943834
0.00964706
0.00987334
0.0101458
0.0104711
0.0108231
0.0111661
0.0114331
0.0116241
0.011751
0.0117769
0.0117722
0.0117247
0.011648
0.0115799
0.00876162
0.00885021
0.00907906
0.00927865
0.00944797
0.00959768
0.00978861
0.00998128
0.0101911
0.010432
0.0106931
0.0109953
0.0113382
0.0116871
0.012073
0.0124822
0.0128867
0.0132771
0.0136111
0.0138197
0.00892746
0.00904068
0.00928183
0.00943721
0.00958646
0.00971795
0.00989735
0.0100842
0.0102904
0.0105587
0.0108605
0.0111589
0.0114522
0.0116918
0.011896
0.0121005
0.0123304
0.0125983
0.0128473
0.0129864
0.0235884
0.0183194
0.011122
0.00610164
0.0051932
0.00655202
0.00807439
0.00914171
0.00983258
0.0104119
0.0110427
0.0116482
0.0120545
0.0123164
0.0126554
0.0131018
0.0135128
0.0138421
0.0141787
0.0146273
0.0151709
0.0156629
0.016018
0.0163345
0.0167622
0.0172896
0.0177604
0.0181332
0.0185453
0.0190461
0.019506
0.0199033
0.0203559
0.0208924
0.0214639
0.0220508
0.0226508
0.0232296
0.0237804
0.0243278
0.0248661
0.0253863
0.0259049
0.026417
0.0269352
0.0275064
0.0281245
0.0287412
0.029341
0.0299783
0.0306497
0.0313096
0.0319525
0.0326579
0.0334161
0.0341388
0.0348183
0.035489
0.036166
0.0368782
0.0376582
0.0384792
0.0393265
0.040169
0.041023
0.0418642
0.0426763
0.0434983
0.0443923
0.0452866
0.0461976
0.0471436
0.0481013
0.0490498
0.0500253
0.0510431
0.052081
0.0531459
0.0542124
0.0553204
0.056421
0.0575847
0.0587667
0.0599623
0.0611799
0.0624286
0.0637226
0.0650132
0.0663178
0.0676311
0.0689448
0.070354
0.0717395
0.073165
0.0745852
0.0759972
0.0774059
0.0787404
0.0799603
0.0810389
0.0229604
0.0181947
0.0112133
0.0062498
0.00528039
0.00659293
0.00810047
0.00916068
0.00984629
0.0104219
0.0110508
0.0116555
0.012061
0.0123219
0.01266
0.0131061
0.0135169
0.0138456
0.0141816
0.0146298
0.0151733
0.0156653
0.0160202
0.0163363
0.0167636
0.0172911
0.0177618
0.0181344
0.0185463
0.0190472
0.0195071
0.0199043
0.0203567
0.0208932
0.0214647
0.0220516
0.0226516
0.0232304
0.0237811
0.0243285
0.0248668
0.025387
0.0259056
0.0264176
0.0269358
0.0275069
0.0281251
0.0287418
0.0293415
0.0299787
0.0306502
0.0313101
0.0319529
0.0326583
0.0334165
0.0341392
0.0348187
0.0354894
0.0361664
0.0368785
0.0376585
0.0384795
0.0393267
0.0401692
0.0410232
0.0418645
0.0426765
0.0434985
0.0443925
0.0452868
0.0461978
0.0471438
0.0481015
0.04905
0.0500255
0.0510433
0.0520811
0.053146
0.0542126
0.0553206
0.0564211
0.0575848
0.0587668
0.0599625
0.06118
0.0624287
0.0637227
0.0650133
0.0663179
0.0676312
0.0689449
0.0703541
0.0717396
0.0731651
0.0745853
0.0759973
0.0774059
0.0787405
0.0799603
0.0810389
0.0223505
0.0180529
0.0113794
0.00651437
0.00542991
0.00664581
0.00812451
0.00917986
0.00986352
0.0104362
0.0110616
0.0116638
0.0120678
0.0123276
0.0126649
0.0131105
0.0135207
0.013849
0.0141846
0.0146324
0.0151757
0.0156676
0.0160223
0.016338
0.0167651
0.0172925
0.0177632
0.0181356
0.0185473
0.0190482
0.0195081
0.0199051
0.0203574
0.0208939
0.0214654
0.0220523
0.0226523
0.0232311
0.0237818
0.0243291
0.0248674
0.0253876
0.0259061
0.0264182
0.0269363
0.0275074
0.0281255
0.0287423
0.029342
0.0299791
0.0306506
0.0313105
0.0319532
0.0326586
0.0334168
0.0341396
0.034819
0.0354897
0.0361667
0.0368787
0.0376587
0.0384797
0.039327
0.0401694
0.0410234
0.0418647
0.0426767
0.0434987
0.0443927
0.045287
0.0461979
0.0471439
0.0481017
0.0490501
0.0500256
0.0510434
0.0520813
0.0531462
0.0542127
0.0553207
0.0564212
0.0575849
0.0587669
0.0599626
0.0611801
0.0624288
0.0637228
0.0650134
0.066318
0.0676313
0.068945
0.0703542
0.0717397
0.0731652
0.0745853
0.0759973
0.077406
0.0787405
0.0799604
0.0810389
0.021771
0.0179111
0.0115912
0.00685149
0.00563835
0.00672204
0.00815848
0.00920745
0.00988974
0.0104584
0.0110773
0.011674
0.012076
0.0123356
0.0126723
0.0131163
0.0135254
0.0138534
0.0141889
0.0146362
0.0151786
0.0156702
0.0160249
0.0163406
0.0167673
0.0172944
0.0177648
0.018137
0.0185485
0.0190494
0.0195092
0.0199059
0.0203581
0.0208946
0.0214662
0.022053
0.022653
0.0232318
0.0237824
0.0243298
0.0248681
0.0253882
0.0259067
0.0264187
0.0269368
0.0275079
0.028126
0.0287428
0.0293424
0.0299796
0.030651
0.0313109
0.0319536
0.0326589
0.0334172
0.03414
0.0348194
0.03549
0.0361669
0.036879
0.0376589
0.03848
0.0393272
0.0401697
0.0410237
0.041865
0.0426769
0.0434989
0.0443929
0.0452872
0.0461981
0.0471441
0.0481018
0.0490503
0.0500257
0.0510435
0.0520814
0.0531463
0.0542128
0.0553208
0.0564213
0.057585
0.058767
0.0599627
0.0611802
0.0624289
0.0637229
0.0650135
0.0663181
0.0676314
0.0689451
0.0703543
0.0717398
0.0731653
0.0745854
0.0759974
0.0774061
0.0787406
0.0799605
0.081039
0.0212029
0.0177601
0.0118169
0.007213
0.00587262
0.0068109
0.00819802
0.00924163
0.00992462
0.0104892
0.011099
0.011687
0.0120858
0.0123466
0.0126835
0.0131249
0.0135316
0.0138595
0.0141956
0.0146418
0.0151823
0.015673
0.0160284
0.0163448
0.0167711
0.017297
0.0177669
0.0181391
0.0185506
0.0190512
0.0195106
0.0199069
0.020359
0.0208955
0.021467
0.0220539
0.0226538
0.0232325
0.0237832
0.0243306
0.0248688
0.0253888
0.0259072
0.0264193
0.0269373
0.0275084
0.0281266
0.0287433
0.0293429
0.0299801
0.0306515
0.0313114
0.031954
0.0326593
0.0334176
0.0341404
0.0348198
0.0354904
0.0361672
0.0368792
0.0376592
0.0384802
0.0393275
0.04017
0.041024
0.0418653
0.0426772
0.043499
0.0443931
0.0452874
0.0461983
0.0471443
0.048102
0.0490504
0.0500259
0.0510437
0.0520815
0.0531465
0.054213
0.055321
0.0564214
0.0575851
0.0587672
0.0599628
0.0611803
0.062429
0.063723
0.0650136
0.0663182
0.0676315
0.0689451
0.0703544
0.0717399
0.0731653
0.0745856
0.0759975
0.0774063
0.0787408
0.0799608
0.0810391
0.0206436
0.0175933
0.0120368
0.00757901
0.00612007
0.00690623
0.00823832
0.00927817
0.0099646
0.0105256
0.0111246
0.0117014
0.0120966
0.0123601
0.0126981
0.0131364
0.0135399
0.0138679
0.0142051
0.0146499
0.0151868
0.0156757
0.0160326
0.016351
0.0167768
0.0173007
0.0177698
0.0181423
0.0185539
0.0190538
0.0195124
0.0199083
0.0203601
0.0208964
0.021468
0.0220548
0.0226546
0.0232332
0.0237839
0.0243315
0.0248698
0.0253895
0.0259078
0.0264199
0.026938
0.027509
0.0281271
0.0287439
0.0293435
0.0299807
0.0306521
0.0313119
0.0319545
0.0326597
0.0334181
0.0341409
0.0348203
0.0354908
0.0361675
0.0368795
0.0376595
0.0384806
0.0393279
0.0401703
0.0410243
0.0418656
0.0426775
0.0434992
0.0443933
0.0452876
0.0461985
0.0471445
0.0481022
0.0490506
0.050026
0.0510438
0.0520817
0.0531466
0.0542131
0.0553211
0.0564216
0.0575852
0.0587673
0.0599629
0.0611804
0.0624291
0.0637231
0.0650137
0.0663183
0.0676317
0.0689452
0.0703545
0.07174
0.0731655
0.0745857
0.0759976
0.0774065
0.0787411
0.0799613
0.0810393
0.0200973
0.0174081
0.0122416
0.00794416
0.00638016
0.00700915
0.00827927
0.00931579
0.010008
0.0105659
0.0111527
0.0117167
0.0121078
0.0123748
0.012715
0.0131501
0.0135502
0.0138786
0.0142175
0.0146604
0.0151923
0.0156783
0.0160374
0.016359
0.0167843
0.0173054
0.0177732
0.0181468
0.0185587
0.0190576
0.0195151
0.0199106
0.0203619
0.0208977
0.0214691
0.0220559
0.0226554
0.0232337
0.0237847
0.0243327
0.024871
0.0253904
0.0259084
0.0264206
0.0269388
0.0275097
0.0281276
0.0287444
0.0293442
0.0299813
0.0306526
0.0313124
0.0319551
0.0326603
0.0334186
0.0341415
0.0348209
0.0354913
0.0361679
0.0368797
0.0376598
0.038481
0.0393283
0.0401707
0.0410247
0.0418661
0.0426778
0.0434995
0.0443936
0.0452879
0.0461987
0.0471447
0.0481024
0.0490508
0.0500262
0.051044
0.0520818
0.0531468
0.0542132
0.0553212
0.0564217
0.0575854
0.0587675
0.0599631
0.0611806
0.0624292
0.0637233
0.0650139
0.0663184
0.0676318
0.0689453
0.0703546
0.0717401
0.0731656
0.0745858
0.0759978
0.0774067
0.0787415
0.079962
0.0810396
0.019568
0.0172033
0.012427
0.00830745
0.0066554
0.0071231
0.00832204
0.00935397
0.0100539
0.0106093
0.0111831
0.0117332
0.0121195
0.0123904
0.012733
0.0131651
0.0135618
0.0138911
0.0142321
0.0146728
0.0151986
0.015681
0.0160425
0.016368
0.0167931
0.0173107
0.0177772
0.0181522
0.0185649
0.0190624
0.0195188
0.0199138
0.0203645
0.0208996
0.0214706
0.022057
0.022656
0.0232339
0.0237851
0.0243338
0.0248724
0.0253915
0.0259092
0.0264215
0.0269399
0.0275107
0.0281282
0.0287451
0.0293451
0.0299821
0.0306532
0.0313129
0.0319557
0.032661
0.0334192
0.0341421
0.0348216
0.0354919
0.0361683
0.03688
0.0376602
0.0384814
0.0393287
0.0401711
0.0410252
0.0418665
0.0426782
0.0434999
0.0443939
0.0452882
0.046199
0.047145
0.0481027
0.0490511
0.0500264
0.0510442
0.0520821
0.053147
0.0542134
0.0553214
0.0564218
0.0575855
0.0587676
0.0599632
0.0611807
0.0624293
0.0637234
0.065014
0.0663185
0.0676319
0.0689454
0.0703547
0.0717403
0.0731657
0.074586
0.075998
0.077407
0.078742
0.0799629
0.08104
0.0190583
0.0169812
0.0125922
0.0086685
0.00694694
0.00725023
0.00836724
0.00939188
0.0101018
0.0106558
0.011216
0.011751
0.0121319
0.0124064
0.0127518
0.0131809
0.0135742
0.0139046
0.0142481
0.0146867
0.0152058
0.0156841
0.0160479
0.0163778
0.0168025
0.0173164
0.0177814
0.0181584
0.0185719
0.019068
0.0195233
0.0199182
0.0203682
0.0209022
0.0214726
0.0220585
0.0226565
0.0232338
0.0237852
0.0243347
0.0248738
0.0253927
0.0259101
0.0264227
0.0269415
0.027512
0.028129
0.0287458
0.0293462
0.0299831
0.0306537
0.0313135
0.0319565
0.0326616
0.0334198
0.0341428
0.0348225
0.0354926
0.0361688
0.0368804
0.0376606
0.0384818
0.0393291
0.0401716
0.0410257
0.0418671
0.0426788
0.0435003
0.0443943
0.0452887
0.0461995
0.0471455
0.0481031
0.0490514
0.0500267
0.0510445
0.0520823
0.0531472
0.0542136
0.0553216
0.056422
0.0575856
0.0587678
0.0599633
0.0611808
0.0624295
0.0637236
0.0650142
0.0663187
0.067632
0.0689455
0.0703548
0.0717404
0.0731658
0.0745863
0.0759982
0.0774074
0.0787428
0.0799641
0.0810406
0.018571
0.0167478
0.0127377
0.00902473
0.00725303
0.00739142
0.00841526
0.00942872
0.0101508
0.0107053
0.0112515
0.0117703
0.012145
0.0124232
0.0127713
0.0131974
0.0135872
0.0139189
0.0142651
0.0147017
0.0152139
0.0156876
0.0160536
0.0163879
0.0168125
0.0173223
0.0177859
0.0181649
0.0185794
0.019074
0.0195282
0.0199232
0.0203728
0.0209056
0.0214752
0.0220603
0.0226572
0.0232336
0.0237849
0.0243352
0.024875
0.0253939
0.0259112
0.0264242
0.0269435
0.0275137
0.0281299
0.0287466
0.0293475
0.0299843
0.0306544
0.031314
0.0319573
0.0326623
0.0334201
0.0341434
0.0348234
0.0354936
0.0361695
0.036881
0.0376611
0.0384823
0.0393295
0.0401719
0.0410262
0.0418677
0.0426794
0.0435008
0.0443948
0.0452892
0.0462
0.047146
0.0481035
0.0490518
0.0500271
0.0510449
0.0520826
0.0531475
0.0542138
0.0553218
0.0564222
0.0575858
0.058768
0.0599635
0.061181
0.0624296
0.0637238
0.0650144
0.0663188
0.0676322
0.0689457
0.070355
0.0717406
0.073166
0.0745866
0.0759984
0.0774078
0.0787438
0.0799657
0.0810414
0.0181093
0.0165095
0.012863
0.00937142
0.00757038
0.00754737
0.00846697
0.0094639
0.0102001
0.0107575
0.0112896
0.0117912
0.0121591
0.0124408
0.0127919
0.0132147
0.0136007
0.0139336
0.0142829
0.0147176
0.0152228
0.0156916
0.0160596
0.0163984
0.0168228
0.0173286
0.0177905
0.0181717
0.0185872
0.0190802
0.0195334
0.0199288
0.0203781
0.0209097
0.0214783
0.0220625
0.022658
0.0232332
0.0237844
0.0243353
0.0248758
0.0253948
0.0259122
0.026426
0.0269461
0.0275159
0.0281312
0.0287477
0.029349
0.0299858
0.0306552
0.0313147
0.0319582
0.0326629
0.0334202
0.0341437
0.0348242
0.0354945
0.0361705
0.0368819
0.0376619
0.0384829
0.0393298
0.0401722
0.0410266
0.0418682
0.04268
0.0435015
0.0443954
0.0452898
0.0462007
0.0471466
0.0481041
0.0490524
0.0500276
0.0510453
0.0520831
0.0531479
0.0542142
0.0553221
0.0564225
0.057586
0.0587682
0.0599636
0.0611812
0.0624298
0.063724
0.0650146
0.066319
0.0676323
0.0689458
0.0703552
0.0717408
0.0731662
0.0745869
0.0759987
0.0774083
0.0787452
0.0799676
0.0810423
0.0176747
0.0162706
0.0129672
0.00970393
0.00789551
0.00771868
0.00852352
0.00949704
0.0102486
0.0108117
0.0113305
0.0118141
0.0121744
0.0124596
0.0128136
0.0132329
0.0136147
0.0139487
0.0143014
0.0147344
0.0152324
0.015696
0.0160659
0.0164093
0.0168336
0.0173352
0.0177954
0.0181788
0.0185953
0.0190866
0.0195386
0.0199346
0.0203838
0.0209143
0.0214818
0.022065
0.022659
0.0232329
0.0237837
0.024335
0.0248761
0.0253954
0.0259131
0.0264279
0.026949
0.0275185
0.0281327
0.028749
0.0293507
0.0299874
0.0306562
0.0313155
0.0319594
0.0326636
0.0334201
0.0341436
0.0348246
0.0354953
0.0361714
0.0368831
0.0376631
0.0384838
0.0393302
0.0401723
0.0410268
0.0418686
0.0426805
0.0435021
0.044396
0.0452905
0.0462015
0.0471473
0.0481047
0.049053
0.0500282
0.051046
0.0520837
0.0531485
0.0542146
0.0553225
0.0564228
0.0575863
0.0587684
0.0599638
0.0611813
0.0624299
0.0637242
0.0650148
0.0663192
0.0676325
0.0689459
0.0703553
0.071741
0.0731663
0.0745873
0.075999
0.077409
0.0787468
0.07997
0.0810435
0.0172659
0.0160342
0.0130508
0.0100186
0.0082245
0.00790541
0.00858645
0.00952825
0.0102955
0.0108676
0.0113741
0.011839
0.0121911
0.0124795
0.0128365
0.013252
0.0136293
0.0139643
0.0143205
0.014752
0.0152427
0.0157008
0.0160726
0.0164206
0.0168449
0.0173421
0.0178006
0.0181861
0.0186038
0.0190931
0.0195439
0.0199405
0.0203899
0.0209194
0.0214858
0.0220678
0.0226602
0.0232326