/*--------------------------------*- C++ -*----------------------------------*\
| =========                 |                                                 |
| \\      /  F ield         | OpenFOAM: The Open Source CFD Toolbox           |
|  \\    /   O peration     | Version:  v1906                                 |
|   \\  /    A nd           | Web:      www.OpenFOAM.com                      |
|    \\/     M anipulation  |                                                 |
\*---------------------------------------------------------------------------*/
FoamFile
{
    version     2.0;
    format      ascii;
    class       surfaceScalarField;
    location    "7.2";
    object      phi;
}
// * * * * * * * * * * * * * * * * * * * * * * * * * * * * * * * * * * * * * //

dimensions      [0 3 -1 0 0 0 0];
oriented        oriented;


internalField   nonuniform List<scalar> 
19000
(
1.16435e-06
3.85389e-08
1.08313e-06
5.12443e-07
1.19819e-06
-2.15077e-06
1.31567e-06
-6.31184e-07
1.21103e-06
7.09164e-07
1.11485e-06
9.60943e-07
1.13411e-06
-3.95837e-07
1.15978e-06
-8.14549e-07
1.1969e-06
-9.53653e-07
1.18225e-06
-3.30399e-07
1.17441e-06
-3.25975e-08
1.18067e-06
2.26609e-07
1.19166e-06
1.71964e-07
1.18998e-06
2.4344e-07
1.18297e-06
8.17708e-08
1.17798e-06
1.76448e-07
1.16622e-06
4.74548e-08
1.15562e-06
1.1012e-07
1.15141e-06
9.22593e-08
1.06489e-07
1.12431e-06
1.21933e-06
4.34694e-08
1.14182e-06
5.89956e-07
1.25945e-06
-2.2684e-06
1.37967e-06
-7.51405e-07
1.26751e-06
8.21327e-07
1.19729e-06
1.03116e-06
1.21116e-06
-4.09708e-07
1.23005e-06
-8.33436e-07
1.26932e-06
-9.92927e-07
1.25124e-06
-3.12311e-07
1.23656e-06
-1.79234e-08
1.24719e-06
2.15985e-07
1.25077e-06
1.68381e-07
1.26222e-06
2.31989e-07
1.24287e-06
1.01125e-07
1.25376e-06
1.65552e-07
1.22207e-06
7.9145e-08
1.23213e-06
1.0006e-07
1.19863e-06
1.25758e-07
9.46891e-08
1.21043e-06
1.27603e-06
5.02268e-08
1.20703e-06
6.58954e-07
1.31785e-06
-2.37923e-06
1.44634e-06
-8.79895e-07
1.33763e-06
9.30041e-07
1.29388e-06
1.0749e-06
1.29657e-06
-4.1239e-07
1.30816e-06
-8.45027e-07
1.34278e-06
-1.02755e-06
1.33186e-06
-3.01387e-07
1.30404e-06
9.89706e-09
1.32236e-06
1.97661e-07
1.3161e-06
1.74644e-07
1.33889e-06
2.09199e-07
1.3128e-06
1.27215e-07
1.32533e-06
1.5302e-07
1.29423e-06
1.10242e-07
1.29361e-06
1.00683e-07
1.27271e-06
1.46663e-07
1.06642e-07
1.26075e-06
1.3351e-06
5.92339e-08
1.27933e-06
7.14718e-07
1.37122e-06
-2.47112e-06
1.50949e-06
-1.01816e-06
1.42054e-06
1.01899e-06
1.40048e-06
1.09497e-06
1.38596e-06
-3.97872e-07
1.38769e-06
-8.46751e-07
1.41147e-06
-1.05134e-06
1.41178e-06
-3.0169e-07
1.37653e-06
4.51485e-08
1.39508e-06
1.79105e-07
1.38862e-06
1.81108e-07
1.41128e-06
1.86539e-07
1.39232e-06
1.46171e-07
1.39568e-06
1.49656e-07
1.3747e-06
1.31227e-07
1.36285e-06
1.12538e-07
1.34805e-06
1.61456e-07
1.24817e-07
1.32988e-06
1.39723e-06
7.03583e-08
1.35615e-06
7.55794e-07
1.4171e-06
-2.53206e-06
1.56231e-06
-1.16338e-06
1.51375e-06
1.06755e-06
1.51126e-06
1.09746e-06
1.47702e-06
-3.63634e-07
1.46379e-06
-8.33525e-07
1.47318e-06
-1.06072e-06
1.48256e-06
-3.11074e-07
1.45212e-06
7.55892e-08
1.46543e-06
1.65796e-07
1.46569e-06
1.80841e-07
1.48431e-06
1.67927e-07
1.4756e-06
1.54881e-07
1.47282e-06
1.52428e-07
1.45739e-06
1.46661e-07
1.44204e-06
1.27884e-07
1.42669e-06
1.7681e-07
1.44639e-07
1.40687e-06
1.46396e-06
8.20748e-08
1.43435e-06
7.85403e-07
1.45676e-06
-2.55448e-06
1.60318e-06
-1.30979e-06
1.6122e-06
1.05853e-06
1.62146e-06
1.0882e-06
1.56886e-06
-3.11037e-07
1.536e-06
-8.00668e-07
1.53012e-06
-1.05483e-06
1.54481e-06
-3.25767e-07
1.52816e-06
9.22396e-08
1.53771e-06
1.56246e-07
1.54453e-06
1.74027e-07
1.56068e-06
1.51768e-07
1.55905e-06
1.56511e-07
1.55492e-06
1.56565e-07
1.54147e-06
1.60104e-07
1.52537e-06
1.43988e-07
1.50955e-06
1.92627e-07
1.66114e-07
1.48808e-06
1.53707e-06
9.12187e-08
1.51321e-06
8.09262e-07
1.49697e-06
-2.53824e-06
1.63769e-06
-1.45051e-06
1.70895e-06
9.8727e-07
1.72715e-06
1.07e-06
1.66044e-06
-2.44326e-07
1.6071e-06
-7.47337e-07
1.58629e-06
-1.03402e-06
1.60343e-06
-3.42906e-07
1.60248e-06
9.31904e-08
1.61316e-06
1.45561e-07
1.62402e-06
1.63169e-07
1.63923e-06
1.36557e-07
1.6415e-06
1.54243e-07
1.63801e-06
1.60053e-07
1.62589e-06
1.72224e-07
1.60946e-06
1.60423e-07
1.594e-06
2.08085e-07
1.8837e-07
1.57174e-06
1.6172e-06
9.41444e-08
1.59513e-06
8.31336e-07
1.54722e-06
-2.49032e-06
1.67508e-06
-1.57837e-06
1.79752e-06
8.6483e-07
1.82428e-06
1.04324e-06
1.74945e-06
-1.69496e-07
1.67978e-06
-6.7766e-07
1.64512e-06
-9.99363e-07
1.66251e-06
-3.60293e-07
1.67455e-06
8.11426e-08
1.68997e-06
1.3014e-07
1.7035e-06
1.49642e-07
1.71799e-06
1.22072e-07
1.72215e-06
1.5008e-07
1.71948e-06
1.6272e-07
1.70888e-06
1.82822e-07
1.69249e-06
1.76815e-07
1.67784e-06
2.22738e-07
2.10228e-07
1.65598e-06
1.70297e-06
8.87484e-08
1.683e-06
8.5131e-07
1.61378e-06
-2.42111e-06
1.72233e-06
-1.68692e-06
1.87472e-06
7.12446e-07
1.90972e-06
1.00824e-06
1.83334e-06
-9.31197e-08
1.75508e-06
-5.99398e-07
1.70906e-06
-9.53346e-07
1.72449e-06
-3.75722e-07
1.74508e-06
6.05607e-08
1.76575e-06
1.09464e-07
1.78147e-06
1.33926e-07
1.7951e-06
1.08444e-07
1.80012e-06
1.45056e-07
1.79792e-06
1.6492e-07
1.78907e-06
1.91673e-07
1.77332e-06
1.9256e-07
1.75992e-06
2.3614e-07
2.30594e-07
1.73956e-06
1.79175e-06
7.5719e-08
1.77745e-06
8.65613e-07
1.69667e-06
-2.34033e-06
1.78129e-06
-1.77154e-06
1.9412e-06
5.52532e-07
1.9826e-06
9.66843e-07
1.9108e-06
-2.13208e-08
1.8329e-06
-5.21504e-07
1.77969e-06
-9.00133e-07
1.79113e-06
-3.87167e-07
1.81526e-06
3.64373e-08
1.83915e-06
8.55669e-08
1.85641e-06
1.16669e-07
1.86918e-06
9.56768e-08
1.87486e-06
1.39375e-07
1.87303e-06
1.66754e-07
1.86614e-06
1.98564e-07
1.85174e-06
2.06952e-07
1.84006e-06
2.47823e-07
2.48505e-07
1.82215e-06
1.88144e-06
5.80242e-08
1.87653e-06
8.70526e-07
1.79159e-06
-2.25539e-06
1.85017e-06
-1.83012e-06
2.00002e-06
4.02682e-07
2.04485e-06
9.22015e-07
1.98262e-06
4.09107e-08
1.91292e-06
-4.51805e-07
1.8576e-06
-8.44818e-07
1.8639e-06
-3.93462e-07
1.88686e-06
1.34714e-08
1.91072e-06
6.17114e-08
1.92832e-06
9.90648e-08
1.94024e-06
8.37646e-08
1.94687e-06
1.32742e-07
1.94575e-06
1.67874e-07
1.94112e-06
2.0319e-07
1.9288e-06
2.1927e-07
1.91918e-06
2.57449e-07
2.63278e-07
1.90441e-06
1.97163e-06
3.92357e-08
1.97752e-06
8.64637e-07
1.89364e-06
-2.17152e-06
1.9267e-06
-1.86318e-06
2.05552e-06
2.73863e-07
2.10103e-06
8.76508e-07
2.05171e-06
9.02258e-08
1.99527e-06
-3.95362e-07
1.9425e-06
-7.92046e-07
1.94376e-06
-3.94721e-07
1.96222e-06
-4.98801e-09
1.98296e-06
4.09719e-08
1.99944e-06
8.25794e-08
2.01028e-06
7.29239e-08
2.01812e-06
1.24906e-07
2.01824e-06
1.67752e-07
2.01618e-06
2.05247e-07
2.00656e-06
2.28891e-07
1.99912e-06
2.64889e-07
2.7464e-07
1.98776e-06
2.06339e-06
2.20345e-08
2.07885e-06
8.4918e-07
1.99942e-06
-2.09209e-06
2.00987e-06
-1.87362e-06
2.11301e-06
1.70714e-07
2.15747e-06
8.32054e-07
2.12231e-06
1.2538e-07
2.08075e-06
-3.53801e-07
2.03352e-06
-7.44816e-07
2.03096e-06
-3.92155e-07
2.04369e-06
-1.77245e-08
2.05949e-06
2.51724e-08
2.07365e-06
6.84243e-08
2.08292e-06
6.36523e-08
2.09175e-06
1.16082e-07
2.09335e-06
1.66147e-07
2.09388e-06
2.04717e-07
2.08732e-06
2.35453e-07
2.082e-06
2.70202e-07
2.8272e-07
2.07392e-06
2.15836e-06
7.67901e-09
2.18075e-06
8.26786e-07
2.10733e-06
-2.01867e-06
2.09982e-06
-1.86611e-06
2.17788e-06
9.26516e-08
2.22054e-06
7.89401e-07
2.1986e-06
1.47317e-07
2.17056e-06
-3.25759e-07
2.12983e-06
-7.0409e-07
2.12511e-06
-3.87434e-07
2.13295e-06
-2.5566e-08
2.14359e-06
1.45305e-08
2.15487e-06
5.71473e-08
2.16197e-06
5.65528e-08
2.17104e-06
1.07013e-07
2.17382e-06
1.6337e-07
2.17644e-06
2.02097e-07
2.17289e-06
2.38999e-07
2.16948e-06
2.73614e-07
2.87878e-07
2.16432e-06
2.25787e-06
-3.70565e-09
2.28461e-06
8.00054e-07
2.21716e-06
-1.95123e-06
2.19694e-06
-1.84589e-06
2.25391e-06
3.56855e-08
2.29464e-06
7.48669e-07
2.28344e-06
1.58515e-07
2.26583e-06
-3.0815e-07
2.23096e-06
-6.69217e-07
2.22551e-06
-3.81981e-07
2.23042e-06
-3.048e-08
2.23691e-06
8.03875e-09
2.24552e-06
4.85363e-08
2.25006e-06
5.20163e-08
2.25839e-06
9.86802e-08
2.26161e-06
1.60151e-07
2.26535e-06
1.98363e-07
2.26436e-06
2.39982e-07
2.26252e-06
2.75459e-07
2.90571e-07
2.25982e-06
2.36273e-06
-1.25644e-08
2.39196e-06
7.70826e-07
2.32946e-06
-1.88872e-06
2.3012e-06
-1.81763e-06
2.34232e-06
-5.43407e-09
2.38133e-06
7.09653e-07
2.37792e-06
1.61933e-07
2.36736e-06
-2.9759e-07
2.33693e-06
-6.38796e-07
2.33151e-06
-3.76558e-07
2.3355e-06
-3.4466e-08
2.33932e-06
4.22171e-09
2.34599e-06
4.18587e-08
2.34802e-06
4.99842e-08
2.35482e-06
9.18858e-08
2.35772e-06
1.57255e-07
2.36141e-06
1.94666e-07
2.36228e-06
2.39117e-07
2.36163e-06
2.76103e-07
2.91302e-07
2.3609e-06
2.4733e-06
-1.94735e-08
2.50399e-06
7.40142e-07
2.44505e-06
-1.82978e-06
2.4122e-06
-1.78479e-06
2.44233e-06
-3.55618e-08
2.47995e-06
6.72036e-07
2.48175e-06
1.60132e-07
2.47546e-06
-2.91299e-07
2.4481e-06
-6.11438e-07
2.44284e-06
-3.71299e-07
2.44723e-06
-3.88511e-08
2.44965e-06
1.80281e-09
2.45523e-06
3.62755e-08
2.45525e-06
4.9963e-08
2.46014e-06
8.69995e-08
2.46226e-06
1.55127e-07
2.465e-06
1.91928e-07
2.46695e-06
2.37167e-07
2.46722e-06
2.75834e-07
2.90595e-07
2.46793e-06
2.58976e-06
-2.49356e-08
2.62139e-06
7.08508e-07
2.56473e-06
-1.77312e-06
2.52954e-06
-1.7496e-06
2.5524e-06
-5.84261e-08
2.58891e-06
6.35527e-07
2.5941e-06
1.54944e-07
2.59017e-06
-2.87377e-07
2.56489e-06
-5.86156e-07
2.55958e-06
-3.65986e-07
2.56489e-06
-4.41598e-08
2.56668e-06
1.24556e-11
2.57176e-06
3.11914e-08
2.57047e-06
5.12532e-08
2.57349e-06
8.39755e-08
2.57484e-06
1.53778e-07
2.5762e-06
1.90573e-07
2.57859e-06
2.34773e-07
2.57963e-06
2.748e-07
2.88939e-07
2.58128e-06
2.71224e-06
-2.93421e-08
2.74459e-06
6.76154e-07
2.68918e-06
-1.71771e-06
2.6529e-06
-1.71332e-06
2.67108e-06
-7.66002e-08
2.70672e-06
5.99886e-07
2.71417e-06
1.47489e-07
2.71145e-06
-2.84654e-07
2.68767e-06
-5.62376e-07
2.68201e-06
-3.60327e-07
2.68819e-06
-5.03386e-08
2.68965e-06
-1.45207e-09
2.69446e-06
2.6384e-08
2.69251e-06
5.32062e-08
2.69395e-06
8.25356e-08
2.69481e-06
1.52921e-07
2.69488e-06
1.90498e-07
2.6973e-06
2.32354e-07
2.69911e-06
2.7299e-07
2.86696e-07
2.70135e-06
2.84093e-06
-3.29991e-08
2.87389e-06
6.43185e-07
2.81896e-06
-1.66277e-06
2.78219e-06
-1.67655e-06
2.79736e-06
-9.17661e-08
2.83236e-06
5.64882e-07
2.84151e-06
1.38337e-07
2.83929e-06
-2.82435e-07
2.81669e-06
-5.39774e-07
2.81046e-06
-3.54092e-07
2.81717e-06
-5.70528e-08
2.81836e-06
-2.64508e-09
2.82283e-06
2.19171e-08
2.82069e-06
5.53456e-08
2.82088e-06
8.23507e-08
2.8216e-06
1.52194e-07
2.82083e-06
1.9127e-07
2.8231e-06
2.30085e-07
2.82581e-06
2.70279e-07
2.84024e-07
2.82848e-06
2.97605e-06
-3.6149e-08
3.0096e-06
6.09635e-07
2.95457e-06
-1.60775e-06
2.91747e-06
-1.63945e-06
2.93072e-06
-1.05016e-07
2.96534e-06
5.30261e-07
2.97596e-06
1.27719e-07
2.97382e-06
-2.80291e-07
2.95215e-06
-5.18103e-07
2.9452e-06
-3.47146e-07
2.95204e-06
-6.38974e-08
2.95298e-06
-3.58357e-09
2.95694e-06
1.79603e-08
2.95493e-06
5.73531e-08
2.95417e-06
8.3116e-08
2.95504e-06
1.51319e-07
2.95397e-06
1.92341e-07
2.95608e-06
2.27977e-07
2.9598e-06
2.66553e-07
2.80871e-07
2.96296e-06
3.11782e-06
-3.89646e-08
3.15197e-06
5.75492e-07
3.09648e-06
-1.55226e-06
3.059e-06
-1.60198e-06
3.07108e-06
-1.1709e-07
3.10553e-06
4.95807e-07
3.11752e-06
1.15728e-07
3.11518e-06
-2.77951e-07
3.09421e-06
-4.97132e-07
3.08653e-06
-3.39467e-07
3.09315e-06
-7.05126e-08
3.0939e-06
-4.33573e-09
3.09721e-06
1.46457e-08
3.09557e-06
5.89997e-08
3.09412e-06
8.4559e-08
3.09529e-06
1.50157e-07
3.09442e-06
1.93205e-07
3.09641e-06
2.2599e-07
3.10113e-06
2.61835e-07
2.77047e-07
3.10495e-06
3.26648e-06
-4.15332e-08
3.30125e-06
5.40722e-07
3.24514e-06
-1.49615e-06
3.20718e-06
-1.56402e-06
3.2186e-06
-1.28513e-07
3.25299e-06
4.61416e-07
3.26625e-06
1.02471e-07
3.26357e-06
-2.75265e-07
3.2431e-06
-4.76668e-07
3.23477e-06
-3.31135e-07
3.2409e-06
-7.66443e-08
3.24157e-06
-5.00796e-09
3.24419e-06
1.20251e-08
3.24307e-06
6.01275e-08
3.2412e-06
8.64255e-08
3.24268e-06
1.48675e-07
3.2424e-06
1.9349e-07
3.24433e-06
2.24056e-07
3.24982e-06
2.56341e-07
2.72353e-07
3.25452e-06
3.42226e-06
-4.38579e-08
3.45767e-06
5.05313e-07
3.40094e-06
-1.43942e-06
3.36243e-06
-1.52551e-06
3.37357e-06
-1.3966e-07
3.40787e-06
4.27119e-07
3.42223e-06
8.81089e-08
3.41917e-06
-2.72208e-07
3.39909e-06
-4.5658e-07
3.39026e-06
-3.22312e-07
3.39578e-06
-8.21585e-08
3.39647e-06
-5.69717e-09
3.3984e-06
1.00929e-08
3.39786e-06
6.06637e-08
3.3958e-06
8.84925e-08
3.39755e-06
1.4692e-07
3.39807e-06
1.92972e-07
3.40004e-06
2.22087e-07
3.40595e-06
2.50424e-07
2.66694e-07
3.41161e-06
3.58544e-06
-4.58836e-08
3.62144e-06
4.69307e-07
3.56426e-06
-1.38224e-06
3.52512e-06
-1.48638e-06
3.53627e-06
-1.508e-07
3.57036e-06
3.93028e-07
3.58562e-06
7.28458e-08
3.58226e-06
-2.6885e-07
3.56249e-06
-4.36811e-07
3.55336e-06
-3.13178e-07
3.55823e-06
-8.70256e-08
3.55899e-06
-6.4654e-09
3.56027e-06
8.82003e-09
3.56029e-06
6.06384e-08
3.55822e-06
9.05661e-08
3.56014e-06
1.45002e-07
3.56154e-06
1.91573e-07
3.56368e-06
2.1994e-07
3.56967e-06
2.4444e-07
2.60165e-07
3.5762e-06
3.75636e-06
-4.7537e-08
3.79285e-06
4.32816e-07
3.73547e-06
-1.32485e-06
3.69562e-06
-1.44653e-06
3.70696e-06
-1.62138e-07
3.74073e-06
3.5926e-07
3.75667e-06
5.69002e-08
3.75315e-06
-2.65323e-07
3.73369e-06
-4.17356e-07
3.7244e-06
-3.03884e-07
3.72866e-06
-9.1289e-08
3.72953e-06
-7.33296e-09
3.73018e-06
8.16758e-09
3.73066e-06
6.01576e-08
3.72874e-06
9.24856e-08
3.73067e-06
1.43075e-07
3.73291e-06
1.89329e-07
3.73541e-06
2.17446e-07
3.74121e-06
2.38632e-07
2.53019e-07
3.74836e-06
3.93541e-06
-4.87607e-08
3.97221e-06
3.96015e-07
3.91495e-06
-1.26759e-06
3.87426e-06
-1.40584e-06
3.88594e-06
-1.7382e-07
3.91933e-06
3.25878e-07
3.93574e-06
4.0491e-08
3.93219e-06
-2.61779e-07
3.91307e-06
-3.98235e-07
3.90371e-06
-2.94521e-07
3.90745e-06
-9.50328e-08
3.90841e-06
-8.29257e-09
3.90849e-06
8.09162e-09
3.90929e-06
5.93534e-08
3.90764e-06
9.41344e-08
3.90945e-06
1.41268e-07
3.91241e-06
1.86368e-07
3.91536e-06
2.14496e-07
3.92096e-06
2.33031e-07
2.45618e-07
3.92836e-06
4.12302e-06
-4.95311e-08
4.15991e-06
3.59127e-07
4.10313e-06
-1.21082e-06
4.06143e-06
-1.36415e-06
4.07352e-06
-1.8591e-07
4.10653e-06
2.92873e-07
4.12319e-06
2.38302e-08
4.11976e-06
-2.58351e-07
4.10103e-06
-3.79502e-07
4.09163e-06
-2.85125e-07
4.09496e-06
-9.83548e-08
4.09598e-06
-9.32174e-09
4.09554e-06
8.53537e-09
4.09655e-06
5.83459e-08
4.09522e-06
9.54606e-08
4.09685e-06
1.39644e-07
4.10033e-06
1.82881e-07
4.10377e-06
2.11059e-07
4.10928e-06
2.27517e-07
2.38253e-07
4.11665e-06
4.31963e-06
-4.98583e-08
4.35637e-06
3.22389e-07
4.30043e-06
-1.15488e-06
4.25759e-06
-1.3213e-06
4.27004e-06
-1.98368e-07
4.30272e-06
2.60194e-07
4.31944e-06
7.11401e-09
4.31623e-06
-2.55146e-07
4.29796e-06
-3.61229e-07
4.28854e-06
-2.75704e-07
4.29153e-06
-1.01339e-07
4.29261e-06
-1.04062e-08
4.2917e-06
9.44048e-09
4.29281e-06
5.72357e-08
4.29181e-06
9.64628e-08
4.29325e-06
1.38208e-07
4.29708e-06
1.79051e-07
4.30097e-06
2.07165e-07
4.30654e-06
2.21946e-07
2.31052e-07
4.31374e-06
4.52569e-06
-4.97767e-08
4.56204e-06
2.86045e-07
4.50729e-06
-1.10013e-06
4.46323e-06
-1.27724e-06
4.47589e-06
-2.11035e-07
4.50833e-06
2.27763e-07
4.52491e-06
-9.47361e-09
4.522e-06
-2.52233e-07
4.50427e-06
-3.435e-07
4.49484e-06
-2.6627e-07
4.49753e-06
-1.04034e-07
4.49867e-06
-1.15437e-08
4.49736e-06
1.07484e-08
4.4985e-06
5.61003e-08
4.4978e-06
9.71618e-08
4.49905e-06
1.36956e-07
4.50305e-06
1.75048e-07
4.50741e-06
2.02805e-07
4.51306e-06
2.16297e-07
2.23965e-07
4.52015e-06
4.74167e-06
-4.93291e-08
4.77739e-06
2.50321e-07
4.72411e-06
-1.04685e-06
4.67891e-06
-1.23205e-06
4.69153e-06
-2.23651e-07
4.72378e-06
1.95513e-07
4.74008e-06
-2.57772e-08
4.73747e-06
-2.49625e-07
4.72039e-06
-3.26415e-07
4.71096e-06
-2.56841e-07
4.71338e-06
-1.06457e-07
4.71459e-06
-1.27485e-08
4.71292e-06
1.24172e-08
4.71403e-06
5.49887e-08
4.71368e-06
9.75065e-08
4.71465e-06
1.35995e-07
4.71875e-06
1.70947e-07
4.72356e-06
1.97992e-07
4.72925e-06
2.10602e-07
2.16942e-07
4.73628e-06
4.96803e-06
-4.85564e-08
5.00292e-06
2.15428e-07
4.9513e-06
-9.95229e-07
4.90519e-06
-1.18593e-06
4.91744e-06
-2.35903e-07
4.94956e-06
1.63398e-07
4.96546e-06
-4.16819e-08
4.96311e-06
-2.47278e-07
4.94675e-06
-3.10053e-07
4.93737e-06
-2.47454e-07
4.93953e-06
-1.08617e-07
4.94081e-06
-1.40333e-08
4.93882e-06
1.44111e-08
4.93987e-06
5.39362e-08
4.93993e-06
9.74476e-08
4.94067e-06
1.35256e-07
4.94466e-06
1.66954e-07
4.94994e-06
1.92715e-07
4.95569e-06
2.04851e-07
2.10047e-07
4.96258e-06
5.20525e-06
-4.74941e-08
5.23913e-06
1.81553e-07
5.18927e-06
-9.45367e-07
5.14262e-06
-1.13929e-06
5.15418e-06
-2.47462e-07
5.18616e-06
1.31417e-07
5.20161e-06
-5.71286e-08
5.19944e-06
-2.45104e-07
5.18385e-06
-2.94468e-07
5.17456e-06
-2.38166e-07
5.17646e-06
-1.10512e-07
5.17783e-06
-1.54087e-08
5.17556e-06
1.66892e-08
5.17647e-06
5.30251e-08
5.17702e-06
9.68894e-08
5.1777e-06
1.34578e-07
5.18138e-06
1.63276e-07
5.18703e-06
1.87066e-07
5.19294e-06
1.98935e-07
2.03384e-07
5.19961e-06
5.45386e-06
-4.617e-08
5.48657e-06
1.48845e-07
5.43844e-06
-8.9723e-07
5.39175e-06
-1.0926e-06
5.40232e-06
-2.58034e-07
5.43408e-06
9.96562e-08
5.44911e-06
-7.21583e-08
5.44699e-06
-2.42982e-07
5.4322e-06
-2.79678e-07
5.42305e-06
-2.29013e-07
5.4247e-06
-1.12169e-07
5.4262e-06
-1.69025e-08
5.42365e-06
1.92345e-08
5.42436e-06
5.23151e-08
5.42547e-06
9.57791e-08
5.42632e-06
1.33733e-07
5.42952e-06
1.60073e-07
5.43534e-06
1.81247e-07
5.4416e-06
1.92671e-07
1.96999e-07
5.44799e-06
5.71439e-06
-4.46048e-08
5.74584e-06
1.17395e-07
5.69928e-06
-8.50668e-07
5.6531e-06
-1.04642e-06
5.66245e-06
-2.67383e-07
5.6938e-06
6.83085e-08
5.70854e-06
-8.69001e-08
5.70637e-06
-2.40807e-07
5.69234e-06
-2.65651e-07
5.68335e-06
-2.20026e-07
5.68481e-06
-1.13629e-07
5.68645e-06
-1.85419e-08
5.68368e-06
2.20029e-08
5.68412e-06
5.1871e-08
5.68585e-06
9.40504e-08
5.68699e-06
1.32597e-07
5.68973e-06
1.57331e-07
5.69542e-06
1.75562e-07
5.70208e-06
1.86009e-07
1.90672e-07
5.70841e-06
5.9874e-06
-4.28102e-08
6.01757e-06
8.72218e-08
5.97236e-06
-8.05454e-07
5.92721e-06
-1.00128e-06
5.93521e-06
-2.75379e-07
5.96583e-06
3.7683e-08
5.98045e-06
-1.01516e-07
5.97819e-06
-2.38546e-07
5.96486e-06
-2.52319e-07
5.95602e-06
-2.1119e-07
5.95733e-06
-1.14936e-07
5.95918e-06
-2.03945e-08
5.95626e-06
2.49206e-08
5.95635e-06
5.17835e-08
5.95869e-06
9.17095e-08
5.96029e-06
1.30994e-07
5.96265e-06
1.54973e-07
5.96792e-06
1.70289e-07
5.97485e-06
1.79079e-07
1.84118e-07
5.98141e-06
6.27347e-06
-4.07953e-08
6.30241e-06
5.8289e-08
6.25829e-06
-7.61336e-07
6.2146e-06
-9.57589e-07
6.22127e-06
-2.82047e-07
6.25074e-06
8.20738e-09
6.26536e-06
-1.16134e-07
6.2631e-06
-2.36287e-07
6.25036e-06
-2.39576e-07
6.24163e-06
-2.02457e-07
6.24281e-06
-1.16119e-07
6.24499e-06
-2.25786e-08
6.24201e-06
2.79021e-08
6.24164e-06
5.21564e-08
6.24453e-06
8.88213e-08
6.24681e-06
1.28715e-07
6.24891e-06
1.5287e-07
6.25355e-06
1.65645e-07
6.26049e-06
1.72144e-07
1.77103e-07
6.26751e-06
6.57324e-06
-3.85704e-08
6.601e-06
3.05314e-08
6.55779e-06
-7.18128e-07
6.51578e-06
-9.15573e-07
6.52132e-06
-2.87585e-07
6.54918e-06
-1.96516e-08
6.56383e-06
-1.30784e-07
6.56174e-06
-2.34201e-07
6.54953e-06
-2.27365e-07
6.54079e-06
-1.9372e-07
6.54183e-06
-1.17156e-07
6.54448e-06
-2.52289e-08
6.5416e-06
3.07752e-08
6.54061e-06
5.31456e-08
6.54387e-06
8.55675e-08
6.54708e-06
1.25499e-07
6.54914e-06
1.50813e-07
6.55307e-06
1.61717e-07
6.55963e-06
1.65583e-07
1.69579e-07
6.56715e-06
6.88737e-06
-3.61493e-08
6.91401e-06
3.88664e-09
6.87168e-06
-6.75796e-07
6.83121e-06
-8.75106e-07
6.83605e-06
-2.92423e-07
6.86187e-06
-4.54705e-08
6.87642e-06
-1.45333e-07
6.87473e-06
-2.32513e-07
6.86304e-06
-2.15675e-07
6.85418e-06
-1.84853e-07
6.85493e-06
-1.17914e-07
6.85822e-06
-2.85153e-08
6.85568e-06
3.33136e-08
6.85398e-06
5.48509e-08
6.85728e-06
8.22669e-08
6.86159e-06
1.2119e-07
6.86395e-06
1.48445e-07
6.86719e-06
1.58479e-07
6.87305e-06
1.59728e-07
1.61743e-07
6.88088e-06
7.21655e-06
-3.35675e-08
7.24208e-06
-2.1637e-08
7.20081e-06
-6.34528e-07
7.16141e-06
-8.35701e-07
7.16611e-06
-2.97129e-07
7.18964e-06
-6.90017e-08
7.20376e-06
-1.59454e-07
7.20272e-06
-2.31471e-07
7.19164e-06
-2.0459e-07
7.1825e-06
-1.75719e-07
7.18275e-06
-1.18158e-07
7.18678e-06
-3.25449e-08
7.18485e-06
3.52391e-08
7.18243e-06
5.72706e-08
7.18541e-06
7.92873e-08
7.1908e-06
1.15802e-07
7.19383e-06
1.45414e-07
7.19661e-06
1.55701e-07
7.20158e-06
1.54753e-07
1.54009e-07
7.20932e-06
7.56154e-06
-3.08861e-08
7.58584e-06
-4.59337e-08
7.54607e-06
-5.94756e-07
7.50698e-06
-7.96611e-07
7.51214e-06
-3.02286e-07
7.53329e-06
-9.01613e-08
7.54651e-06
-1.72672e-07
7.54632e-06
-2.31283e-07
7.53599e-06
-1.94261e-07
7.52651e-06
-1.66238e-07
7.526e-06
-1.1764e-07
7.53067e-06
-3.72189e-08
7.52965e-06
3.62624e-08
7.5267e-06
6.02145e-08
7.52902e-06
7.69682e-08
7.53522e-06
1.096e-07
7.53926e-06
1.41378e-07
7.54192e-06
1.5304e-07
7.54608e-06
1.50589e-07
1.46923e-07
7.55317e-06
7.92312e-06
-2.81904e-08
7.94598e-06
-6.87957e-08
7.90832e-06
-5.57099e-07
7.86872e-06
-7.57006e-07
7.8747e-06
-3.08275e-07
7.89369e-06
-1.09151e-07
7.90542e-06
-1.84393e-07
7.90615e-06
-2.3202e-07
7.89679e-06
-1.84901e-07
7.88701e-06
-1.5645e-07
7.88543e-06
-1.16069e-07
7.89046e-06
-4.22479e-08
7.89055e-06
3.61752e-08
7.88745e-06
6.33166e-08
7.88887e-06
7.55484e-08
7.89549e-06
1.02981e-07
7.90077e-06
1.36098e-07
7.90366e-06
1.50144e-07
7.90728e-06
1.46972e-07
1.40846e-07
7.91336e-06
8.30208e-06
-2.55893e-08
8.32322e-06
-8.99405e-08
8.28836e-06
-5.2223e-07
8.24757e-06
-7.16217e-07
8.25439e-06
-3.15094e-07
8.27173e-06
-1.2649e-07
8.28138e-06
-1.94051e-07
8.28285e-06
-2.3349e-07
8.2747e-06
-1.76745e-07
8.26471e-06
-1.46465e-07
8.26183e-06
-1.13181e-07
8.26679e-06
-4.72128e-08
8.26809e-06
3.48785e-08
8.26528e-06
6.61193e-08
8.26581e-06
7.50196e-08
8.27238e-06
9.64145e-08
8.27898e-06
1.29495e-07
8.28243e-06
1.46701e-07
8.28584e-06
1.43563e-07
1.35784e-07
8.2909e-06
8.69929e-06
-2.32153e-08
8.71837e-06
-1.09022e-07
8.68687e-06
-4.90729e-07
8.64472e-06
-6.74065e-07
8.6517e-06
-3.22074e-07
8.66821e-06
-1.43e-07
8.67541e-06
-2.01257e-07
8.67709e-06
-2.35172e-07
8.67037e-06
-1.70016e-07
8.66032e-06
-1.36417e-07
8.65595e-06
-1.08819e-07
8.66039e-06
-5.16455e-08
8.6629e-06
3.23626e-08
8.66092e-06
6.8105e-08
8.66083e-06
7.51029e-08
8.66682e-06
9.04283e-08
8.67464e-06
1.21672e-07
8.67895e-06
1.42397e-07
8.68231e-06
1.40204e-07
1.31338e-07
8.68675e-06
9.11563e-06
-2.12221e-08
9.13227e-06
-1.25666e-07
9.10452e-06
-4.62982e-07
9.06135e-06
-6.3089e-07
9.06731e-06
-3.28036e-07
9.08379e-06
-1.59475e-07
9.08847e-06
-2.05939e-07
9.08966e-06
-2.36367e-07
9.08433e-06
-1.6468e-07
9.0746e-06
-1.26693e-07
9.06886e-06
-1.03082e-07
9.07227e-06
-5.50466e-08
9.07599e-06
2.86426e-08
9.07519e-06
6.89048e-08
9.07487e-06
7.54213e-08
9.07993e-06
8.53669e-08
9.08852e-06
1.13079e-07
9.09409e-06
1.36831e-07
9.09745e-06
1.3684e-07
1.2712e-07
9.10167e-06
9.552e-06
-1.97654e-08
9.56586e-06
-1.39523e-07
9.542e-06
-4.39121e-07
9.4986e-06
-5.87489e-07
9.50218e-06
-3.31622e-07
9.51882e-06
-1.76106e-07
9.52145e-06
-2.08576e-07
9.52143e-06
-2.3634e-07
9.51725e-06
-1.605e-07
9.5085e-06
-1.17945e-07
9.50181e-06
-9.63906e-08
9.50382e-06
-5.70598e-08
9.50856e-06
2.39001e-08
9.50905e-06
6.84134e-08
9.50884e-06
7.56328e-08
9.51292e-06
8.12932e-08
9.52159e-06
1.04406e-07
9.52866e-06
1.29764e-07
9.53217e-06
1.33326e-07
1.23005e-07
9.53629e-06
1.00094e-05
-1.89946e-08
1.00202e-05
-1.50325e-07
1e-05
-4.18971e-07
9.95755e-06
-5.45023e-07
9.95755e-06
-3.31622e-07
9.97425e-06
-1.92803e-07
9.97521e-06
-2.09537e-07
9.97341e-06
-2.34547e-07
9.97027e-06
-1.57361e-07
9.96302e-06
-1.10688e-07
9.9558e-06
-8.91769e-08
9.95642e-06
-5.76751e-08
9.96176e-06
1.85543e-08
9.96359e-06
6.65869e-08
9.96371e-06
7.55116e-08
9.96696e-06
7.80428e-08
9.97503e-06
9.63419e-08
9.98345e-06
1.21343e-07
9.98754e-06
1.29234e-07
1.19144e-07
9.9914e-06
1.04887e-05
-1.90392e-08
1.04963e-05
-1.57911e-07
1.04794e-05
-4.02129e-07
1.04392e-05
-5.04796e-07
1.0435e-05
-3.27377e-07
1.04512e-05
-2.09054e-07
1.04513e-05
-2.09659e-07
1.04473e-05
-2.30467e-07
1.04446e-05
-1.54703e-07
1.04391e-05
-1.05166e-07
1.0432e-05
-8.20641e-08
1.04313e-05
-5.70033e-08
1.04367e-05
1.31018e-08
1.04399e-05
6.34753e-08
1.04404e-05
7.49671e-08
1.04431e-05
7.53468e-08
1.04502e-05
8.9263e-08
1.04594e-05
1.12154e-07
1.04645e-05
1.2407e-07
1.15573e-07
1.04681e-05
1.0991e-05
-2.00038e-08
1.09953e-05
-1.62231e-07
1.09813e-05
-3.88079e-07
1.09444e-05
-4.67971e-07
1.09359e-05
-3.18881e-07
1.09507e-05
-2.23814e-07
1.09515e-05
-2.10471e-07
1.0945e-05
-2.23981e-07
1.09415e-05
-1.51207e-07
1.09377e-05
-1.01299e-07
1.09314e-05
-7.57671e-08
1.09296e-05
-5.52563e-08
1.09348e-05
7.94324e-09
1.09389e-05
5.9337e-08
1.094e-05
7.39224e-08
1.09423e-05
7.29987e-08
1.09483e-05
8.323e-08
1.09576e-05
1.02893e-07
1.0964e-05
1.17644e-07
1.12019e-07
1.09676e-05
1.15173e-05
-2.19424e-08
1.15185e-05
-1.63388e-07
1.15066e-05
-3.76198e-07
1.14741e-05
-4.3546e-07
1.14618e-05
-3.06602e-07
1.14737e-05
-2.35749e-07
1.14761e-05
-2.12896e-07
1.14683e-05
-2.16128e-07
1.1463e-05
-1.45885e-07
1.14599e-05
-9.82442e-08
1.14547e-05
-7.05464e-08
1.14525e-05
-5.31069e-08
1.1457e-05
3.51289e-09
1.14619e-05
5.44185e-08
1.14635e-05
7.23212e-08
1.14656e-05
7.08473e-08
1.14707e-05
7.81437e-08
1.14795e-05
9.40865e-08
1.1487e-05
1.10169e-07
1.08049e-07
1.1491e-05
1.20687e-05
-2.48358e-08
1.2067e-05
-1.61698e-07
1.20565e-05
-3.65694e-07
1.2029e-05
-4.07904e-07
1.20137e-05
-2.91317e-07
1.20217e-05
-2.43765e-07
1.20256e-05
-2.16777e-07
1.20181e-05
-2.08667e-07
1.20107e-05
-1.38493e-07
1.20072e-05
-9.47575e-08
1.2003e-05
-6.63447e-08
1.20009e-05
-5.10037e-08
1.20046e-05
-1.97379e-10
1.201e-05
4.90473e-08
1.20122e-05
7.01572e-08
1.20143e-05
6.87672e-08
1.20186e-05
7.38468e-08
1.20266e-05
8.60819e-08
1.20347e-05
1.02053e-07
1.03323e-07
1.20394e-05
1.26463e-05
-2.85621e-08
1.26424e-05
-1.57746e-07
1.26323e-05
-3.55608e-07
1.261e-05
-3.85598e-07
1.25928e-05
-2.74153e-07
1.25961e-05
-2.47092e-07
1.26006e-05
-2.21235e-07
1.2595e-05
-2.03074e-07
1.2586e-05
-1.29496e-07
1.25812e-05
-8.9996e-08
1.25776e-05
-6.26886e-08
1.25757e-05
-4.91233e-08
1.25789e-05
-3.4339e-09
1.25845e-05
4.34557e-08
1.25872e-05
6.74853e-08
1.25893e-05
6.66511e-08
1.2593e-05
7.01454e-08
1.26001e-05
7.90502e-08
1.26083e-05
9.37764e-08
9.77492e-08
1.26139e-05
1.32513e-05
-3.28952e-08
1.32458e-05
-1.5225e-07
1.32352e-05
-3.45015e-07
1.3218e-05
-3.68409e-07
1.32004e-05
-2.56535e-07
1.31986e-05
-2.45326e-07
1.32023e-05
-2.24906e-07
1.31993e-05
-2.00083e-07
1.31899e-05
-1.20082e-07
1.31835e-05
-8.36722e-08
1.31797e-05
-5.88561e-08
1.31781e-05
-4.74869e-08
1.3181e-05
-6.37543e-09
1.31868e-05
3.77247e-08
1.31899e-05
6.43576e-08
1.31921e-05
6.44763e-08
1.31954e-05
6.68314e-08
1.32014e-05
7.29882e-08
1.32094e-05
8.5804e-08
9.14443e-08
1.32157e-05
1.38848e-05
-3.75145e-08
1.38787e-05
-1.46131e-07
1.38667e-05
-3.33032e-07
1.38541e-05
-3.55809e-07
1.38374e-05
-2.39845e-07
1.38306e-05
-2.38549e-07
1.38318e-05
-2.26089e-07
1.38314e-05
-1.99641e-07
1.38232e-05
-1.11972e-07
1.38156e-05
-7.59884e-08
1.3811e-05
-5.43118e-08
1.38094e-05
-4.58978e-08
1.3812e-05
-8.97579e-09
1.38179e-05
3.18306e-08
1.38216e-05
6.07115e-08
1.38238e-05
6.22599e-08
1.38268e-05
6.37811e-08
1.38321e-05
6.77316e-08
1.38394e-05
7.84899e-08
8.47213e-08
1.38461e-05
1.45482e-05
-4.20454e-08
1.4542e-05
-1.39961e-07
1.45283e-05
-3.19332e-07
1.45195e-05
-3.46947e-07
1.45047e-05
-2.25056e-07
1.44933e-05
-2.27135e-07
1.44903e-05
-2.23179e-07
1.44919e-05
-2.0122e-07
1.44869e-05
-1.06917e-07
1.44787e-05
-6.77979e-08
1.44731e-05
-4.87092e-08
1.44711e-05
-4.39663e-08
1.44734e-05
-1.12131e-08
1.44793e-05
2.58986e-08
1.44836e-05
5.64156e-08
1.44859e-05
5.99297e-08
1.44887e-05
6.10035e-08
1.44934e-05
6.3073e-08
1.45e-05
7.19175e-08
7.80054e-08
1.45067e-05
1.5243e-05
-4.61626e-08
1.52375e-05
-1.34488e-07
1.52225e-05
-3.04345e-07
1.5215e-05
-3.39449e-07
1.52021e-05
-2.12164e-07
1.51874e-05
-2.12423e-07
1.518e-05
-2.1575e-07
1.51822e-05
-2.03438e-07
1.51814e-05
-1.06104e-07
1.51742e-05
-6.05903e-08
1.51675e-05
-4.19771e-08
1.51649e-05
-4.13652e-08
1.51666e-05
-1.29097e-08
1.51723e-05
2.01399e-08
1.51773e-05
5.14073e-08
1.518e-05
5.72954e-08
1.51825e-05
5.85029e-08
1.51866e-05
5.89643e-08
1.51925e-05
6.5968e-08
7.15975e-08
1.51989e-05
1.59706e-05
-4.94524e-08
1.59704e-05
-1.34232e-07
1.59509e-05
-2.84873e-07
1.59408e-05
-3.29332e-07
1.59311e-05
-2.02448e-07
1.59161e-05
-1.97415e-07
1.59044e-05
-2.04057e-07
1.59045e-05
-2.0357e-07
1.59077e-05
-1.09356e-07
1.59032e-05
-5.59997e-08
1.58957e-05
-3.45731e-08
1.58922e-05
-3.77996e-08
1.58932e-05
-1.39382e-08
1.58986e-05
1.47377e-08
1.59041e-05
4.58912e-08
1.59073e-05
5.41128e-08
1.59097e-05
5.61407e-08
1.59132e-05
5.54534e-08
1.59186e-05
6.05589e-08
6.55875e-08
1.59246e-05
1.67323e-05
-5.11664e-08
1.67244e-05
-1.26329e-07
1.67035e-05
-2.63948e-07
1.66977e-05
-3.23564e-07
1.66941e-05
-1.98779e-07
1.66808e-05
-1.84168e-07
1.66662e-05
-1.89417e-07
1.66622e-05
-1.99581e-07
1.66673e-05
-1.14484e-07
1.66664e-05
-5.5117e-08
1.66594e-05
-2.75316e-08
1.66549e-05
-3.32802e-08
1.66549e-05
-1.39781e-08
1.66598e-05
9.81385e-09
1.66656e-05
4.01363e-08
1.66693e-05
5.03427e-08
1.66719e-05
5.36215e-08
1.66749e-05
5.24722e-08
1.66796e-05
5.58213e-08
5.98877e-08
1.66853e-05
1.75308e-05
-5.1623e-08
1.75293e-05
-1.24847e-07
1.75048e-05
-2.39373e-07
1.74932e-05
-3.12008e-07
1.74924e-05
-1.97967e-07
1.74819e-05
-1.73642e-07
1.74661e-05
-1.73616e-07
1.74581e-05
-1.91633e-07
1.74624e-05
-1.18722e-07
1.7465e-05
-5.7804e-08
1.74596e-05
-2.21265e-08
1.74544e-05
-2.80542e-08
1.74534e-05
-1.29647e-08
1.74576e-05
5.65223e-09
1.74634e-05
3.43373e-08
1.74676e-05
4.61052e-08
1.74705e-05
5.07487e-08
1.74732e-05
4.96998e-08
1.74772e-05
5.19057e-08
5.44791e-08
1.74826e-05
1.83675e-05
-5.08265e-08
1.8365e-05
-1.22299e-07
1.83424e-05
-2.16753e-07
1.83279e-05
-2.97511e-07
1.83281e-05
-1.98197e-07
1.83208e-05
-1.66279e-07
1.83051e-05
-1.57975e-07
1.82941e-05
-1.80585e-07
1.82957e-05
-1.20317e-07
1.83006e-05
-6.27745e-08
1.82977e-05
-1.92197e-08
1.82924e-05
-2.27699e-08
1.82906e-05
-1.11131e-08
1.82935e-05
2.70758e-09
1.82992e-05
2.86658e-08
1.83038e-05
4.14629e-08
1.8307e-05
4.76128e-08
1.83099e-05
4.67944e-08
1.83132e-05
4.86037e-08
4.95865e-08