/*--------------------------------*- C++ -*----------------------------------*\
| =========                 |                                                 |
| \\      /  F ield         | OpenFOAM: The Open Source CFD Toolbox           |
|  \\    /   O peration     | Version:  v1906                                 |
|   \\  /    A nd           | Web:      www.OpenFOAM.com                      |
|    \\/     M anipulation  |                                                 |
\*---------------------------------------------------------------------------*/
FoamFile
{
    version     2.0;
    format      ascii;
    class       volVectorField;
    location    "7.2";
    object      U;
}
// * * * * * * * * * * * * * * * * * * * * * * * * * * * * * * * * * * * * * //

dimensions      [0 1 -1 0 0 0 0];


internalField   nonuniform List<vector> 
9600
(
(0.628662 0.000367455 0)
(1.33581 0.00493088 0)
(0.547185 -0.024504 0)
(1.46991 -0.00695988 0)
(0.811561 0.00911638 0)
(1.23407 0.0137479 0)
(0.699364 -0.00642558 0)
(1.2241 -0.0144751 0)
(0.774586 -0.0182689 0)
(1.25777 -0.00730298 0)
(0.783009 -0.000942589 0)
(1.21303 0.00586852 0)
(0.822234 0.00496493 0)
(1.20269 0.00740907 0)
(0.845802 0.00241772 0)
(1.16928 0.00633745 0)
(0.855798 0.00131908 0)
(1.13118 0.00464349 0)
(0.849705 0.00373278 0)
(1.11395 0.00510493 0)
(0.644655 0.000392931 0)
(1.31943 0.0060322 0)
(0.573373 -0.0263961 0)
(1.45138 -0.00899178 0)
(0.829928 0.0104443 0)
(1.21904 0.0151472 0)
(0.75838 -0.006758 0)
(1.20574 -0.0149962 0)
(0.815203 -0.0193526 0)
(1.24319 -0.00691835 0)
(0.816505 -0.000636284 0)
(1.18981 0.00573825 0)
(0.861242 0.00468363 0)
(1.16881 0.00721081 0)
(0.902932 0.00293655 0)
(1.12012 0.00610028 0)
(0.934657 0.00250866 0)
(1.05782 0.00423902 0)
(0.956265 0.00542338 0)
(1.00132 0.00398392 0)
(0.676275 0.000468766 0)
(1.28807 0.00684593 0)
(0.617777 -0.027803 0)
(1.4082 -0.0105595 0)
(0.870668 0.0123429 0)
(1.19559 0.0162263 0)
(0.83896 -0.00697398 0)
(1.17317 -0.0152843 0)
(0.873622 -0.0201027 0)
(1.20876 -0.00653383 0)
(0.879263 -0.000143956 0)
(1.14475 0.0053075 0)
(0.925823 0.00472154 0)
(1.11773 0.00670031 0)
(0.97429 0.00382698 0)
(1.07031 0.00562618 0)
(0.997929 0.0038501 0)
(1.01992 0.00405149 0)
(0.995588 0.00638497 0)
(0.989852 0.00478087 0)
(0.721573 0.000545389 0)
(1.24378 0.0075192 0)
(0.679011 -0.0290541 0)
(1.3385 -0.0122258 0)
(0.926106 0.013871 0)
(1.17151 0.0167436 0)
(0.925085 -0.0068845 0)
(1.13349 -0.0154485 0)
(0.933981 -0.0206695 0)
(1.15982 -0.00645405 0)
(0.947466 0.000649972 0)
(1.09666 0.00477618 0)
(0.983497 0.00497608 0)
(1.07842 0.00597034 0)
(1.0224 0.00458664 0)
(1.05002 0.00534572 0)
(1.0267 0.00476303 0)
(1.01967 0.00444304 0)
(1.00705 0.00704343 0)
(0.999582 0.00580794 0)
(0.776743 0.000646315 0)
(1.19088 0.00806149 0)
(0.748658 -0.0299396 0)
(1.24802 -0.0141124 0)
(0.982812 0.014839 0)
(1.15374 0.0169446 0)
(1.00121 -0.00643726 0)
(1.09762 -0.0153941 0)
(0.979934 -0.0209691 0)
(1.10978 -0.00661531 0)
(0.998023 0.00148479 0)
(1.06361 0.00435116 0)
(1.01877 0.00507152 0)
(1.06053 0.00531637 0)
(1.04648 0.00501126 0)
(1.05062 0.00536775 0)
(1.04053 0.00541907 0)
(1.02973 0.00509246 0)
(1.01762 0.00774919 0)
(1.00885 0.00680654 0)
(0.835646 0.000767321 0)
(1.13678 0.00845286 0)
(0.815456 -0.030386 0)
(1.15039 -0.0160754 0)
(1.02841 0.0151555 0)
(1.1457 0.01692 0)
(1.05798 -0.00565527 0)
(1.0733 -0.0149871 0)
(1.00493 -0.020981 0)
(1.06928 -0.00689439 0)
(1.02417 0.002064 0)
(1.04823 0.00407786 0)
(1.03574 0.00495136 0)
(1.05626 0.00479752 0)
(1.05756 0.00516741 0)
(1.05714 0.00551339 0)
(1.04997 0.0060045 0)
(1.03942 0.00577681 0)
(1.02805 0.00847908 0)
(1.01809 0.0078716 0)
(0.890857 0.000880241 0)
(1.09005 0.00874006 0)
(0.870897 -0.0303659 0)
(1.06315 -0.0179749 0)
(1.05614 0.0146495 0)
(1.14467 0.0167118 0)
(1.09389 -0.00460761 0)
(1.06107 -0.0141732 0)
(1.01309 -0.0207051 0)
(1.04066 -0.00722949 0)
(1.03174 0.00225906 0)
(1.04283 0.00385485 0)
(1.04308 0.00469875 0)
(1.05645 0.00433517 0)
(1.06244 0.00514269 0)
(1.06231 0.00566078 0)
(1.05638 0.00652122 0)
(1.04647 0.00645718 0)
(1.03597 0.0091991 0)
(1.02597 0.00899772 0)
(0.935866 0.000947212 0)
(1.0567 0.00898853 0)
(0.912631 -0.0299433 0)
(0.999728 -0.0197351 0)
(1.06582 0.0132726 0)
(1.14399 0.0163528 0)
(1.11173 -0.00338649 0)
(1.05623 -0.0129986 0)
(1.01248 -0.0201442 0)
(1.02099 -0.00758877 0)
(1.02921 0.00210856 0)
(1.03976 0.0035455 0)
(1.04553 0.00435806 0)
(1.05624 0.00388682 0)
(1.0633 0.00501814 0)
(1.06389 0.00577425 0)
(1.059 0.00695013 0)
(1.04995 0.00715515 0)
(1.04045 0.00989792 0)
(1.03098 0.0101152 0)
(0.967167 0.000936111 0)
(1.03764 0.00922666 0)
(0.943037 -0.0292205 0)
(0.963559 -0.021285 0)
(1.0618 0.0112454 0)
(1.13794 0.0158431 0)
(1.11523 -0.00210613 0)
(1.0534 -0.0115966 0)
(1.00936 -0.0193269 0)
(1.00713 -0.00793715 0)
(1.02242 0.00170283 0)
(1.03516 0.00308071 0)
(1.0441 0.00394571 0)
(1.05345 0.00345851 0)
(1.06043 0.00485649 0)
(1.06137 0.00586104 0)
(1.05741 0.00730761 0)
(1.04942 0.00785781 0)
(1.04119 0.0105483 0)
(1.03265 0.0111679 0)
(0.985086 0.00083878 0)
(1.02928 0.0094309 0)
(0.965599 -0.0283042 0)
(0.949114 -0.0225425 0)
(1.04968 0.00893097 0)
(1.12428 0.0152012 0)
(1.10786 -0.000869149 0)
(1.04923 -0.0101354 0)
(1.0066 -0.0183229 0)
(0.997566 -0.00823106 0)
(1.01442 0.001147 0)
(1.02813 0.00248722 0)
(1.03874 0.00348038 0)
(1.04716 0.00305835 0)
(1.05383 0.00468019 0)
(1.05497 0.00593821 0)
(1.0519 0.00760175 0)
(1.04516 0.00852089 0)
(1.03846 0.0111267 0)
(1.03122 0.0121201 0)
(0.992945 0.000676069 0)
(1.02638 0.00955078 0)
(0.982591 -0.027294 0)
(0.947788 -0.0234507 0)
(1.03398 0.00665552 0)
(1.10394 0.0144864 0)
(1.093 0.000239373 0)
(1.04277 -0.00877181 0)
(1.00471 -0.0172313 0)
(0.991755 -0.00842822 0)
(1.0068 0.000563281 0)
(1.01938 0.00185202 0)
(1.03002 0.00298904 0)
(1.03761 0.00268595 0)
(1.04406 0.00448073 0)
(1.04557 0.00600403 0)
(1.04348 0.00781994 0)
(1.03817 0.00910552 0)
(1.03316 0.0116225 0)
(1.02746 0.0129344 0)
(0.995103 0.00048579 0)
(1.0248 0.00954589 0)
(0.99493 -0.0262726 0)
(0.952616 -0.0240103 0)
(1.01765 0.00464607 0)
(1.07978 0.0137566 0)
(1.07429 0.00115187 0)
(1.03468 -0.00762321 0)
(1.00325 -0.0161523 0)
(0.989051 -0.00850929 0)
(1.0005 6.09776e-05 0)
(1.01042 0.00126756 0)
(1.0196 0.00250934 0)
(1.02623 0.0023456 0)
(1.03249 0.00424207 0)
(1.03455 0.00603755 0)
(1.03361 0.00794588 0)
(1.02985 0.0095815 0)
(1.02657 0.0120261 0)
(1.02245 0.0135774 0)
(0.995108 0.000300781 0)
(1.02264 0.00941974 0)
(1.00312 -0.0252973 0)
(0.959427 -0.0242586 0)
(1.0028 0.00300634 0)
(1.05546 0.0130528 0)
(1.05533 0.0018503 0)
(1.02625 -0.00674211 0)
(1.0018 -0.0151615 0)
(0.98844 -0.00848779 0)
(0.996015 -0.000302163 0)
(1.00278 0.000798913 0)
(1.00963 0.0020816 0)
(1.01509 0.00204869 0)
(1.021 0.00395978 0)
(1.02354 0.00601827 0)
(1.02378 0.00797067 0)
(1.02152 0.0099218 0)
(1.01987 0.0123325 0)
(1.01721 0.0140447 0)
(0.994911 0.000141022 0)
(1.01971 0.00919856 0)
(1.00791 -0.0243987 0)
(0.966079 -0.0242537 0)
(0.990998 0.00174586 0)
(1.03426 0.0123859 0)
(1.03892 0.00231561 0)
(1.01868 -0.00612712 0)
(1.00023 -0.0142969 0)
(0.988825 -0.00840053 0)
(0.993372 -0.000529342 0)
(0.997434 0.000470013 0)
(1.00185 0.00172991 0)
(1.00596 0.00180846 0)
(1.01125 0.0036506 0)
(1.0139 0.00594325 0)
(1.01509 0.00790278 0)
(1.01407 0.0101151 0)
(1.01381 0.0125505 0)
(1.01239 0.0143573 0)
(0.995127 1.30004e-05 0)
(1.01656 0.00891383 0)
(1.01032 -0.0235793 0)
(0.97163 -0.024061 0)
(0.9829 0.000816986 0)
(1.01801 0.011752 0)
(1.02645 0.00258054 0)
(1.01266 -0.00573036 0)
(0.99866 -0.013557 0)
(0.989398 -0.00828484 0)
(0.992179 -0.000663517 0)
(0.994449 0.000265435 0)
(0.996941 0.00145498 0)
(0.999696 0.00163913 0)
(1.00414 0.0033489 0)
(1.00643 0.00583088 0)
(1.0081 0.00777462 0)
(1.00791 0.0101778 0)
(1.00868 0.012694 0)
(1.00827 0.0145408 0)
(0.995684 -8.74883e-05 0)
(1.01371 0.00859911 0)
(1.01129 -0.0228229 0)
(0.975861 -0.0237412 0)
(0.97818 0.00014812 0)
(1.0069 0.0111488 0)
(1.01792 0.00269588 0)
(1.00832 -0.00548833 0)
(0.997298 -0.0129183 0)
(0.989796 -0.0081654 0)
(0.991864 -0.000757809 0)
(0.993231 0.00014743 0)
(0.994519 0.00124084 0)
(0.996143 0.00154819 0)
(0.999678 0.00309032 0)
(1.00124 0.00570981 0)
(1.00291 0.00763164 0)
(1.00311 0.0101473 0)
(1.00452 0.0127722 0)
(1.00486 0.0146204 0)
(0.996342 -0.000165501 0)
(1.01142 0.0082673 0)
(1.01149 -0.0221127 0)
(0.97894 -0.0233433 0)
(0.975938 -0.000333769 0)
(0.999959 0.0105693 0)
(1.01249 0.0026985 0)
(1.00541 -0.00534446 0)
(0.996257 -0.0123532 0)
(0.990002 -0.00805068 0)
(0.991937 -0.000852886 0)
(0.992992 7.72046e-05 0)
(0.993695 0.00106699 0)
(0.994526 0.0015264 0)
(0.997276 0.00289826 0)
(0.998013 0.00560392 0)
(0.999329 0.00751366 0)
(0.999567 0.0100636 0)
(1.00128 0.0127915 0)
(1.00215 0.0146249 0)
(0.996927 -0.000226549 0)
(1.00971 0.0079233 0)
(1.01127 -0.0214333 0)
(0.98116 -0.0229012 0)
(0.975229 -0.000691655 0)
(0.995941 0.010006 0)
(1.00913 0.00263869 0)
(1.00354 -0.00525587 0)
(0.995541 -0.0118381 0)
(0.990149 -0.00793779 0)
(0.992121 -0.000970149 0)
(0.993118 2.74536e-05 0)
(0.993603 0.000915693 0)
(0.993958 0.00155159 0)
(0.996147 0.00277932 0)
(0.996169 0.00552512 0)
(0.997011 0.00744283 0)
(0.997117 0.00995868 0)
(0.998902 0.012759 0)
(1.00013 0.014582 0)
(0.997365 -0.000275015 0)
(1.00851 0.00757031 0)
(1.01083 -0.0207714 0)
(0.98279 -0.0224381 0)
(0.975328 -0.000970959 0)
(0.993758 0.00945783 0)
(1.00702 0.00253242 0)
(1.00236 -0.00519688 0)
(0.995088 -0.0113581 0)
(0.990349 -0.00781894 0)
(0.992309 -0.00111112 0)
(0.993276 -1.38541e-05 0)
(0.993671 0.000776522 0)
(0.99377 0.00160072 0)
(0.995612 0.00272422 0)
(0.995149 0.00547296 0)
(0.995556 0.00742227 0)
(0.995529 0.00985633 0)
(0.997269 0.012682 0)
(0.998731 0.0145051 0)
(0.997645 -0.00031464 0)
(1.00773 0.007211 0)
(1.01025 -0.0201169 0)
(0.984029 -0.0219655 0)
(0.975761 -0.00119804 0)
(0.992652 0.00891912 0)
(1.00564 0.00239127 0)
(1.00165 -0.00515145 0)
(0.99482 -0.010903 0)
(0.99064 -0.00768814 0)
(0.992474 -0.00126784 0)
(0.993347 -5.14717e-05 0)
(0.993645 0.000647645 0)
(0.993612 0.0016563 0)
(0.995251 0.00271526 0)
(0.994544 0.00543825 0)
(0.994625 0.00743815 0)
(0.994568 0.00976838 0)
(0.996247 0.0125676 0)
(0.997894 0.014393 0)
(0.997772 -0.000348211 0)
(1.00728 0.00684593 0)
(1.0096 -0.019463 0)
(0.985019 -0.0214871 0)
(0.976269 -0.0013911 0)
(0.992163 0.00838655 0)
(1.0047 0.00222412 0)
(1.00125 -0.00511216 0)
(0.994678 -0.0104676 0)
(0.991003 -0.00754297 0)
(0.992612 -0.00142688 0)
(0.993321 -7.82003e-05 0)
(0.993483 0.000533963 0)
(0.993391 0.00170689 0)
(0.994911 0.00273556 0)
(0.99415 0.00541148 0)
(0.994018 0.00746819 0)
(0.994048 0.00968917 0)
(0.995702 0.0124201 0)
(0.997516 0.0142472 0)
(0.997752 -0.000377745 0)
(1.00709 0.00647496 0)
(1.00891 -0.0188044 0)
(0.985858 -0.0210045 0)
(0.976764 -0.00156576 0)
(0.99204 0.00785887 0)
(1.00405 0.00203433 0)
(1.00106 -0.00506914 0)
(0.994616 -0.01005 0)
(0.991399 -0.00738538 0)
(0.992731 -0.00158586 0)
(0.993236 -9.58336e-05 0)
(0.993246 0.000441237 0)
(0.993152 0.00175033 0)
(0.994604 0.00277435 0)
(0.993915 0.00538329 0)
(0.993656 0.00749783 0)
(0.993854 0.00960574 0)
(0.995525 0.0122374 0)
(0.997485 0.0140792 0)
(0.99761 -0.000404466 0)
(1.00706 0.00609762 0)
(1.00823 -0.0181385 0)
(0.986611 -0.0205159 0)
(0.977258 -0.00172933 0)
(0.992142 0.00733455 0)
(1.00357 0.00182114 0)
(1.00097 -0.00501986 0)
(0.994606 -0.00964307 0)
(0.991797 -0.00721296 0)
(0.99286 -0.00173975 0)
(0.993141 -0.000115427 0)
(0.993011 0.000369158 0)
(0.99296 0.00178725 0)
(0.994386 0.00282612 0)
(0.993842 0.00534259 0)
(0.993514 0.00751736 0)
(0.993905 0.00951665 0)
(0.995622 0.01201 0)
(0.997687 0.0138904 0)
(0.99739 -0.000428862 0)
(1.00711 0.00571245 0)
(1.00756 -0.0174647 0)
(0.987305 -0.0200198 0)
(0.977796 -0.00188839 0)
(0.99237 0.00681146 0)
(1.00321 0.00158738 0)
(1.0009 -0.00496464 0)
(0.994627 -0.0092436 0)
(0.992181 -0.00702556 0)
(0.993028 -0.0018732 0)
(0.99308 -0.000136378 0)
(0.992836 0.000312105 0)
(0.992855 0.0018123 0)
(0.994287 0.00288421 0)
(0.993915 0.00528825 0)
(0.993561 0.00751496 0)
(0.994117 0.00942675 0)
(0.995901 0.011737 0)
(0.998014 0.0136573 0)
(0.997151 -0.000450563 0)
(1.00713 0.00532015 0)
(1.00693 -0.0167854 0)
(0.987937 -0.0195161 0)
(0.978402 -0.00204722 0)
(0.992648 0.00628888 0)
(1.00292 0.00133581 0)
(1.00078 -0.0049041 0)
(0.994671 -0.00884996 0)
(0.992546 -0.00683343 0)
(0.99325 -0.0019883 0)
(0.993076 -0.000157391 0)
(0.992746 0.000268726 0)
(0.992841 0.00182379 0)
(0.994298 0.00294137 0)
(0.994088 0.0052261 0)
(0.99374 0.00748851 0)
(0.994406 0.0093374 0)
(0.996269 0.0114344 0)
(0.998379 0.013351 0)
(0.996951 -0.00046908 0)
(1.00708 0.00492314 0)
(1.00636 -0.0161039 0)
(0.988498 -0.019003 0)
(0.979076 -0.00220788 0)
(0.992927 0.00576926 0)
(1.00268 0.00107486 0)
(1.0006 -0.00484403 0)
(0.994732 -0.0084586 0)
(0.992891 -0.00663896 0)
(0.993524 -0.00208988 0)
(0.993134 -0.000179557 0)
(0.99274 0.000240548 0)
(0.992903 0.00182256 0)
(0.994397 0.00299759 0)
(0.994316 0.00515266 0)
(0.993997 0.00743457 0)
(0.994705 0.00925367 0)
(0.996655 0.0111327 0)
(0.998732 0.0129703 0)
(0.996829 -0.000483652 0)
(1.00693 0.00452339 0)
(1.00586 -0.0154227 0)
(0.988986 -0.018481 0)
(0.979794 -0.00237225 0)
(0.993185 0.00525342 0)
(1.00246 0.000803532 0)
(1.00038 -0.00478115 0)
(0.994802 -0.00807169 0)
(0.993219 -0.00644317 0)
(0.993832 -0.00218097 0)
(0.993247 -0.000204144 0)
(0.992801 0.00022544 0)
(0.993025 0.00180505 0)
(0.994559 0.00305469 0)
(0.994569 0.00507068 0)
(0.994298 0.00733433 0)
(0.994986 0.00916788 0)
(0.997018 0.0108654 0)
(0.999048 0.0125522 0)
(0.996799 -0.000493234 0)
(1.00668 0.00411934 0)
(1.00542 -0.0147445 0)
(0.989417 -0.017946 0)
(0.980529 -0.00254232 0)
(0.993414 0.00474638 0)
(1.00226 0.000523854 0)
(1.00014 -0.00471684 0)
(0.994867 -0.00769107 0)
(0.993532 -0.0062419 0)
(0.994156 -0.00226576 0)
(0.9934 -0.000228218 0)
(0.992909 0.000226858 0)
(0.99319 0.00177394 0)
(0.994766 0.00310828 0)
(0.994833 0.00500103 0)
(0.994625 0.00718869 0)
(0.995249 0.00904622 0)
(0.997345 0.0106333 0)
(0.999318 0.0121503 0)
(0.996847 -0.000498893 0)
(1.00636 0.00371522 0)
(1.00504 -0.0140731 0)
(0.98982 -0.017394 0)
(0.981259 -0.00271777 0)
(0.993617 0.00424612 0)
(1.00205 0.000245426 0)
(0.999882 -0.00466006 0)
(0.994913 -0.00732016 0)
(0.993829 -0.00603703 0)
(0.994477 -0.00233985 0)
(0.99358 -0.000249127 0)
(0.993042 0.00025068 0)
(0.993386 0.001739 0)
(0.995004 0.0031501 0)
(0.995104 0.00495452 0)
(0.994963 0.00703566 0)
(0.995506 0.00887453 0)
(0.997643 0.0103956 0)
(0.999545 0.0117927 0)
(0.996948 -0.000499935 0)
(1.00601 0.00331666 0)
(1.00471 -0.0134152 0)
(0.990222 -0.0168272 0)
(0.981976 -0.00289719 0)
(0.993799 0.00374702 0)
(1.00183 -3.29972e-05 0)
(0.999627 -0.00460992 0)
(0.994932 -0.00696334 0)
(0.994105 -0.00583738 0)
(0.994786 -0.00240662 0)
(0.993772 -0.000273533 0)
(0.993184 0.000289025 0)
(0.9936 0.00170592 0)
(0.99526 0.00317664 0)
(0.995383 0.0049157 0)
(0.995301 0.00689823 0)
(0.995761 0.00868524 0)
(0.997924 0.0101236 0)
(0.999745 0.0114557 0)
(0.997073 -0.000496273 0)
(1.00566 0.00292194 0)
(1.00439 -0.0127756 0)
(0.99064 -0.0162456 0)
(0.982684 -0.00307667 0)
(0.993967 0.00324984 0)
(1.00159 -0.000305176 0)
(0.999377 -0.00456778 0)
(0.994921 -0.00661853 0)
(0.994357 -0.00563249 0)
(0.995078 -0.0024711 0)
(0.993969 -0.00030648 0)
(0.993325 0.000332269 0)
(0.993822 0.00167578 0)
(0.995523 0.00319201 0)
(0.995667 0.00487265 0)
(0.995635 0.00675709 0)
(0.996014 0.008505 0)
(0.998186 0.00983781 0)
(0.999932 0.0110989 0)
(0.997202 -0.000490483 0)
(1.00531 0.00253616 0)
(1.00408 -0.0121521 0)
(0.991079 -0.015651 0)
(0.983393 -0.003252 0)
(0.994128 0.00275329 0)
(1.00133 -0.00056658 0)
(0.999134 -0.00452831 0)
(0.994888 -0.00628651 0)
(0.994582 -0.00542379 0)
(0.995352 -0.00252686 0)
(0.994164 -0.000338411 0)
(0.993459 0.000384031 0)
(0.994042 0.00165078 0)
(0.995782 0.00319833 0)
(0.99595 0.0048341 0)
(0.995959 0.00659646 0)
(0.996265 0.0083185 0)
(0.998424 0.00957525 0)
(1.00011 0.0107211 0)
(0.997323 -0.000481902 0)
(1.00499 0.00216173 0)
(1.00377 -0.011551 0)
(0.991532 -0.015047 0)
(0.984109 -0.00341961 0)
(0.99429 0.00225766 0)
(1.00106 -0.00082049 0)
(0.998901 -0.00448224 0)
(0.994841 -0.0059739 0)
(0.99478 -0.00521938 0)
(0.995612 -0.00257429 0)
(0.994355 -0.000374407 0)
(0.993584 0.000443132 0)
(0.994255 0.00162924 0)
(0.996036 0.00319293 0)
(0.996223 0.00480721 0)
(0.996267 0.00643118 0)
(0.996519 0.00809665 0)
(0.998636 0.00933639 0)
(1.00028 0.0103591 0)
(0.997437 -0.000469931 0)
(1.00469 0.0018008 0)
(1.00345 -0.0109712 0)
(0.991989 -0.0144419 0)
(0.984837 -0.00357468 0)
(0.99446 0.00176461 0)
(1.0008 -0.00106981 0)
(0.998678 -0.00443672 0)
(0.99479 -0.00567802 0)
(0.994954 -0.00502008 0)
(0.99586 -0.00261195 0)
(0.994544 -0.00041386 0)
(0.9937 0.000504844 0)
(0.994456 0.00160675 0)
(0.996284 0.00317522 0)
(0.996484 0.00479097 0)
(0.99655 0.00628847 0)
(0.996772 0.00784054 0)
(0.998833 0.00908425 0)
(1.00042 0.010037 0)
(0.997543 -0.000455204 0)
(1.00441 0.00145098 0)
(1.00312 -0.010411 0)
(0.99244 -0.0138408 0)
(0.985572 -0.00371115 0)
(0.994637 0.00127533 0)
(1.00055 -0.00132152 0)
(0.998469 -0.00439729 0)
(0.994739 -0.00539622 0)
(0.995107 -0.00483101 0)
(0.996099 -0.00264492 0)
(0.99473 -0.000454565 0)
(0.993809 0.000568367 0)
(0.994641 0.00158396 0)
(0.996528 0.0031391 0)
(0.996736 0.00477346 0)
(0.996802 0.00617705 0)
(0.997015 0.00757976 0)
(0.999023 0.00879177 0)
(1.00054 0.00974076 0)
(0.997646 -0.000438073 0)
(1.00414 0.00111233 0)
(1.00279 -0.00986854 0)
(0.992879 -0.01325 0)
(0.986306 -0.00382875 0)
(0.99482 0.00079576 0)
(1.00032 -0.00156801 0)
(0.998274 -0.00435193 0)
(0.994693 -0.00512926 0)
(0.99524 -0.00464392 0)
(0.996331 -0.00267647 0)
(0.99492 -0.000500547 0)
(0.993911 0.00063639 0)
(0.99481 0.0015648 0)
(0.996769 0.00307705 0)
(0.996981 0.00473866 0)
(0.997026 0.00608436 0)
(0.997234 0.0073395 0)
(0.999208 0.00847066 0)
(1.00066 0.00944407 0)
(0.997745 -0.00041961 0)
(1.00388 0.000793202 0)
(1.00247 -0.00933836 0)
(0.993302 -0.0126762 0)
(0.987033 -0.00392812 0)
(0.995007 0.00033533 0)
(1.0001 -0.00181437 0)
(0.998094 -0.00430306 0)
(0.99465 -0.00486968 0)
(0.995356 -0.00445395 0)
(0.996555 -0.00270335 0)
(0.995116 -0.000544451 0)
(0.994009 0.000716946 0)
(0.994958 0.00155641 0)
(0.997003 0.00299055 0)
(0.997226 0.00468164 0)
(0.997227 0.006001 0)
(0.997426 0.00712363 0)
(0.999383 0.00814216 0)
(1.00077 0.00912652 0)
(0.997842 -0.000398642 0)
(1.00363 0.000482357 0)
(1.00215 -0.00881693 0)
(0.99371 -0.0121253 0)
(0.987747 -0.00401503 0)
(0.995194 -0.000100752 0)
(0.999898 -0.00206498 0)
(0.997932 -0.00425974 0)
(0.994612 -0.00461694 0)
(0.995452 -0.0042709 0)
(0.99677 -0.00273508 0)
(0.995324 -0.000601084 0)
(0.994106 0.000801987 0)
(0.995082 0.00156338 0)
(0.997229 0.00287961 0)
(0.997471 0.00459518 0)
(0.99741 0.00592939 0)
(0.997584 0.00693116 0)
(0.999541 0.00781593 0)
(1.00089 0.00877732 0)
(0.997937 -0.000375387 0)
(1.0034 0.000185918 0)
(1.00185 -0.0083022 0)
(0.994101 -0.0115999 0)
(0.988444 -0.00408594 0)
(0.995378 -0.000516532 0)
(0.999713 -0.00232205 0)
(0.997789 -0.00422765 0)
(0.994576 -0.00437488 0)
(0.995526 -0.00408503 0)
(0.996972 -0.00276312 0)
(0.995547 -0.000676521 0)
(0.994207 0.000888772 0)
(0.99518 0.00159719 0)
(0.997442 0.00275284 0)
(0.997724 0.00446445 0)
(0.99758 0.00586461 0)
(0.997705 0.00677341 0)
(0.999672 0.00750107 0)
(1.00102 0.00838728 0)
(0.998031 -0.000350402 0)
(1.00318 -9.5477e-05 0)
(1.00156 -0.00779529 0)
(0.994478 -0.0110877 0)
(0.989122 -0.00414906 0)
(0.995555 -0.000892859 0)
(0.999542 -0.00257462 0)
(0.997669 -0.00420738 0)
(0.994548 -0.00414299 0)
(0.995579 -0.00388364 0)
(0.997156 -0.00278041 0)
(0.995785 -0.000770659 0)
(0.99432 0.000971043 0)
(0.995252 0.00166594 0)
(0.997631 0.00262889 0)
(0.997989 0.00427938 0)
(0.997751 0.00578039 0)
(0.997787 0.00665924 0)
(0.999757 0.0072235 0)
(1.00115 0.00796352 0)
(0.998122 -0.000323446 0)
(1.00296 -0.000370333 0)
(1.00129 -0.00730056 0)
(0.994837 -0.0105823 0)
(0.989782 -0.00422084 0)
(0.995725 -0.0012235 0)
(0.999382 -0.00280411 0)
(0.997571 -0.00419779 0)
(0.994528 -0.00392743 0)
(0.995611 -0.00367691 0)
(0.997316 -0.00278459 0)
(0.996038 -0.000887955 0)
(0.994452 0.00102579 0)
(0.995299 0.00176325 0)
(0.997788 0.00252879 0)
(0.998261 0.00404607 0)
(0.997939 0.00564526 0)
(0.997841 0.00657072 0)
(0.999782 0.007011 0)
(1.00126 0.00754549 0)
(0.998211 -0.000296815 0)
(1.00276 -0.000629243 0)
(1.00103 -0.00683271 0)
(0.995178 -0.0100737 0)
(0.990424 -0.00430286 0)
(0.995889 -0.00152402 0)
(0.999232 -0.00301427 0)
(0.997494 -0.0042083 0)
(0.994519 -0.00372926 0)
(0.995625 -0.00346656 0)
(0.997451 -0.0027589 0)
(0.9963 -0.00102063 0)
(0.99461 0.0010409 0)
(0.995329 0.00187584 0)
(0.9979 0.0024689 0)
(0.998531 0.00379032 0)
(0.998156 0.00544966 0)
(0.997889 0.0064701 0)
(0.999744 0.00685634 0)
(1.00132 0.00718462 0)
(0.998299 -0.000269711 0)
(1.00257 -0.000873084 0)
(1.0008 -0.00640209 0)
(0.9955 -0.00955171 0)
(0.991046 -0.0044007 0)
(0.996051 -0.00179431 0)
(0.999091 -0.0031857 0)
(0.997441 -0.00424065 0)
(0.994526 -0.00355871 0)
(0.995626 -0.00324971 0)
(0.997558 -0.00269943 0)
(0.996569 -0.00115809 0)
(0.994799 0.00101135 0)
(0.995353 0.00198051 0)
(0.997964 0.00244733 0)
(0.998784 0.00353992 0)
(0.998402 0.00520717 0)
(0.99795 0.00633926 0)
(0.999662 0.00671907 0)
(1.00131 0.00690643 0)
(0.998385 -0.00024321 0)
(1.0024 -0.00110063 0)
(1.00059 -0.00600673 0)
(0.995802 -0.00901026 0)
(0.991647 -0.00450735 0)
(0.996215 -0.00205057 0)
(0.998956 -0.00331272 0)
(0.997408 -0.0042837 0)
(0.994552 -0.00341924 0)
(0.995618 -0.00302899 0)
(0.997637 -0.00260866 0)
(0.996838 -0.00128066 0)
(0.99502 0.000941648 0)
(0.99538 0.00206008 0)
(0.997981 0.00245273 0)
(0.999009 0.00330673 0)
(0.998676 0.00492002 0)
(0.998033 0.00618015 0)
(0.999555 0.00656971 0)
(1.00121 0.00668824 0)
(0.99847 -0.000220768 0)
(1.00224 -0.00130088 0)
(1.0004 -0.00565483 0)
(0.996081 -0.00844406 0)
(0.992224 -0.00460827 0)
(0.996385 -0.00230788 0)
(0.998832 -0.0033966 0)
(0.997394 -0.00431549 0)
(0.994603 -0.00330574 0)
(0.995605 -0.00280881 0)
(0.997686 -0.00248689 0)
(0.997103 -0.00137944 0)
(0.995275 0.000834278 0)
(0.995419 0.00210061 0)
(0.997956 0.00247741 0)
(0.999191 0.00310786 0)
(0.998972 0.00458696 0)
(0.998146 0.00598295 0)
(0.999436 0.006417 0)
(1.00106 0.00648409 0)
(0.998553 -0.000203409 0)
(1.00208 -0.00146894 0)
(1.00024 -0.00535237 0)
(0.996341 -0.00787044 0)
(0.992769 -0.00468027 0)
(0.996566 -0.00256952 0)
(0.998719 -0.00344758 0)
(0.997397 -0.0043265 0)
(0.994681 -0.00322057 0)
(0.995596 -0.00261114 0)
(0.997705 -0.0023312 0)
(0.997356 -0.00144557 0)
(0.995561 0.000702268 0)
(0.995485 0.00209169 0)
(0.997901 0.00250425 0)
(0.999318 0.00296164 0)
(0.999276 0.0042322 0)
(0.998306 0.00571752 0)
(0.999313 0.00627389 0)
(1.00087 0.00627595 0)
(0.998635 -0.000191697 0)
(1.00194 -0.00160609 0)
(1.00011 -0.00509657 0)
(0.996585 -0.00730582 0)
(0.993281 -0.0047078 0)
(0.996756 -0.00284042 0)
(0.998625 -0.00346946 0)
(0.997414 -0.00430231 0)
(0.994784 -0.00316106 0)
(0.995601 -0.00244469 0)
(0.997701 -0.00215558 0)
(0.997587 -0.00147387 0)
(0.99587 0.000559702 0)
(0.995581 0.00203766 0)
(0.997833 0.00250727 0)
(0.999389 0.00285485 0)
(0.999563 0.00389656 0)
(0.998522 0.0053689 0)
(0.999208 0.00611612 0)
(1.00065 0.00607787 0)
(0.998717 -0.000187776 0)
(1.00181 -0.00170759 0)
(1.00002 -0.00488645 0)
(0.996817 -0.00676459 0)
(0.993752 -0.00467483 0)
(0.996958 -0.00311449 0)
(0.998556 -0.00347152 0)
(0.997441 -0.00422921 0)
(0.994912 -0.00311118 0)
(0.995629 -0.00231673 0)
(0.99768 -0.00198851 0)
(0.997792 -0.00146551 0)
(0.996195 0.000418142 0)
(0.99571 0.00195617 0)
(0.997764 0.00248309 0)
(0.999413 0.00275552 0)
(0.999811 0.00360644 0)
(0.998786 0.00497151 0)
(0.999147 0.00590809 0)
(1.0004 0.00590708 0)
(0.998797 -0.000192728 0)
(1.00168 -0.00177327 0)
(0.999949 -0.0047105 0)
(0.997044 -0.00626442 0)
(0.994181 -0.00457408 0)
(0.997164 -0.00336661 0)
(0.998519 -0.00348502 0)
(0.997482 -0.00411316 0)
(0.995056 -0.00304844 0)
(0.99568 -0.00223211 0)
(0.997658 -0.00183255 0)
(0.997974 -0.0014273 0)
(0.996527 0.000287344 0)
(0.995871 0.00185403 0)
(0.997698 0.00244649 0)
(0.999402 0.00264998 0)
(1.00002 0.00335084 0)
(0.999079 0.00456779 0)
(0.999153 0.00563484 0)
(1.00016 0.00575248 0)
(0.998876 -0.000207659 0)
(1.00156 -0.00180095 0)
(0.999907 -0.00456284 0)
(0.997272 -0.0058159 0)
(0.994568 -0.00441015 0)
(0.997369 -0.00357754 0)
(0.998518 -0.00352671 0)
(0.997541 -0.00396852 0)
(0.995209 -0.00295464 0)
(0.995756 -0.00216708 0)
(0.997643 -0.00170386 0)
(0.998133 -0.00137572 0)
(0.996861 0.000164153 0)
(0.996066 0.0017271 0)
(0.99764 0.00240775 0)
(0.999361 0.00255951 0)
(1.00018 0.00312172 0)
(0.999384 0.0041753 0)
(0.999234 0.00530298 0)
(0.999935 0.00557972 0)
(0.998954 -0.000232561 0)
(1.00144 -0.00179118 0)
(0.999886 -0.00443693 0)
(0.997507 -0.00543101 0)
(0.994916 -0.0041969 0)
(0.997561 -0.00373255 0)
(0.998555 -0.00360204 0)
(0.997628 -0.00382365 0)
(0.995368 -0.0028111 0)
(0.995845 -0.00209605 0)
(0.997639 -0.00160983 0)
(0.998277 -0.00132058 0)
(0.997191 5.27237e-05 0)
(0.996298 0.00157707 0)
(0.997604 0.00235366 0)
(0.999292 0.00249111 0)
(1.00029 0.00293097 0)
(0.999684 0.00380287 0)
(0.999387 0.0049309 0)
(0.999763 0.00536935 0)
(0.999029 -0.000266086 0)
(1.00132 -0.001752 0)
(0.999878 -0.00431862 0)
(0.997754 -0.0051175 0)
(0.995231 -0.00395697 0)
(0.997731 -0.00381263 0)
(0.998623 -0.00369195 0)
(0.997755 -0.00371299 0)
(0.995535 -0.00263392 0)
(0.995937 -0.00200326 0)
(0.997642 -0.0015218 0)
(0.998412 -0.00127296 0)
(0.997513 -4.49155e-05 0)
(0.996561 0.0014179 0)
(0.9976 0.00227855 0)
(0.999213 0.00242373 0)
(1.00035 0.00278134 0)
(0.999959 0.00346763 0)
(0.999602 0.00453242 0)
(0.999668 0.00510964 0)
(0.999101 -0.000306922 0)
(1.00121 -0.00169547 0)
(0.999877 -0.00419765 0)
(0.998013 -0.00486851 0)
(0.995524 -0.00370477 0)
(0.997873 -0.00381221 0)
(0.998709 -0.00377346 0)
(0.997926 -0.0036504 0)
(0.99572 -0.00244542 0)
(0.996031 -0.00187758 0)
(0.997648 -0.00143471 0)
(0.998535 -0.00123863 0)
(0.997831 -0.000135077 0)
(0.996854 0.00125317 0)
(0.997628 0.00219275 0)
(0.999133 0.00234924 0)
(1.00037 0.00265449 0)
(1.00019 0.00318819 0)
(0.999854 0.00413381 0)
(0.999663 0.0047986 0)
(0.99917 -0.000352743 0)
(1.00109 -0.0016201 0)
(0.999878 -0.00406882 0)
(0.998285 -0.00469125 0)
(0.995803 -0.00346064 0)
(0.997984 -0.00372255 0)
(0.998801 -0.00382247 0)
(0.998142 -0.00363822 0)
(0.995935 -0.00226436 0)
(0.996121 -0.00170934 0)
(0.997646 -0.0013339 0)
(0.998645 -0.00119967 0)
(0.99814 -0.000220382 0)
(0.997176 0.00107251 0)
(0.997692 0.00209358 0)
(0.999056 0.0022779 0)
(1.00036 0.00253311 0)
(1.00037 0.00295616 0)
(1.00011 0.00376678 0)
(0.999743 0.00445244 0)
(0.999236 -0.000406422 0)
(1.00098 -0.00154307 0)
(0.999868 -0.00388869 0)
(0.998567 -0.0045671 0)
(0.996083 -0.00324769 0)
(0.998066 -0.0035573 0)
(0.998878 -0.00381438 0)
(0.998398 -0.00367719 0)
(0.996195 -0.00213548 0)
(0.996215 -0.00152606 0)
(0.997631 -0.00121072 0)
(0.998736 -0.0011516 0)
(0.99843 -0.000290011 0)
(0.997524 0.000878724 0)
(0.997804 0.00196571 0)
(0.998988 0.00221403 0)
(1.00033 0.00242308 0)
(1.00051 0.00275102 0)
(1.00036 0.00344102 0)
(0.999887 0.00409161 0)
(0.999296 -0.000445762 0)
(1.00088 -0.00150593 0)
(0.999845 -0.00370542 0)
(0.998847 -0.0044543 0)
(0.996371 -0.00306174 0)
(0.998127 -0.00333884 0)
(0.998924 -0.00370554 0)
(0.998674 -0.00373492 0)
(0.996507 -0.00209256 0)
(0.996325 -0.00135188 0)
(0.9976 -0.00105723 0)
(0.998805 -0.00109442 0)
(0.998695 -0.000341994 0)
(0.997883 0.000687062 0)
(0.99797 0.00180177 0)
(0.998942 0.00214062 0)
(1.00027 0.00233647 0)
(1.0006 0.00256949 0)
(1.00057 0.00315654 0)
(1.00006 0.00374477 0)
(0.99935 -0.000482927 0)
(1.00078 -0.00145197 0)
(0.999816 -0.00352961 0)
(0.999131 -0.00437399 0)
(0.996676 -0.00292213 0)
(0.998182 -0.00310128 0)
(0.99893 -0.00349695 0)
(0.998939 -0.00375132 0)
(0.996873 -0.00213814 0)
(0.996475 -0.00122346 0)
(0.997556 -0.000880883 0)
(0.998842 -0.00101486 0)
(0.99893 -0.00038199 0)
(0.998242 0.000509759 0)
(0.998184 0.001614 0)
(0.998937 0.00203352 0)
(1.00019 0.00226102 0)
(1.00066 0.00241278 0)
(1.00076 0.00289707 0)
(1.00026 0.00342247 0)
(0.9994 -0.000508774 0)
(1.00069 -0.00141333 0)
(0.999763 -0.00328117 0)
(0.999402 -0.00426804 0)
(0.997002 -0.00282978 0)
(0.998247 -0.00288034 0)
(0.998902 -0.00324711 0)
(0.999167 -0.00370042 0)
(0.997272 -0.00224481 0)
(0.996683 -0.00117637 0)
(0.997516 -0.000708961 0)
(0.998844 -0.00090223 0)
(0.999126 -0.000397646 0)
(0.998589 0.000347948 0)
(0.998434 0.00142162 0)
(0.998981 0.00189887 0)
(1.00013 0.0021767 0)
(1.00067 0.00229086 0)
(1.00091 0.00266527 0)
(1.00045 0.00312695 0)
(0.999439 -0.0005216 0)
(1.00061 -0.00138202 0)
(0.999707 -0.0029625 0)
(0.999646 -0.00412796 0)
(0.997335 -0.00281265 0)
(0.998321 -0.00271819 0)
(0.998844 -0.00299533 0)
(0.999337 -0.0035753 0)
(0.997676 -0.00234907 0)
(0.996953 -0.00121232 0)
(0.9975 -0.00056124 0)
(0.99881 -0.000769374 0)
(0.999266 -0.000382068 0)
(0.998909 0.000205056 0)
(0.998707 0.00122046 0)
(0.999063 0.00175 0)
(1.00008 0.00206938 0)
(1.00064 0.00218803 0)
(1.001 0.00247049 0)
(1.00063 0.00284616 0)
(0.999474 -0.000523341 0)
(1.00056 -0.00133665 0)
(0.999633 -0.00268141 0)
(0.999834 -0.00397362 0)
(0.997666 -0.00282822 0)
(0.998424 -0.00259785 0)
(0.99878 -0.00273063 0)
(0.999454 -0.00337491 0)
(0.998054 -0.00239795 0)
(0.997276 -0.00131122 0)
(0.997526 -0.000465113 0)
(0.998753 -0.00063462 0)
(0.99935 -0.000336251 0)
(0.999183 0.000100728 0)
(0.998993 0.00100948 0)
(0.999185 0.00158429 0)
(1.00005 0.00194571 0)
(1.0006 0.00207859 0)
(1.00104 0.00231797 0)
(1.00078 0.00258658 0)
(0.999502 -0.000503931 0)
(1.00051 -0.00133037 0)
(0.999558 -0.00243029 0)
(0.999989 -0.00374821 0)
(0.997993 -0.00281535 0)
(0.998556 -0.00251526 0)
(0.998718 -0.00248179 0)
(0.999515 -0.00314092 0)
(0.998382 -0.00238891 0)
(0.997629 -0.00143557 0)
(0.997607 -0.000433731 0)
(0.99869 -0.000506578 0)
(0.999384 -0.000271253 0)
(0.999397 4.14059e-05 0)
(0.99927 0.000822171 0)
(0.999346 0.00139289 0)
(1.00006 0.00181371 0)
(1.00057 0.00195063 0)
(1.00103 0.00219136 0)