/*--------------------------------*- C++ -*----------------------------------*\
| =========                 |                                                 |
| \\      /  F ield         | OpenFOAM: The Open Source CFD Toolbox           |
|  \\    /   O peration     | Version:  v1906                                 |
|   \\  /    A nd           | Web:      www.OpenFOAM.com                      |
|    \\/     M anipulation  |                                                 |
\*---------------------------------------------------------------------------*/
FoamFile
{
    version     2.0;
    format      ascii;
    class       volVectorField;
    location    "4.5";
    object      U;
}
// * * * * * * * * * * * * * * * * * * * * * * * * * * * * * * * * * * * * * //

dimensions      [0 1 -1 0 0 0 0];


internalField   nonuniform List<vector> 
9600
(
(0.845662 0.0112018 0)
(1.25334 -0.00617611 0)
(0.707837 8.75457e-05 0)
(1.14657 0.0179644 0)
(0.945568 0.0191383 0)
(1.13924 -0.0185328 0)
(0.663881 0.00626882 0)
(1.28118 0.00772983 0)
(0.670357 0.00296041 0)
(1.25537 0.0210946 0)
(0.757277 0.0037356 0)
(1.13135 0.0145295 0)
(0.835065 0.00638399 0)
(1.10536 0.0162255 0)
(0.857195 0.016296 0)
(1.08349 0.0174644 0)
(0.86152 0.0184951 0)
(1.07817 0.00386751 0)
(0.850593 0.014506 0)
(1.08599 -0.00538187 0)
(0.849053 0.0105007 0)
(1.24472 -0.00482897 0)
(0.71209 0.000784451 0)
(1.14178 0.0166643 0)
(0.950996 0.0189148 0)
(1.13609 -0.0150613 0)
(0.669624 0.00470878 0)
(1.27306 0.00812193 0)
(0.681088 0.00286682 0)
(1.24507 0.0203544 0)
(0.786599 0.00523552 0)
(1.11735 0.014067 0)
(0.866573 0.0064272 0)
(1.08375 0.0161971 0)
(0.900825 0.0166674 0)
(1.04037 0.0175962 0)
(0.928305 0.0186925 0)
(1.00627 0.00378047 0)
(0.946323 0.0154432 0)
(0.97839 -0.00624184 0)
(0.856575 0.00972403 0)
(1.22981 -0.00358496 0)
(0.727195 0.00129065 0)
(1.1261 0.0147012 0)
(0.961646 0.0188581 0)
(1.12767 -0.0122461 0)
(0.687762 0.00256797 0)
(1.25272 0.0084977 0)
(0.716445 0.00259407 0)
(1.21235 0.0193704 0)
(0.844941 0.00694683 0)
(1.08115 0.0129139 0)
(0.91671 0.0067929 0)
(1.04617 0.0157552 0)
(0.95203 0.0175075 0)
(1.00232 0.0172312 0)
(0.969349 0.0191406 0)
(0.980651 0.00393234 0)
(0.971823 0.014584 0)
(0.97719 -0.00310134 0)
(0.868442 0.00906619 0)
(1.20824 -0.00246182 0)
(0.757106 0.00177803 0)
(1.09709 0.0128901 0)
(0.975387 0.0186641 0)
(1.1132 -0.00948485 0)
(0.723732 0.000896835 0)
(1.2155 0.00851035 0)
(0.778603 0.00266233 0)
(1.15611 0.01799 0)
(0.911581 0.00866765 0)
(1.03738 0.0118957 0)
(0.954205 0.00723293 0)
(1.01335 0.0151284 0)
(0.978254 0.0182022 0)
(0.986414 0.0169611 0)
(0.979353 0.0195169 0)
(0.976693 0.00393334 0)
(0.973395 0.0146562 0)
(0.977987 -0.00189614 0)
(0.884326 0.00849064 0)
(1.18017 -0.00151597 0)
(0.800285 0.00247401 0)
(1.05796 0.0112729 0)
(0.989291 0.018312 0)
(1.09417 -0.00696517 0)
(0.776561 -0.000288431 0)
(1.1637 0.00804953 0)
(0.851715 0.00324258 0)
(1.0913 0.0163699 0)
(0.962474 0.0101672 0)
(1.00579 0.0114904 0)
(0.969864 0.00749625 0)
(0.991981 0.0146832 0)
(0.983079 0.0186231 0)
(0.980116 0.0170507 0)
(0.978432 0.0196437 0)
(0.975446 0.00424507 0)
(0.972413 0.0145201 0)
(0.977407 -0.000988896 0)
(0.903118 0.00799214 0)
(1.14738 -0.000804394 0)
(0.850142 0.0033928 0)
(1.01745 0.00983748 0)
(0.999991 0.0177694 0)
(1.07438 -0.00485437 0)
(0.83661 -0.00101486 0)
(1.10691 0.0072256 0)
(0.914352 0.00406562 0)
(1.03776 0.0149944 0)
(0.990037 0.0112115 0)
(0.991954 0.0116355 0)
(0.973387 0.00772176 0)
(0.978931 0.0144717 0)
(0.978958 0.0188763 0)
(0.976234 0.0172017 0)
(0.976299 0.0196629 0)
(0.975872 0.0045781 0)
(0.973195 0.0140692 0)
(0.979203 -1.59687e-05 0)
(0.922971 0.00759474 0)
(1.11328 -0.000351659 0)
(0.898119 0.0044376 0)
(0.9859 0.00867692 0)
(1.00527 0.017038 0)
(1.05799 -0.00327502 0)
(0.891198 -0.001226 0)
(1.0566 0.00632492 0)
(0.955031 0.00483022 0)
(1.00516 0.0140917 0)
(1.00039 0.0117549 0)
(0.989729 0.0120674 0)
(0.974747 0.00808746 0)
(0.971694 0.0143943 0)
(0.973665 0.0189701 0)
(0.973945 0.0172223 0)
(0.975894 0.0195376 0)
(0.978216 0.0048326 0)
(0.976278 0.0135089 0)
(0.982872 0.000936032 0)
(0.941795 0.00730838 0)
(1.08178 -0.000139277 0)
(0.937523 0.00549252 0)
(0.969488 0.0078677 0)
(1.00543 0.0161723 0)
(1.04698 -0.00222222 0)
(0.932066 -0.000961809 0)
(1.02022 0.00558577 0)
(0.975051 0.00536463 0)
(0.990253 0.0135527 0)
(1.00238 0.0119319 0)
(0.991672 0.0125583 0)
(0.977315 0.00859959 0)
(0.969162 0.014411 0)
(0.970544 0.0189581 0)
(0.973407 0.0170755 0)
(0.977369 0.0192352 0)
(0.981727 0.00502431 0)
(0.980821 0.0128681 0)
(0.987377 0.00185533 0)
(0.957956 0.00712038 0)
(1.05581 -0.000105038 0)
(0.965596 0.00644319 0)
(0.967446 0.00739607 0)
(1.00305 0.0152657 0)
(1.04035 -0.00159312 0)
(0.95796 -0.000359373 0)
(0.999228 0.0050827 0)
(0.982311 0.00564359 0)
(0.984931 0.0131865 0)
(1.00163 0.0119079 0)
(0.993905 0.0129836 0)
(0.980717 0.00919305 0)
(0.970092 0.0145302 0)
(0.970456 0.0189109 0)
(0.974773 0.0168103 0)
(0.980274 0.0187799 0)
(0.985855 0.00517037 0)
(0.985917 0.012151 0)
(0.992088 0.00272077 0)
(0.970698 0.00700657 0)
(1.03643 -0.000173038 0)
(0.983155 0.00719978 0)
(0.974262 0.007183 0)
(1.00112 0.0144137 0)
(1.03567 -0.00124316 0)
(0.972385 0.000428751 0)
(0.990655 0.00477793 0)
(0.984645 0.00575549 0)
(0.983356 0.0128859 0)
(1.00048 0.0117799 0)
(0.995505 0.0133101 0)
(0.984246 0.00981182 0)
(0.973285 0.0147167 0)
(0.973165 0.0188539 0)
(0.978196 0.0164949 0)
(0.984521 0.0182119 0)
(0.990546 0.00528953 0)
(0.991163 0.0113817 0)
(0.996685 0.00353989 0)
(0.980105 0.00694188 0)
(1.02308 -0.000281873 0)
(0.992907 0.00772994 0)
(0.983927 0.00712635 0)
(1.00132 0.0136847 0)
(1.03109 -0.00103927 0)
(0.980085 0.00126577 0)
(0.989806 0.0045921 0)
(0.986553 0.00581083 0)
(0.983398 0.0126293 0)
(0.999804 0.0115911 0)
(0.996776 0.0135453 0)
(0.98774 0.0104016 0)
(0.977929 0.0149019 0)
(0.978096 0.0187834 0)
(0.983513 0.0161547 0)
(0.990027 0.0175795 0)
(0.995742 0.00542229 0)
(0.996368 0.0106125 0)
(1.00095 0.00432484 0)
(0.986751 0.00690551 0)
(1.01439 -0.000393301 0)
(0.997779 0.00805488 0)
(0.992596 0.00713581 0)
(1.00355 0.0131084 0)
(1.02613 -0.000888171 0)
(0.984694 0.00205054 0)
(0.992463 0.00445466 0)
(0.989307 0.00587171 0)
(0.984759 0.0124245 0)
(0.999968 0.0113721 0)
(0.99817 0.013702 0)
(0.991245 0.010909 0)
(0.98339 0.0150435 0)
(0.984432 0.0186715 0)
(0.99003 0.0158012 0)
(0.996239 0.0169323 0)
(1.00103 0.00561536 0)
(1.00121 0.00991395 0)
(1.00464 0.00504632 0)
(0.991352 0.00688225 0)
(1.00895 -0.000487823 0)
(0.999977 0.00822013 0)
(0.998835 0.0071528 0)
(1.00672 0.0126791 0)
(1.02122 -0.000740704 0)
(0.988072 0.00273126 0)
(0.995938 0.00432785 0)
(0.992543 0.00594482 0)
(0.987222 0.0122763 0)
(1.00099 0.01115 0)
(0.999864 0.0137898 0)
(0.994702 0.0113149 0)
(0.989006 0.015114 0)
(0.991152 0.0184989 0)
(0.996713 0.0154556 0)
(1.00227 0.0163151 0)
(1.0058 0.00588597 0)
(1.0053 0.00932199 0)
(1.00753 0.00572224 0)
(0.994542 0.00686162 0)
(1.00568 -0.000557388 0)
(1.00083 0.00827394 0)
(1.00269 0.00714938 0)
(1.0097 0.0123676 0)
(1.01698 -0.00057891 0)
(0.990829 0.00329682 0)
(0.999031 0.00420128 0)
(0.995629 0.00601136 0)
(0.990182 0.0121806 0)
(1.00256 0.0109379 0)
(1.00172 0.0138239 0)
(0.997901 0.0116269 0)
(0.994145 0.0151012 0)
(0.9973 0.0182653 0)
(1.00262 0.0151409 0)
(1.00736 0.0157609 0)
(1.00961 0.0062205 0)
(1.00843 0.00884901 0)
(1.00958 0.00635405 0)
(0.996783 0.00683628 0)
(1.00379 -0.000598975 0)
(1.00108 0.00825479 0)
(1.00474 0.00712028 0)
(1.01191 0.012137 0)
(1.01367 -0.000401208 0)
(0.993117 0.00375805 0)
(1.00148 0.00407615 0)
(0.998203 0.00605509 0)
(0.99297 0.0121274 0)
(1.00423 0.0107352 0)
(1.00347 0.0138271 0)
(1.0006 0.011851 0)
(0.998372 0.0150161 0)
(1.00227 0.0179884 0)
(1.00724 0.0148633 0)
(1.01117 0.0152828 0)
(1.01234 0.0066112 0)
(1.01065 0.00850538 0)
(1.0109 0.00694138 0)
(0.998352 0.00680136 0)
(1.00276 -0.0006123 0)
(1.00113 0.00818899 0)
(1.00561 0.00707134 0)
(1.0133 0.0119545 0)
(1.0112 -0.000213828 0)
(0.995065 0.00413124 0)
(1.00339 0.00395909 0)
(1.00016 0.00606998 0)
(0.995183 0.0121048 0)
(1.00564 0.0105417 0)
(1.00488 0.0138112 0)
(1.00265 0.012005 0)
(1.00153 0.0148718 0)
(1.00591 0.0176943 0)
(1.0105 0.0146089 0)
(1.01374 0.0148809 0)
(1.01413 0.00705933 0)
(1.01216 0.00828537 0)
(1.01172 0.00748398 0)
(0.999383 0.00675454 0)
(1.00226 -0.000600045 0)
(1.00121 0.00809378 0)
(1.00575 0.00701192 0)
(1.01404 0.0117957 0)
(1.00935 -2.195e-05 0)
(0.996809 0.00442928 0)
(1.00491 0.0038625 0)
(1.0015 0.00605772 0)
(0.99672 0.0121089 0)
(1.00667 0.0103517 0)
(1.00587 0.0137796 0)
(1.00408 0.0121153 0)
(1.00369 0.0146862 0)
(1.00832 0.0173895 0)
(1.01257 0.0143653 0)
(1.01529 0.0145528 0)
(1.01517 0.00754282 0)
(1.01314 0.00815154 0)
(1.01222 0.00797217 0)
(0.999956 0.00669529 0)
(1.0021 -0.000566458 0)
(1.0014 0.00797921 0)
(1.00548 0.00695279 0)
(1.01432 0.0116437 0)
(1.008 0.000170717 0)
(0.998369 0.00466209 0)
(1.00612 0.00380007 0)
(1.0023 0.00602418 0)
(0.997644 0.0121351 0)
(1.0073 0.0101646 0)
(1.00646 0.0137306 0)
(1.00497 0.0122011 0)
(1.00503 0.0144691 0)
(1.00973 0.0170876 0)
(1.01372 0.0141277 0)
(1.01606 0.0142699 0)
(1.01564 0.00803 0)
(1.01373 0.0080673 0)
(1.0125 0.00839797 0)
(1.00016 0.00662417 0)
(1.00216 -0.000516746 0)
(1.0017 0.00785245 0)
(1.005 0.00690269 0)
(1.01426 0.0114853 0)
(1.00711 0.000360952 0)
(0.999663 0.00484053 0)
(1.007 0.00378364 0)
(1.00266 0.00597307 0)
(0.99807 0.0121777 0)
(1.00759 0.0099794 0)
(1.00674 0.0136659 0)
(1.00543 0.012276 0)
(1.00578 0.0142201 0)
(1.01039 0.0168061 0)
(1.01416 0.0138944 0)
(1.01623 0.0140007 0)
(1.01565 0.00851489 0)
(1.014 0.00801652 0)
(1.01263 0.00874411 0)
(1.00013 0.00654204 0)
(1.00233 -0.000454876 0)
(1.00201 0.00771725 0)
(1.00446 0.00686953 0)
(1.01395 0.0113082 0)
(1.00663 0.00055076 0)
(1.00061 0.00497536 0)
(1.00754 0.00381782 0)
(1.00274 0.00590995 0)
(0.99814 0.012228 0)
(1.00763 0.00979497 0)
(1.00682 0.0135834 0)
(1.00559 0.0123509 0)
(1.00613 0.0139463 0)
(1.01054 0.0165516 0)
(1.01414 0.0136686 0)
(1.01599 0.0137263 0)
(1.01535 0.00900665 0)
(1.01402 0.00800716 0)
(1.01266 0.00899651 0)
(0.999982 0.00644911 0)
(1.00253 -0.000381586 0)
(1.00229 0.00757341 0)
(1.004 0.00685861 0)
(1.01348 0.0111041 0)
(1.00644 0.000744903 0)
(1.00122 0.00507714 0)
(1.00781 0.00389716 0)
(1.00272 0.00583947 0)
(0.998018 0.012284 0)
(1.0075 0.00961544 0)
(1.0068 0.0134629 0)
(1.00556 0.0124455 0)
(1.00626 0.0136485 0)
(1.01038 0.0163143 0)
(1.01384 0.0134784 0)
(1.01552 0.0134144 0)
(1.01487 0.00949435 0)
(1.01387 0.00804948 0)
(1.01263 0.00913978 0)
(0.999812 0.00634528 0)
(1.00273 -0.0002962 0)
(1.00248 0.00741892 0)
(1.00367 0.00687177 0)
(1.01297 0.0108688 0)
(1.00642 0.000945486 0)
(1.00156 0.00515621 0)
(1.0079 0.00401354 0)
(1.00268 0.00575863 0)
(0.997853 0.0123467 0)
(1.00728 0.00944678 0)
(1.00677 0.0132985 0)
(1.00543 0.0125668 0)
(1.0063 0.0133261 0)
(1.01009 0.0160796 0)
(1.01345 0.0133269 0)
(1.01498 0.0130617 0)
(1.01434 0.00995558 0)
(1.01362 0.00815172 0)
(1.0126 0.009169 0)
(0.999665 0.00623062 0)
(1.0029 -0.000197579 0)
(1.0026 0.00725004 0)
(1.00348 0.00691024 0)
(1.01249 0.0106017 0)
(1.00645 0.00115484 0)
(1.00171 0.00521967 0)
(1.0079 0.00416199 0)
(1.00269 0.00566881 0)
(0.997738 0.0124031 0)
(1.00703 0.00930108 0)
(1.00677 0.0130904 0)
(1.00527 0.01271 0)
(1.00635 0.0129906 0)
(1.0098 0.0158362 0)
(1.01308 0.0132248 0)
(1.01447 0.0126793 0)
(1.01384 0.0103601 0)
(1.01334 0.00832891 0)
(1.0126 0.00908958 0)
(0.999554 0.00610441 0)
(1.00303 -8.19353e-05 0)
(1.00266 0.00706138 0)
(1.00342 0.0069726 0)
(1.01207 0.0103073 0)
(1.00648 0.00137684 0)
(1.00175 0.00526555 0)
(1.00789 0.00433802 0)
(1.00274 0.00557394 0)
(0.99771 0.0124515 0)
(1.00681 0.00918298 0)
(1.00683 0.01283 0)
(1.00511 0.0128725 0)
(1.00644 0.0126581 0)
(1.00957 0.0155706 0)
(1.01276 0.0131846 0)
(1.01405 0.0122786 0)
(1.01342 0.0106755 0)
(1.01305 0.00860228 0)
(1.01263 0.00894247 0)
(0.999476 0.00596566 0)
(1.00314 5.22228e-05 0)
(1.00268 0.00685282 0)
(1.00345 0.00705343 0)
(1.0117 0.00998986 0)
(1.00648 0.00161245 0)
(1.00174 0.00529674 0)
(1.00788 0.00452925 0)
(1.00284 0.00547376 0)
(0.997761 0.0124873 0)
(1.00662 0.00910782 0)
(1.00693 0.0125162 0)
(1.00495 0.0130467 0)
(1.00656 0.0123486 0)
(1.00942 0.0152609 0)
(1.01248 0.0132007 0)
(1.01371 0.0118903 0)
(1.01309 0.0108723 0)
(1.01276 0.00896849 0)
(1.01267 0.0088065 0)
(0.999427 0.00581436 0)
(1.00322 0.000206262 0)
(1.00268 0.00661982 0)
(1.00351 0.00715473 0)
(1.01137 0.0096506 0)
(1.00646 0.00186414 0)
(1.0017 0.00532309 0)
(1.00788 0.00472926 0)
(1.00297 0.00537669 0)
(0.997866 0.012494 0)
(1.00646 0.0090748 0)
(1.00708 0.0121705 0)
(1.0048 0.0132265 0)
(1.00668 0.0120728 0)
(1.00933 0.0148993 0)
(1.01224 0.0132681 0)
(1.01343 0.0115489 0)
(1.01284 0.0109338 0)
(1.01248 0.00938615 0)
(1.0127 0.00874465 0)
(0.999403 0.00565009 0)
(1.00327 0.000380661 0)
(1.00269 0.00636427 0)
(1.00358 0.00727036 0)
(1.01106 0.0092978 0)
(1.00642 0.00212771 0)
(1.00166 0.00534484 0)
(1.00788 0.00492813 0)
(1.00313 0.00529557 0)
(0.998002 0.0124664 0)
(1.00633 0.00908234 0)
(1.00726 0.0117996 0)
(1.00466 0.0133936 0)
(1.00678 0.0118484 0)
(1.00932 0.014487 0)
(1.012 0.0133612 0)
(1.01319 0.0112868 0)
(1.01267 0.0108693 0)
(1.01221 0.00979628 0)
(1.01268 0.00880606 0)
(0.999405 0.00547203 0)
(1.00329 0.000575901 0)
(1.00271 0.00608648 0)
(1.00364 0.00740007 0)
(1.01078 0.00893166 0)
(1.00635 0.00239681 0)
(1.00164 0.00536538 0)
(1.00787 0.00511871 0)
(1.00332 0.00523072 0)
(0.998153 0.0124081 0)
(1.0062 0.00913242 0)
(1.00746 0.0114063 0)
(1.00455 0.0135252 0)
(1.00684 0.0116808 0)
(1.00936 0.0140159 0)
(1.01179 0.0134552 0)
(1.01295 0.0111289 0)
(1.01256 0.0106983 0)
(1.01198 0.0101321 0)
(1.01261 0.00901563 0)
(0.999428 0.00528034 0)
(1.00328 0.000792962 0)
(1.00276 0.00578286 0)
(1.00369 0.00754287 0)
(1.0105 0.00855693 0)
(1.00626 0.00266883 0)
(1.00164 0.00539064 0)
(1.00786 0.00529676 0)
(1.00353 0.00518885 0)
(0.998312 0.0123195 0)
(1.00609 0.00921584 0)
(1.00767 0.0109987 0)
(1.00446 0.0136141 0)
(1.00686 0.0115784 0)
(1.00945 0.0134982 0)
(1.01159 0.0135196 0)
(1.01271 0.0110782 0)
(1.0125 0.0104614 0)
(1.01182 0.010343 0)
(1.01248 0.00935372 0)
(0.999469 0.00507571 0)
(1.00324 0.00102781 0)
(1.00283 0.00546336 0)
(1.00373 0.00768732 0)
(1.01024 0.00818047 0)
(1.00615 0.00293822 0)
(1.00165 0.00542897 0)
(1.00783 0.00544819 0)
(1.00377 0.00516907 0)
(0.998476 0.0122066 0)
(1.00598 0.00932668 0)
(1.0079 0.0105885 0)
(1.00441 0.0136571 0)
(1.00683 0.0115501 0)
(1.00957 0.0129554 0)
(1.01142 0.013531 0)
(1.01244 0.0111345 0)
(1.01245 0.0102179 0)
(1.01172 0.0104019 0)
(1.01231 0.00974199 0)
(0.999522 0.00485839 0)
(1.00318 0.00128115 0)
(1.00291 0.00512594 0)
(1.00376 0.00783412 0)
(1.00999 0.00781109 0)
(1.00604 0.00319318 0)
(1.00166 0.0054931 0)
(1.00779 0.00556934 0)
(1.00402 0.00517031 0)
(0.998647 0.0120612 0)
(1.00587 0.00946158 0)
(1.00814 0.0101946 0)
(1.0044 0.0136449 0)
(1.00674 0.0115876 0)
(1.0097 0.0124049 0)
(1.0113 0.0134684 0)
(1.01215 0.0112804 0)
(1.0124 0.0100199 0)
(1.01171 0.0103182 0)
(1.01215 0.0100805 0)
(0.999581 0.00462762 0)
(1.00309 0.00155312 0)
(1.003 0.00477352 0)
(1.00377 0.00797882 0)
(1.00974 0.00745725 0)
(1.00591 0.00342092 0)
(1.00168 0.0055872 0)
(1.00773 0.00565346 0)
(1.00429 0.00518465 0)
(0.998824 0.0118926 0)
(1.00575 0.00960815 0)
(1.00838 0.00981678 0)
(1.00444 0.0135707 0)
(1.0066 0.0116903 0)
(1.00983 0.0118723 0)
(1.01123 0.0133165 0)
(1.01184 0.0114812 0)
(1.01232 0.00989607 0)
(1.01175 0.0101225 0)
(1.01203 0.0102852 0)
(0.999644 0.00438584 0)
(1.00299 0.00183688 0)
(1.00309 0.00441711 0)
(1.00378 0.0081107 0)
(1.00949 0.00712053 0)
(1.00579 0.0036198 0)
(1.0017 0.00571085 0)
(1.00767 0.00571711 0)
(1.00456 0.00519932 0)
(0.999014 0.0117192 0)
(1.00561 0.00975604 0)
(1.00863 0.00945618 0)
(1.00452 0.0134272 0)
(1.00642 0.0118533 0)
(1.00995 0.0113813 0)
(1.01122 0.0130642 0)
(1.01152 0.0117049 0)
(1.01218 0.00987057 0)
(1.01184 0.00988059 0)
(1.012 0.0103238 0)
(0.999706 0.0041329 0)
(1.00288 0.00213334 0)
(1.00318 0.00405486 0)
(1.00378 0.00822685 0)
(1.00923 0.00681064 0)
(1.00568 0.00377562 0)
(1.00172 0.00586632 0)
(1.00759 0.00577867 0)
(1.00484 0.00521416 0)
(0.999217 0.0115396 0)
(1.00545 0.00990396 0)
(1.00887 0.00912441 0)
(1.00466 0.0132134 0)
(1.0062 0.0120626 0)
(1.01002 0.0109578 0)
(1.01128 0.0127113 0)
(1.01123 0.0119198 0)
(1.01199 0.00994934 0)
(1.01192 0.00966307 0)
(1.01204 0.0102179 0)
(0.999768 0.00387199 0)
(1.00275 0.00243512 0)
(1.00326 0.00370099 0)
(1.00378 0.00830741 0)
(1.00896 0.00654518 0)
(1.00558 0.00387395 0)
(1.00173 0.00605391 0)
(1.00749 0.00583909 0)
(1.00511 0.00521388 0)
(0.999437 0.0113524 0)
(1.00527 0.0100611 0)
(1.0091 0.00883201 0)
(1.00485 0.0129281 0)
(1.00597 0.0122922 0)
(1.01005 0.0106261 0)
(1.01139 0.012264 0)
(1.01097 0.0120882 0)
(1.01173 0.0101054 0)
(1.01197 0.0094996 0)
(1.01215 0.0100236 0)
(0.999828 0.00360189 0)
(1.0026 0.00274005 0)
(1.00334 0.00336476 0)
(1.00377 0.00834038 0)
(1.00867 0.00633548 0)
(1.00548 0.00391434 0)
(1.00174 0.0062532 0)
(1.00737 0.00590891 0)
(1.00538 0.00519305 0)
(0.999677 0.0111525 0)
(1.00507 0.0102299 0)
(1.0093 0.00857933 0)
(1.00511 0.0125707 0)
(1.00572 0.0125163 0)
(1.01 0.0104127 0)
(1.01156 0.0117393 0)
(1.01077 0.0121828 0)
(1.01143 0.0103271 0)
(1.01197 0.00939643 0)
(1.0123 0.00981488 0)
(0.999887 0.00332713 0)
(1.00245 0.00304244 0)
(1.00341 0.00305112 0)
(1.00376 0.00831939 0)
(1.00837 0.00618649 0)
(1.0054 0.00390064 0)
(1.00176 0.00644617 0)
(1.00723 0.00600374 0)
(1.00564 0.00515779 0)
(0.99994 0.0109237 0)
(1.00486 0.0104029 0)
(1.00947 0.00837589 0)
(1.00543 0.0121481 0)
(1.00549 0.0127086 0)
(1.00988 0.0103322 0)
(1.01176 0.0111696 0)
(1.01065 0.0121664 0)
(1.01108 0.0106119 0)
(1.01191 0.00935049 0)
(1.01245 0.00961616 0)
(0.999942 0.0030502 0)
(1.00228 0.00333373 0)
(1.00346 0.00277866 0)
(1.00375 0.00822136 0)
(1.00805 0.00612076 0)
(1.00532 0.00383631 0)
(1.00178 0.00661991 0)
(1.00707 0.00613595 0)
(1.00589 0.00511014 0)
(1.00023 0.0106619 0)
(1.00463 0.0105777 0)
(1.0096 0.00823949 0)
(1.0058 0.0116667 0)
(1.00529 0.0128377 0)
(1.00968 0.0103777 0)
(1.01197 0.0106121 0)
(1.01063 0.0119969 0)
(1.01073 0.0109306 0)
(1.01176 0.00938304 0)
(1.0126 0.00940434 0)
(0.999995 0.00277164 0)
(1.0021 0.00360887 0)
(1.00349 0.00256194 0)
(1.00374 0.00802965 0)
(1.0077 0.00612805 0)
(1.00524 0.00375045 0)
(1.00181 0.00675988 0)
(1.00688 0.0063104 0)
(1.00613 0.00506277 0)
(1.00055 0.0103758 0)
(1.0044 0.0107487 0)
(1.00968 0.00817706 0)
(1.00622 0.0111403 0)
(1.00515 0.0128777 0)
(1.00939 0.0105282 0)
(1.01215 0.0101337 0)
(1.01073 0.0116714 0)
(1.0104 0.0112169 0)
(1.01152 0.0095334 0)
(1.01271 0.00918651 0)
(1.00005 0.00249735 0)
(1.0019 0.0038591 0)
(1.00351 0.00240409 0)
(1.00374 0.00774633 0)
(1.00735 0.00619784 0)
(1.00517 0.0036565 0)
(1.00185 0.00683495 0)
(1.00668 0.00653119 0)
(1.00634 0.00503333 0)
(1.00091 0.0100535 0)
(1.00418 0.0108957 0)
(1.00969 0.00818966 0)
(1.00667 0.0106028 0)
(1.00509 0.0128147 0)
(1.00904 0.0107464 0)
(1.01227 0.00977665 0)
(1.01092 0.0112229 0)
(1.01014 0.0113908 0)
(1.01119 0.00979725 0)
(1.01275 0.00902574 0)
(1.00009 0.00223019 0)
(1.0017 0.00407618 0)
(1.00349 0.00230991 0)
(1.00374 0.00737498 0)
(1.00698 0.00631697 0)
(1.00508 0.00358284 0)
(1.00192 0.00683503 0)
(1.00646 0.00677681 0)
(1.00652 0.00503634 0)
(1.0013 0.00969231 0)
(1.00397 0.0110048 0)
(1.00963 0.00827722 0)
(1.00713 0.0100889 0)
(1.00511 0.0126448 0)
(1.00865 0.0109838 0)
(1.01229 0.00955506 0)
(1.01119 0.0107099 0)
(1.00998 0.0114093 0)
(1.0108 0.0101082 0)
(1.01267 0.00899379 0)
(1.00014 0.00197158 0)
(1.00149 0.00425362 0)
(1.00344 0.00228498 0)
(1.00375 0.00693213 0)
(1.00661 0.00644312 0)
(1.00497 0.00355723 0)
(1.002 0.00676646 0)
(1.00623 0.00702206 0)
(1.00666 0.00509071 0)
(1.00172 0.0093053 0)
(1.0038 0.0110514 0)
(1.0095 0.00842108 0)
(1.00758 0.00961675 0)
(1.00523 0.0123774 0)
(1.00825 0.0112045 0)
(1.01221 0.00946452 0)
(1.01148 0.0101982 0)
(1.00995 0.0112766 0)
(1.01041 0.0103793 0)
(1.01247 0.00909949 0)
(1.00018 0.00172908 0)
(1.00129 0.00438536 0)
(1.00335 0.00231671 0)
(1.00377 0.0064521 0)
(1.00624 0.00655042 0)
(1.00485 0.00358819 0)
(1.00211 0.00660987 0)
(1.006 0.00724331 0)
(1.00676 0.00521119 0)
(1.00216 0.00891642 0)
(1.00367 0.0110219 0)
(1.00932 0.00860238 0)
(1.008 0.0092074 0)
(1.00543 0.0120271 0)
(1.00787 0.0113724 0)
(1.01203 0.00947333 0)
(1.01177 0.00972153 0)
(1.01004 0.0110137 0)
(1.01005 0.0105587 0)
(1.01214 0.00929143 0)
(1.00021 0.00150118 0)
(1.00108 0.00446733 0)
(1.00322 0.00240659 0)
(1.00378 0.00595865 0)
(1.00589 0.00661187 0)
(1.00469 0.00370416 0)
(1.00222 0.00641037 0)
(1.00578 0.00741638 0)
(1.0068 0.00539804 0)
(1.0026 0.00855867 0)
(1.00358 0.0109165 0)
(1.00908 0.00879266 0)
(1.00837 0.00887442 0)
(1.00572 0.0116173 0)
(1.00753 0.0114676 0)
(1.01174 0.00956663 0)
(1.01201 0.00932023 0)
(1.01025 0.0106526 0)
(1.00978 0.0106424 0)
(1.01175 0.00950086 0)
(1.00025 0.00129279 0)
(1.00087 0.00449462 0)
(1.00305 0.00254459 0)
(1.0038 0.00546917 0)
(1.00556 0.00661369 0)
(1.0045 0.00391951 0)
(1.00234 0.00620495 0)
(1.00559 0.00751863 0)
(1.0068 0.00562969 0)
(1.00303 0.00824175 0)
(1.00355 0.0107389 0)
(1.00882 0.00896543 0)
(1.00868 0.00861687 0)
(1.00606 0.0111676 0)
(1.00725 0.0114674 0)
(1.01138 0.00970886 0)
(1.01217 0.00902383 0)
(1.01053 0.0102123 0)
(1.00961 0.010619 0)
(1.01132 0.00967627 0)
(1.00028 0.0011121 0)
(1.00068 0.00445356 0)
(1.00285 0.00272346 0)
(1.00381 0.00500929 0)
(1.00527 0.00654434 0)
(1.00429 0.00420741 0)
(1.00244 0.00601229 0)
(1.00542 0.00753155 0)
(1.00677 0.00587623 0)
(1.00343 0.00797957 0)
(1.00357 0.0105108 0)
(1.00852 0.00910462 0)
(1.00892 0.0084234 0)
(1.00645 0.0106956 0)
(1.00706 0.0113661 0)
(1.01095 0.00984872 0)
(1.01223 0.00884121 0)
(1.01087 0.00973206 0)
(1.00956 0.0104695 0)
(1.01091 0.00980629 0)
(1.0003 0.000953602 0)
(1.0005 0.00435402 0)
(1.00262 0.00293493 0)
(1.0038 0.0045931 0)
(1.005 0.00639371 0)
(1.00406 0.00452409 0)
(1.00253 0.00587118 0)
(1.00527 0.00745806 0)
(1.00671 0.00610364 0)
(1.00381 0.00778764 0)
(1.00363 0.0102554 0)
(1.00822 0.00920208 0)
(1.00908 0.00828653 0)
(1.00686 0.0102268 0)
(1.00694 0.0111813 0)
(1.01051 0.00995727 0)
(1.01216 0.00876541 0)
(1.01121 0.00928764 0)
(1.00965 0.0102016 0)
(1.01054 0.00988665 0)
(1.00032 0.000824909 0)
(1.00035 0.00419181 0)
(1.00236 0.00316245 0)
(1.00377 0.00423629 0)
(1.00478 0.00616215 0)
(1.00383 0.00484523 0)
(1.00258 0.00579972 0)
(1.00515 0.00732774 0)
(1.00664 0.00628871 0)
(1.00415 0.00765968 0)
(1.00372 0.00999135 0)
(1.00791 0.00925824 0)
(1.00917 0.00819479 0)
(1.00727 0.00977261 0)
(1.00691 0.0109214 0)
(1.01008 0.0100143 0)
(1.01199 0.00875849 0)
(1.0115 0.00892367 0)
(1.00984 0.00984136 0)
(1.01026 0.0098824 0)
(1.00033 0.000723916 0)
(1.00021 0.00397173 0)
(1.00209 0.00339328 0)
(1.00371 0.00396263 0)
(1.0046 0.00584242 0)
(1.0036 0.00513414 0)
(1.0026 0.00581294 0)
(1.00505 0.00718567 0)
(1.00656 0.00641927 0)
(1.00446 0.0075637 0)
(1.00383 0.00972596 0)
(1.00761 0.00927621 0)
(1.00919 0.00813968 0)
(1.00766 0.00934559 0)
(1.00697 0.0106009 0)
(1.00968 0.010017 0)
(1.01174 0.00878783 0)
(1.01171 0.00864879 0)
(1.01011 0.00943693 0)
(1.0101 0.00976192 0)
(1.00034 0.00065265 0)
(1.0001 0.00370831 0)
(1.00182 0.00360273 0)
(1.00361 0.00377271 0)
(1.00446 0.0054688 0)
(1.00341 0.00536008 0)
(1.00259 0.00590672 0)
(1.00494 0.00706414 0)
(1.00648 0.00648996 0)
(1.00474 0.00747356 0)
(1.00396 0.00946396 0)
(1.00733 0.0092609 0)
(1.00914 0.00811165 0)
(1.00803 0.00895558 0)
(1.00709 0.0102245 0)
(1.00933 0.00995029 0)
(1.01142 0.0088254 0)
(1.01181 0.00845439 0)
(1.01041 0.00904096 0)
(1.01007 0.00953281 0)
(1.00034 0.000604399 0)
(1.00002 0.00341696 0)
(1.00155 0.00377674 0)
(1.00348 0.00367072 0)
(1.00436 0.00507948 0)
(1.00325 0.00550109 0)
(1.00255 0.00605144 0)
(1.00483 0.00697763 0)
(1.00641 0.00651572 0)
(1.00499 0.00737805 0)
(1.00412 0.00920369 0)
(1.00706 0.00921316 0)
(1.00902 0.00810161 0)
(1.00834 0.00861977 0)
(1.00728 0.0098229 0)
(1.00906 0.00981357 0)
(1.01107 0.00884969 0)
(1.01182 0.0083285 0)
(1.01069 0.0086848 0)
(1.01015 0.0092265 0)
(1.00033 0.000581084 0)
(0.999974 0.00311267 0)
(1.00131 0.00389437 0)
(1.00331 0.00365212 0)
(1.00427 0.00469775 0)
(1.00314 0.00553861 0)
(1.0025 0.00621586 0)
(1.0047 0.00693905 0)
(1.00633 0.00651866 0)
(1.00523 0.00726909 0)
(1.00429 0.00894008 0)
(1.00683 0.00913279 0)
(1.00886 0.00810343 0)
(1.00859 0.00834055 0)
(1.0075 0.00942453 0)
(1.00886 0.00961917 0)
(1.01072 0.0088347 0)
(1.01174 0.00824792 0)
(1.01092 0.00838473 0)
(1.01031 0.00888193 0)
(1.00033 0.000573035 0)
(0.999949 0.00281609 0)
(1.00109 0.00394412 0)
(1.0031 0.00369812 0)
(1.0042 0.00436203 0)
(1.0031 0.00546825 0)
(1.00245 0.00635413 0)
(1.00456 0.00694955 0)
(1.00623 0.00651864 0)
(1.00544 0.00714806 0)
(1.00447 0.00866889 0)
(1.00664 0.00901114 0)
(1.00866 0.00810173 0)
(1.00877 0.00810679 0)
(1.00774 0.00903083 0)
(1.00873 0.00938303 0)
(1.01038 0.00877437 0)
(1.01158 0.00818389 0)
(1.01107 0.00814761 0)
(1.01051 0.00853258 0)
(1.00032 0.000574963 0)
(0.999947 0.00253994 0)
(1.00091 0.00392535 0)
(1.00288 0.00378279 0)
(1.00412 0.00409911 0)
(1.0031 0.00531826 0)
(1.00243 0.00643571 0)
(1.0044 0.00698525 0)
(1.00612 0.00652981 0)
(1.00563 0.00702112 0)
(1.00468 0.00838728 0)
(1.00648 0.00884736 0)
(1.00843 0.00808443 0)
(1.00889 0.0079236 0)
(1.00799 0.00865057 0)
(1.00867 0.00911048 0)
(1.01007 0.00868095 0)
(1.01138 0.00811684 0)
(1.01114 0.00796209 0)
(1.0107 0.00820967 0)
(1.00031 0.000584687 0)
(0.999961 0.00229664 0)
(1.00077 0.00383776 0)
(1.00264 0.00388395 0)
(1.00403 0.00392965 0)
(1.00315 0.0051182 0)
(1.00244 0.00644389 0)
(1.00423 0.00701146 0)
(1.00598 0.00655331 0)
(1.00578 0.00690278 0)
(1.00488 0.00810322 0)
(1.00637 0.0086549 0)
(1.00821 0.00804059 0)
(1.00894 0.00777866 0)
(1.00822 0.00829897 0)
(1.00868 0.00879623 0)
(1.00981 0.00854732 0)
(1.01114 0.008041 0)
(1.01113 0.00780449 0)
(1.01084 0.00793423 0)
(1.0003 0.000593357 0)
(0.999985 0.00209608 0)
(1.00068 0.00370006 0)
(1.00241 0.00397193 0)
(1.00391 0.00385891 0)
(1.00323 0.00490349 0)
(1.00249 0.00635546 0)
(1.00408 0.00700771 0)
(1.00582 0.00657534 0)
(1.0059 0.00680299 0)
(1.00509 0.00782284 0)
(1.0063 0.00843248 0)
(1.00798 0.0079599 0)
(1.00893 0.00764334 0)
(1.00842 0.00798818 0)
(1.00874 0.00846776 0)
(1.00961 0.00836444 0)
(1.0109 0.0079535 0)
(1.01106 0.00765978 0)
(1.01093 0.00769632 0)
(1.00028 0.000603671 0)
(1.00001 0.00193443 0)
(1.00062 0.00353583 0)
(1.0022 0.00402855 0)
(1.00377 0.00385131 0)
(1.00331 0.00471775 0)
(1.00258 0.00618752 0)
(1.00395 0.00696341 0)
(1.00566 0.00658169 0)
(1.00598 0.00671025 0)
(1.00529 0.00755703 0)
(1.00626 0.00818608 0)
(1.00777 0.00785058 0)
(1.00888 0.0075103 0)
(1.00858 0.00770714 0)
(1.00882 0.00814909 0)
(1.00947 0.00813966 0)
(1.01066 0.00783697 0)
(1.01094 0.00752899 0)
(1.01097 0.00748311 0)
(1.00027 0.000610317 0)
(1.00004 0.00181237 0)
(1.0006 0.00336424 0)
(1.00201 0.00404673 0)
(1.00361 0.00386973 0)
(1.00338 0.00457019 0)
(1.0027 0.00598345 0)
(1.00385 0.00686132 0)
(1.00548 0.00656755 0)
(1.00603 0.00661627 0)
(1.00547 0.00731149 0)
(1.00626 0.00793224 0)
(1.00757 0.00771575 0)
(1.00878 0.00738501 0)
(1.00869 0.00744153 0)
(1.00892 0.00783032 0)
(1.00937 0.00789175 0)
(1.01045 0.00767784 0)
(1.01079 0.00740151 0)
(1.01094 0.00729437 0)
(1.00026 0.000612356 0)
(1.00007 0.00172766 0)
(1.00059 0.00318855 0)
(1.00184 0.00402318 0)
(1.00344 0.00389478 0)
(1.00343 0.00446035 0)
(1.00283 0.00576606 0)
(1.00379 0.00670878 0)
(1.00531 0.00652353 0)
(1.00603 0.00652325 0)
(1.00562 0.0070712 0)
(1.00627 0.00767194 0)
(1.0074 0.00754869 0)
(1.00865 0.00725946 0)
(1.00875 0.00720326 0)
(1.00902 0.00750423 0)
(1.00932 0.00762726 0)
(1.01027 0.00748748 0)
(1.01062 0.007253 0)
(1.01085 0.00713084 0)
(1.00025 0.000611184 0)
(1.0001 0.00166561 0)
(1.00061 0.00301536 0)
(1.0017 0.00396309 0)
(1.00327 0.00391341 0)
(1.00346 0.00438192 0)
(1.00296 0.00554553 0)
(1.00375 0.00653108 0)
(1.00514 0.00644692 0)
(1.00601 0.00642369 0)
(1.00575 0.00683584 0)
(1.0063 0.00740495 0)
(1.00724 0.00736095 0)
(1.00849 0.00711782 0)
(1.00875 0.00699739 0)
(1.0091 0.00718828 0)
(1.0093 0.00733228 0)
(1.01012 0.00727419 0)
(1.01047 0.00706706 0)
(1.01073 0.0069702 0)
(1.00024 0.000606092 0)
(1.00012 0.00162014 0)
(1.00064 0.00285117 0)
(1.00158 0.00387129 0)
(1.0031 0.00391833 0)
(1.00346 0.00432021 0)
(1.00309 0.0053376 0)
(1.00373 0.00633279 0)
(1.00499 0.00634516 0)
(1.00596 0.00630767 0)
(1.00585 0.00660824 0)
(1.00634 0.00713017 0)
(1.00711 0.00715783 0)
(1.00833 0.00695705 0)
(1.0087 0.00680252 0)
(1.00915 0.00690829 0)
(1.0093 0.007019 0)
(1.01 0.00703712 0)
(1.01032 0.00685684 0)
(1.01061 0.00677821 0)
(1.00023 0.000596416 0)
(1.00013 0.00158763 0)
(1.00067 0.00269826 0)
(1.0015 0.00375739 0)
(1.00293 0.00390645 0)
(1.00344 0.00426603 0)
(1.00321 0.00514637 0)
(1.00374 0.00611482 0)
(1.00484 0.00622522 0)
(1.00588 0.00618651 0)
(1.00592 0.00638565 0)
(1.00638 0.00684672 0)
(1.007 0.0069307 0)
(1.00815 0.00678443 0)
(1.00862 0.00660051 0)
(1.00915 0.00665183 0)
(1.00931 0.00671203 0)
(1.0099 0.00676735 0)
(1.01018 0.00663755 0)
(1.01049 0.00654669 0)
(1.00022 0.000583349 0)
(1.00014 0.00156056 0)
(1.00071 0.00255919 0)
(1.00143 0.00362812 0)
(1.00278 0.00387626 0)
(1.00341 0.00421401 0)
(1.00332 0.00496405 0)
(1.00377 0.00588506 0)
(1.00472 0.00607948 0)
(1.00578 0.00606138 0)
(1.00596 0.00616747 0)
(1.00642 0.0065617 0)
(1.00691 0.00667853 0)
(1.00798 0.00660156 0)
(1.0085 0.00640403 0)
(1.00911 0.0063998 0)
(1.00929 0.00642044 0)
(1.00983 0.00647064 0)
(1.01004 0.00640148 0)
(1.01036 0.00629928 0)
(1.00022 0.000568142 0)
(1.00015 0.00153592 0)
(1.00074 0.00243339 0)
(1.00139 0.00348563 0)
(1.00264 0.00382517 0)
(1.00335 0.00416257 0)
(1.0034 0.00479298 0)
(1.0038 0.00565339 0)
(1.00461 0.00590851 0)
(1.00566 0.00592433 0)
(1.00596 0.00595879 0)
(1.00645 0.00627556 0)
(1.00685 0.0064034 0)
(1.00782 0.006387 0)
(1.00834 0.00621439 0)
(1.00903 0.00615863 0)
(1.00925 0.00614096 0)
(1.00977 0.00616994 0)
(1.00991 0.0061393 0)
(1.01023 0.00605494 0)