/*--------------------------------*- C++ -*----------------------------------*\
| =========                 |                                                 |
| \\      /  F ield         | OpenFOAM: The Open Source CFD Toolbox           |
|  \\    /   O peration     | Version:  v1906                                 |
|   \\  /    A nd           | Web:      www.OpenFOAM.com                      |
|    \\/     M anipulation  |                                                 |
\*---------------------------------------------------------------------------*/
FoamFile
{
    version     2.0;
    format      ascii;
    class       volScalarField;
    location    "4.9";
    object      p;
}
// * * * * * * * * * * * * * * * * * * * * * * * * * * * * * * * * * * * * * //

dimensions      [0 2 -2 0 0 0 0];


internalField   nonuniform List<scalar> 
9600
(
7.37032e-11
2.56259e-05
0.00338661
0.000885565
-0.00158884
0.00226997
0.00313965
0.0051189
0.00817738
0.00864872
0.00762934
0.0105024
0.0108599
0.0124873
0.01256
0.0137442
0.0155349
0.0186723
0.0209861
0.025787
6.49572e-07
1.79364e-05
0.00339008
0.000912447
-0.00159323
0.00224852
0.00313775
0.00512101
0.0081887
0.00865585
0.00763125
0.0104944
0.0108631
0.0124907
0.0125639
0.0137341
0.0155401
0.0186327
0.0209886
0.0252675
1.71006e-06
1.67468e-05
0.00339821
0.000931091
-0.00159715
0.00222183
0.00313593
0.00515601
0.00820979
0.00865494
0.00764392
0.0104738
0.0108711
0.0124803
0.0125684
0.0137155
0.0155418
0.0185862
0.0209574
0.024731
5.71139e-06
3.02794e-05
0.0034038
0.000945109
-0.00158284
0.00221889
0.00313422
0.00521864
0.00823736
0.00865007
0.00767402
0.0104434
0.0108833
0.0124626
0.0125727
0.0136899
0.0155429
0.0185318
0.0208976
0.0242177
1.42846e-05
5.84007e-05
0.00340072
0.000956054
-0.00154003
0.00224032
0.0031322
0.00530295
0.00827101
0.00864246
0.00772048
0.0104096
0.0108991
0.0124403
0.0125774
0.013659
0.0155434
0.0184671
0.0208143
0.0237297
2.79076e-05
9.87708e-05
0.00338445
0.000968272
-0.00146658
0.00227868
0.00313135
0.00540239
0.00831029
0.00863414
0.00778001
0.0103779
0.0109178
0.0124162
0.0125826
0.0136241
0.0155422
0.0183932
0.0207097
0.0232587
4.58685e-05
0.000148485
0.00335404
0.000985808
-0.0013674
0.00233078
0.00313557
0.00551116
0.00835546
0.00862502
0.00784834
0.0103505
0.0109385
0.0123919
0.0125878
0.0135863
0.0155383
0.0183121
0.0205825
0.0228007
6.69806e-05
0.000205269
0.00331298
0.00101103
-0.00125205
0.00239428
0.00314525
0.0056241
0.00840538
0.00861422
0.00792212
0.0103274
0.0109608
0.0123673
0.0125958
0.0135469
0.0155301
0.0182248
0.0204321
0.0223555
8.99804e-05
0.000268289
0.00326739
0.00104445
-0.00113061
0.00246455
0.00315899
0.00574523
0.00845721
0.00860068
0.00799891
0.0103077
0.010984
0.0123427
0.0126005
0.0135066
0.0155165
0.0181322
0.0202592
0.0219234
0.000114035
0.00033765
0.00322288
0.0010856
-0.0010086
0.00253589
0.00317493
0.00585407
0.00850724
0.00858371
0.008077
0.0102908
0.0110081
0.0123187
0.012605
0.0134668
0.0154971
0.0180354
0.0200663
0.021504
0.000138916
0.000413401
0.0031825
0.00113363
-0.000886454
0.00260403
0.00319037
0.00595631
0.008552
0.00856296
0.00815513
0.0102761
0.0110331
0.0122967
0.0126096
0.0134297
0.0154725
0.0179351
0.0198565
0.021097
0.000164875
0.000494884
0.00314678
0.00118733
-0.000761157
0.00266718
0.00320304
0.00604988
0.00858929
0.00853838
0.00823225
0.0102635
0.011059
0.0122779
0.0126149
0.0133972
0.0154432
0.017832
0.0196345
0.0207025
0.000192382
0.000580764
0.0031149
0.00124521
-0.000628625
0.00272552
0.00321227
0.00613404
0.00861887
0.00851023
0.0083075
0.0102535
0.0110853
0.0122631
0.0126213
0.0133707
0.01541
0.0177272
0.0194051
0.0203201
0.000221877
0.000669551
0.0030859
0.00130607
-0.00048617
0.00278037
0.00321867
0.00620917
0.00864211
0.00847912
0.00838019
0.0102464
0.0111111
0.0122521
0.0126283
0.013349
0.015374
0.0176211
0.0191715
0.0199491
0.000253659
0.000760063
0.00305925
0.00136918
-0.00033348
0.0028329
0.00322419
0.00627627
0.00866134
0.00844595
0.00844975
0.0102429
0.0111356
0.0122444
0.0126346
0.013331
0.0153361
0.0175131
0.0189351
0.0195891
0.000287844
0.000851549
0.00303493
0.00143435
-0.000172153
0.00288382
0.00323113
0.00633642
0.00867899
0.00841177
0.00851563
0.0102438
0.0111584
0.012239
0.0126392
0.0133148
0.0152963
0.017402
0.0186962
0.0192401
0.000324492
0.000943632
0.00301316
0.00150159
-4.45178e-06
0.00293356
0.00324136
0.00639043
0.00869693
0.00837767
0.00857728
0.0102496
0.0111791
0.0122349
0.0126417
0.0132981
0.0152538
0.0172869
0.0184554
0.0189022
0.000363715
0.00103609
0.00299422
0.001571
0.000167725
0.00298229
0.00325624
0.00643904
0.00871636
0.00834472
0.00863413
0.0102608
0.0111975
0.0122312
0.0126422
0.013279
0.0152074
0.0171679
0.0182126
0.0185734
0.000405651
0.00112869
0.00297845
0.00164269
0.000343077
0.00303021
0.0032767
0.00648285
0.00873784
0.00831395
0.00868565
0.0102774
0.0112139
0.0122271
0.0126406
0.0132562
0.0151561
0.017046
0.0179677
0.0182507
0.000450438
0.00122126
0.00296626
0.00171674
0.000520789
0.0030777
0.00330318
0.00652238
0.00876156
0.00828631
0.00873133
0.0102991
0.0112287
0.0122215
0.0126373
0.013229
0.0150983
0.0169221
0.0177215
0.0179314
0.000498244
0.00131361
0.00295806
0.00179329
0.000700304
0.00312512
0.00333585
0.00655808
0.00878746
0.00826265
0.00877074
0.0103258
0.0112427
0.0122135
0.0126323
0.0131971
0.0150323
0.0167962
0.0174754
0.0176141
0.000549272
0.00140555
0.00295426
0.00187248
0.000881129
0.00317276
0.00337474
0.00659045
0.00881532
0.00824373
0.00880369
0.0103568
0.0112566
0.0122023
0.0126253
0.0131605
0.0149571
0.0166679
0.0172307
0.0172982
0.000603736
0.00149688
0.00295524
0.00195453
0.00106278
0.00322089
0.00341978
0.00662026
0.00884476
0.00823012
0.00883017
0.0103913
0.011271
0.0121871
0.012616
0.0131198
0.0148718
0.0165368
0.0169883
0.0169821
0.000661872
0.00158738
0.0029613
0.00203961
0.00124479
0.00326976
0.00347082
0.00664749
0.00887541
0.00822226
0.00885023
0.0104287
0.0112867
0.012167
0.0126038
0.0130755
0.0147759
0.0164029
0.0167504
0.0166629
0.000723971
0.00167689
0.0029726
0.00212793
0.00142676
0.00331972
0.00352759
0.00667277
0.00890701
0.00822051
0.00886398
0.0104683
0.0113044
0.0121414
0.0125877
0.0130278
0.014669
0.0162659
0.0165217
0.0163388
0.000790317
0.00176523
0.00298924
0.00221962
0.00160836
0.00337106
0.00358982
0.0066964
0.00893927
0.00822533
0.00887147
0.0105089
0.0113249
0.0121104
0.0125668
0.0129774
0.0145503
0.0161237
0.0163077
0.0160133
0.00086117
0.00185227
0.00301125
0.00231491
0.0017892
0.00342416
0.0036571
0.00671855
0.0089718
0.0082373
0.0088729
0.0105491
0.0113492
0.0120738
0.0125401
0.0129262
0.01442
0.0159711
0.0161108
0.015697
0.000936803
0.0019379
0.00303863
0.00241407
0.0019689
0.0034795
0.00372879
0.00673938
0.00900405
0.00825667
0.00886889
0.0105875
0.0113778
0.012032
0.0125058
0.0128761
0.0142815
0.0158028
0.0159266
0.0154018
0.00101746
0.00202218
0.00307125
0.00251736
0.00214725
0.00353741
0.00380571
0.00675936
0.0090355
0.0082834
0.0088601
0.0106225
0.0114107
0.011986
0.0124628
0.0128274
0.0141389
0.0156179
0.0157465
0.0151333
0.00110341
0.00210521
0.00310883
0.002625
0.00232418
0.00359808
0.00388785
0.00677911
0.00906566
0.00831766
0.00884723
0.0106523
0.0114478
0.0119371
0.0124101
0.0127785
0.0139958
0.0154204
0.015564
0.01489
0.00119487
0.00218718
0.00315101
0.00273714
0.00249978
0.00366159
0.00397507
0.00679926
0.00909391
0.00835952
0.00883137
0.0106756
0.0114886
0.0118863
0.012347
0.0127286
0.0138539
0.0152134
0.015377
0.0146679
0.00129194
0.00226847
0.00319755
0.00285373
0.00267431
0.00372799
0.00406685
0.0068206
0.00911965
0.00840837
0.00881374
0.0106909
0.0115326
0.011835
0.0122726
0.0126782
0.0137158
0.0149981
0.0151845
0.0144645
0.00139476
0.00234947
0.0032482
0.00297473
0.00284803
0.0037973
0.0041625
0.00684399
0.00914276
0.00846345
0.00879541
0.0106968
0.0115786
0.0117847
0.0121862
0.0126263
0.0135852
0.0147765
0.0149831
0.0142778
0.00150342
0.0024306
0.00330273
0.00310002
0.00302119
0.00386973
0.00426166
0.00687006
0.00916346
0.00852386
0.00877724
0.0106922
0.0116254
0.0117376
0.0120873
0.0125692
0.013466
0.0145542
0.0147693
0.014103
0.0016179
0.00251243
0.00336108
0.00322916
0.00319411
0.00394516
0.00436354
0.00689906
0.009182
0.00858873
0.0087599
0.0106763
0.011671
0.0116961
0.0119768
0.0125026
0.0133586
0.0143389
0.0145431
0.0139325
0.00173826
0.00259545
0.00342318
0.00336182
0.00336718
0.00402551
0.00446715
0.00693114
0.00919887
0.00865753
0.00874402
0.0106478
0.0117135
0.011662
0.0118565
0.0124237
0.0132623
0.0141371
0.0143084
0.0137577
0.00186465
0.00268001
0.00348904
0.00349785
0.00354038
0.00411067
0.00457187
0.0069659
0.00921464
0.0087303
0.00873051
0.010606
0.01175
0.0116369
0.0117293
0.0123301
0.0131745
0.0139531
0.0140711
0.0135711
0.00199714
0.00276633
0.003559
0.00363709
0.00371351
0.0042018
0.00467726
0.00700195
0.00922933
0.00880752
0.0087208
0.0105501
0.0117771
0.0116223
0.0115993
0.012219
0.0130903
0.0137904
0.0138388
0.0133686
0.00213566
0.00285448
0.00363365
0.00377971
0.00388646
0.00429995
0.00478278
0.00703802
0.00924265
0.00888924
0.00871663
0.0104798
0.011791
0.011619
0.0114714
0.0120884
0.0130036
0.0136505
0.0136218
0.0131523
0.00228034
0.00294451
0.00371316
0.00392635
0.00405819
0.00440549
0.00488962
0.00707374
0.00925375
0.00897466
0.00872048
0.010396
0.0117866
0.0116262
0.0113518
0.0119387
0.0129075
0.0135316
0.0134302
0.0129321
0.0024314
0.00303671
0.0037973
0.00407743
0.00422745
0.00451864
0.0049999
0.00710859
0.00926075
0.00906252
0.00873519
0.0103015
0.0117598
0.0116402
0.0112473
0.0117733
0.0127945
0.013428
0.0132704
0.0127229
0.00258881
0.0031316
0.00388555
0.0042336
0.0043944
0.00463869
0.00511523
0.00714232
0.00926172
0.00915142
0.00876265
0.0102006
0.0117079
0.011656
0.0111637
0.0115983
0.0126576
0.0133319
0.0131441
0.0125396
0.00275269
0.0032298
0.00397667
0.00439601
0.00456027
0.00476275
0.00523658
0.0071766
0.00925547
0.00923872
0.00880342
0.0100974
0.0116301
0.011668
0.011104
0.0114214
0.012493
0.0132339
0.01305
0.0123947
0.00292308
0.00333227
0.00406877
0.004565
0.00472752
0.004888
0.00536323
0.00721455
0.00924152
0.00932032
0.00885739
0.00999626
0.0115279
0.0116713
0.0110692
0.0112519
0.012299
0.013123
0.0129829
0.0122948
0.00309952
0.00344081
0.00416013
0.00473951
0.00489996
0.00501186
0.00549351
0.00725902
0.00922029
0.00939204
0.00892322
0.00990265
0.0114056
0.0116613
0.0110562
0.0110997
0.0120798
0.0129875
0.0129329
0.0122391
0.00328148
0.00355715
0.00424987
0.00491749
0.00508128
0.00513391
0.00562438
0.00731171
0.0091948
0.00945123
0.00899686
0.00982095
0.0112692
0.0116344
0.0110588
0.0109724
0.0118471
0.0128188
0.012887
0.0122211
0.00346827
0.00368293
0.00433795
0.00509566
0.00527439
0.00525546
0.00575031
0.00737235
0.00917096
0.00949763
0.00907266
0.009753
0.0111261
0.0115899
0.0110701
0.0108732
0.0116144
0.0126147
0.0128295
0.0122309
0.00365899
0.00381955
0.00442542
0.00526958
0.0054806
0.0053801
0.00586557
0.00743886
0.00915504
0.00953265
0.00914629
0.00969894
0.0109816
0.0115286
0.0110852
0.0108022
0.0113946
0.0123811
0.0127453
0.0122566
0.00385278
0.00396787
0.0045145
0.00543445
0.00569865
0.00551444
0.00596705
0.00750499
0.00915155
0.00956239
0.00921572
0.00965714
0.0108385
0.011451
0.0110996
0.0107588
0.0111976
0.012128
0.0126244
0.0122841
0.00404889
0.00412853
0.00460821
0.00558552
0.00592501
0.00566732
0.00605543
0.00756052
0.0091604
0.00959667
0.00928203
0.00962479
0.0106991
0.0113587
0.0111083
0.0107394
0.0110323
0.0118698
0.0124631
0.0122973
0.0042465
0.00430192
0.00470991
0.00571967
0.00615475
0.00584488
0.00613356
0.00759644
0.00917748
0.00964282
0.00934968
0.00960039
0.0105651
0.0112542
0.0111072
0.0107375
0.0109041
0.011623
0.0122644
0.0122808
0.00444476
0.00448788
0.00482298
0.00583633
0.00637986
0.00604942
0.00621165
0.0076077
0.00919171
0.00970295
0.00942731
0.00958633
0.010436
0.011138
0.0110941
0.0107466
0.0108106
0.0114017
0.0120401
0.0122232
0.00464316
0.00468588
0.00495071
0.0059368
0.00658986
0.00627846
0.00630606
0.00759586
0.00918759
0.00977385
0.0095228
0.00958828
0.0103138
0.0110103
0.0110667
0.0107612
0.0107451
0.0111806
0.0118071
0.0121215
0.00484157
0.00489424
0.00509569
0.00602416
0.00677639
0.00652614
0.0064304
0.00756856
0.00915361
0.00984546
0.00963857
0.0096137
0.0102045
0.0108729
0.0110215
0.0107773
0.0107093
0.0110427
0.0115903
0.0119848
0.00504022
0.00511065
0.00525953
0.00610289
0.00693433
0.00678157
0.00659161
0.00754385
0.00908704
0.00990075
0.00977219
0.00966891
0.0101168
0.0107308
0.0109554
0.0107891
0.0106953
0.0109378
0.0114011
0.0118297
0.00523959
0.00533169
0.00544258
0.00617926
0.00706094
0.00703067
0.00678904
0.00754311
0.00899318
0.00992177
0.0099131
0.00975625
0.0100592
0.0105931
0.0108688
0.010789
0.010696
0.0108634
0.0112466
0.0116754
0.00544028
0.00555436
0.00564362
0.00626094
0.00715641
0.00726102
0.00701701
0.0075817
0.00888863
0.00989938
0.0100428
0.00987379
0.0100392
0.0104718
0.0107681
0.0107697
0.0107028
0.0108165
0.0111257
0.0115369
0.00564282
0.00577535
0.00585966
0.00635625
0.00722408
0.00746408
0.00726404
0.00766431
0.00879614
0.00983664
0.0101403
0.0100118
0.0100616
0.0103772
0.0106625
0.01073
0.0107057
0.0107933
0.01105
0.0114223
0.00584744
0.00599066
0.0060861
0.00647212
0.00727447
0.0076342
0.00751503
0.00778812
0.00873418
0.00974636
0.0101919
0.0101512
0.0101261
0.01032
0.0105629
0.0106739
0.0106965
0.0107818
0.0109926
0.0113301
0.0060541
0.00620056
0.00631532
0.00661069
0.0073219
0.00777055
0.00775512
0.00794592
0.00871227
0.00965013
0.0101989
0.0102702
0.0102214
0.0103074
0.0104823
0.0106093
0.0106733
0.0107727
0.0109615
0.011264
0.00626276
0.00640543
0.00654058
0.00676995
0.00737775
0.00787631
0.0079733
0.00812583
0.00873247
0.00956769
0.01017
0.0103551
0.0103291
0.0103377
0.0104334
0.0105473
0.0106404
0.0107591
0.0109484
0.0112423
0.00647295
0.00660604
0.00675737
0.00694549
0.00744941
0.00795941
0.0081631
0.00831531
0.00879226
0.00951255
0.0101218
0.0104037
0.0104314
0.0104013
0.0104236
0.0105008
0.010604
0.0107382
0.0109356
0.0112225
0.00668342
0.00680273
0.00696443
0.0071314
0.00754092
0.00803009
0.00832202
0.0085026
0.00888509
0.00949133
0.0100731
0.0104213
0.0105161
0.0104836
0.0104509
0.0104801
0.0105733
0.0107155
0.010921
0.011216
0.00689271
0.00699692
0.00716167
0.00732012
0.00765186
0.00809919
0.0084525
0.0086778
0.00900154
0.00950438
0.010038
0.0104194
0.0105777
0.0105713
0.0105085
0.0104899
0.0105583
0.010698
0.0109069
0.0112134
0.00709908
0.00718875
0.00735013
0.00750563
0.00777894
0.00817443
0.00855972
0.00883449
0.00913183
0.00954932
0.0100243
0.0104136
0.0106197
0.010653
0.0105885
0.0105315
0.0105654
0.010692
0.0108977
0.0112119
0.00730106
0.00737814
0.0075304
0.00768395
0.00791784
0.00826032
0.00865146
0.00897002
0.00926568
0.00962162
0.0100362
0.0104157
0.0106519
0.010723
0.0106793
0.0106037
0.0105991
0.0107035
0.0108999
0.0112143
0.00749713
0.00756368
0.00770389
0.00785266
0.00806189
0.00835771
0.00873628
0.00908654
0.00939532
0.00971396
0.010075
0.0104322
0.0106854
0.0107877
0.010771
0.0106996
0.0106635
0.0107376
0.0109194
0.011227
0.00768564
0.0077446
0.00787121
0.00801182
0.00820516
0.0084641
0.00881892
0.00918695
0.00951678
0.00981781
0.0101382
0.0104687
0.0107283
0.0108579
0.0108656
0.0108095
0.0107588
0.0107993
0.0109601
0.0112562
0.00786495
0.00791842
0.00803191
0.00816121
0.00834402
0.00857689
0.00890375
0.00927439
0.00962667
0.00992782
0.0102222
0.0105279
0.0107843
0.010938
0.0109734
0.0109365
0.0108863
0.0108971
0.0110285
0.0113071
0.00803408
0.00808245
0.00818535
0.00830044
0.00847346
0.00869056
0.00899319
0.00935534
0.0097226
0.010038
0.0103252
0.0106142
0.0108607
0.011028
0.0110939
0.0110796
0.0110401
0.0110367
0.0111368
0.0113906
0.00819171
0.00823888
0.0083308
0.00842989
0.00859156
0.00879633
0.00908149
0.00943548
0.00980764
0.0101367
0.0104373
0.0107288
0.0109773
0.0111527
0.0112447
0.0112534
0.0112224
0.0112141
0.0112863
0.0115051
0.00833478
0.00838136
0.00846638
0.00855005
0.00869965
0.00889483
0.00916351
0.00950932
0.00988735
0.0102243
0.0105358
0.0108462
0.0111212
0.0113304
0.0114629
0.0115117
0.0114959
0.0114851
0.0115354
0.011717
0.00846212
0.00850625
0.00858934
0.00865905
0.00879454
0.00898468
0.00924175
0.00957197
0.00995511
0.0103132
0.0106339
0.0109434
0.0112342
0.0114823
0.0116687
0.0117807
0.0118085
0.0118083
0.0118442
0.0119938
0.00857493
0.00861883
0.00869628
0.00875022
0.00887076
0.00905457
0.00930911
0.00962346
0.00999586
0.0103996
0.0108061
0.0111984
0.0115559
0.0118534
0.0120841
0.0122475
0.0123086
0.0122856
0.0122523
0.0122839
0.00867168
0.00871281
0.0087825
0.00882487
0.0089327
0.00910871
0.00935517
0.00965012
0.00996149
0.0102515
0.010569
0.0109932
0.011552
0.0121139
0.0125479
0.0128936
0.0132039
0.0135013
0.0138101
0.0140972
0.00873862
0.00878141
0.00886324
0.00891196
0.00902058
0.00918407
0.00940458
0.0096708
0.0100365
0.0105478
0.0111232
0.0116571
0.0120779
0.0124379
0.0127547
0.0130486
0.0133299
0.0135839
0.0138157
0.0139838
0.00876082
0.00879197
0.00885719
0.00890174
0.00901073
0.00921211
0.00955109
0.00997728
0.0104214
0.0108475
0.0112443
0.011578
0.0118826
0.012248
0.012651
0.0130607
0.013545
0.0140636
0.0145107
0.0147791
0.00880103
0.00886953
0.00898834
0.00909051
0.0092701
0.00951727
0.00983721
0.0101793
0.0105452
0.0109261
0.011319
0.0117569
0.0121697
0.0125105
0.0127832
0.0129416
0.0129488
0.0128391
0.0126878
0.0125907
0.00867181
0.00872575
0.00896831
0.00920033
0.00942759
0.00965066
0.00992402
0.0102242
0.0105585
0.0109402
0.0113242
0.0117181
0.0121192
0.012494
0.0128874
0.0133004
0.0137371
0.014167
0.0145284
0.0147611
0.00870155
0.0087764
0.00903288
0.00929804
0.00957301
0.00982585
0.0101146
0.0104137
0.010726
0.011087
0.0114598
0.0118368
0.0122504
0.0126567
0.0130437
0.0134139
0.0137349
0.0139889
0.0141662
0.0142369
0.0290894
0.0230518
0.0147294
0.00880677
0.00747953
0.00879841
0.0103228
0.0113347
0.0119038
0.0122366
0.012571
0.0130354
0.0134965
0.013808
0.0140562
0.014349
0.0146656
0.014974
0.0152613
0.0155653
0.0159676
0.016427
0.0168017
0.0170617
0.0173406
0.0177515
0.018214
0.018585
0.0189086
0.019316
0.0197757
0.0201846
0.0205505
0.0209345
0.0213666
0.0218476
0.0223725
0.0229183
0.0234497
0.0239788
0.0245185
0.0250359
0.0255112
0.0259634
0.026421
0.0269217
0.0274598
0.0280024
0.0285446
0.0291251
0.0297373
0.0303352
0.0309089
0.0315334
0.0322126
0.0328443
0.0334377
0.034055
0.0346862
0.0353118
0.0359778
0.0366924
0.0374512
0.0382081
0.0390033
0.039793
0.0405112
0.0412076
0.0419899
0.0428152
0.0436577
0.0445228
0.0453826
0.0462396
0.0470917
0.0479913
0.0489095
0.049869
0.0508208
0.0518002
0.0527945
0.0538147
0.0548613
0.0559181
0.0570147
0.0581324
0.0592852
0.0604559
0.0616068
0.0628045
0.0640002
0.065259
0.0665087
0.0677657
0.0690228
0.0702773
0.0715105
0.0726668
0.0737513
0.0746715
0.0282929
0.0228932
0.0148127
0.008954
0.00757034
0.00884167
0.0103494
0.0113537
0.0119181
0.0122475
0.0125794
0.0130426
0.0135031
0.0138139
0.0140612
0.0143535
0.0146697
0.0149777
0.0152646
0.0155681
0.0159701
0.0164294
0.016804
0.0170637
0.0173423
0.0177529
0.0182154
0.0185864
0.0189098
0.019317
0.0197768
0.0201857
0.0205514
0.0209353
0.0213673
0.0218483
0.0223732
0.022919
0.0234504
0.0239795
0.0245191
0.0250366
0.0255118
0.0259641
0.0264216
0.0269223
0.0274603
0.028003
0.0285451
0.0291255
0.0297378
0.0303356
0.0309093
0.0315337
0.032213
0.0328447
0.0334381
0.0340553
0.0346865
0.0353121
0.0359781
0.0366927
0.0374515
0.0382083
0.0390036
0.0397933
0.0405115
0.0412078
0.0419901
0.0428154
0.0436579
0.044523
0.0453828
0.0462398
0.0470919
0.0479914
0.0489096
0.0498692
0.0508209
0.0518003
0.0527946
0.0538149
0.0548614
0.0559182
0.0570149
0.0581326
0.0592853
0.060456
0.0616069
0.0628046
0.0640003
0.0652591
0.0665088
0.0677658
0.0690228
0.0702773
0.0715106
0.0726668
0.0737513
0.0746715
0.0275553
0.0227471
0.0149877
0.00922487
0.00772721
0.00889961
0.0103757
0.0113728
0.0119343
0.0122613
0.0125906
0.0130512
0.0135101
0.0138198
0.0140664
0.014358
0.0146736
0.0149812
0.0152678
0.0155709
0.0159725
0.0164318
0.0168063
0.0170656
0.0173438
0.0177544
0.0182169
0.0185877
0.0189108
0.0193179
0.0197777
0.0201866
0.0205522
0.020936
0.0213679
0.0218489
0.0223738
0.0229196
0.023451
0.02398
0.0245197
0.0250372
0.0255124
0.0259646
0.0264221
0.0269227
0.0274608
0.0280034
0.0285455
0.029126
0.0297382
0.0303361
0.0309097
0.0315341
0.0322133
0.0328451
0.0334384
0.0340556
0.0346868
0.0353124
0.0359783
0.0366929
0.0374517
0.0382086
0.0390038
0.0397935
0.0405118
0.041208
0.0419902
0.0428156
0.043658
0.0445232
0.045383
0.04624
0.047092
0.0479915
0.0489098
0.0498693
0.0508211
0.0518005
0.0527947
0.053815
0.0548615
0.0559183
0.057015
0.0581327
0.0592854
0.0604561
0.061607
0.0628047
0.0640004
0.0652591
0.0665088
0.0677659
0.0690229
0.0702774
0.0715106
0.0726669
0.0737513
0.0746715
0.0268551
0.0225952
0.0152075
0.00956642
0.00794299
0.00898234
0.0104134
0.0114001
0.0119576
0.0122818
0.0126074
0.0130632
0.0135185
0.0138269
0.0140733
0.0143642
0.0146786
0.0149854
0.0152719
0.0155748
0.0159759
0.0164346
0.0168088
0.0170681
0.0173462
0.0177564
0.0182187
0.0185892
0.0189121
0.0193191
0.0197789
0.0201876
0.0205531
0.0209368
0.0213686
0.0218495
0.0223744
0.0229203
0.0234516
0.0239806
0.0245203
0.0250378
0.0255129
0.0259651
0.0264226
0.0269232
0.0274613
0.0280039
0.028546
0.0291264
0.0297387
0.0303365
0.0309101
0.0315344
0.0322137
0.0328455
0.0334388
0.0340559
0.0346872
0.0353127
0.0359786
0.0366932
0.037452
0.0382088
0.039004
0.0397938
0.040512
0.0412081
0.0419904
0.0428158
0.0436582
0.0445233
0.0453831
0.0462401
0.0470922
0.0479917
0.0489099
0.0498694
0.0508212
0.0518006
0.0527948
0.0538151
0.0548617
0.0559184
0.0570151
0.0581328
0.0592855
0.0604562
0.0616071
0.0628048
0.0640005
0.0652592
0.0665089
0.067766
0.069023
0.0702775
0.0715107
0.072667
0.0737514
0.0746716
0.0261529
0.0224142
0.0154351
0.00993152
0.00818444
0.00907813
0.0104571
0.0114336
0.0119881
0.01231
0.0126312
0.0130799
0.0135291
0.0138357
0.0140826
0.014373
0.0146855
0.014991
0.0152776
0.0155806
0.0159807
0.016438
0.0168118
0.0170717
0.01735
0.0177596
0.0182211
0.0185913
0.0189142
0.0193211
0.0197805
0.0201889
0.0205543
0.0209378
0.0213694
0.0218502
0.0223751
0.022921
0.0234523
0.0239813
0.024521
0.0250384
0.0255135
0.0259657
0.0264231
0.0269237
0.0274617
0.0280044
0.0285465
0.0291269
0.0297391
0.030337
0.0309105
0.0315348
0.0322142
0.0328459
0.0334392
0.0340563
0.0346875
0.035313
0.0359788
0.0366934
0.0374523
0.0382091
0.0390043
0.0397942
0.0405123
0.0412083
0.0419905
0.042816
0.0436584
0.0445235
0.0453833
0.0462403
0.0470923
0.0479918
0.04891
0.0498696
0.0508213
0.0518007
0.052795
0.0538152
0.0548618
0.0559185
0.0570152
0.0581329
0.0592856
0.0604563
0.0616072
0.0628049
0.0640005
0.0652593
0.066509
0.0677661
0.0690231
0.0702776
0.0715109
0.0726671
0.0737517
0.0746718
0.0254457
0.0222012
0.0156573
0.0103038
0.00843976
0.00918075
0.0105018
0.0114692
0.0120228
0.0123435
0.0126602
0.0131001
0.0135414
0.0138459
0.014094
0.0143844
0.0146946
0.0149983
0.0152853
0.0155891
0.0159876
0.016442
0.016815
0.0170765
0.0173559
0.0177644
0.0182243
0.0185942
0.0189174
0.0193242
0.0197829
0.0201908
0.020556
0.0209392
0.0213705
0.021851
0.0223759
0.0229217
0.023453
0.0239821
0.0245218
0.0250391
0.0255141
0.0259663
0.0264237
0.0269241
0.0274622
0.0280049
0.028547
0.0291274
0.0297396
0.0303375
0.030911
0.0315353
0.0322147
0.0328464
0.0334396
0.0340567
0.0346878
0.0353133
0.0359791
0.0366937
0.0374526
0.0382094
0.0390046
0.0397946
0.0405127
0.0412085
0.0419907
0.0428162
0.0436586
0.0445238
0.0453836
0.0462405
0.0470925
0.047992
0.0489102
0.0498697
0.0508215
0.0518008
0.0527951
0.0538153
0.0548619
0.0559187
0.0570153
0.058133
0.0592857
0.0604565
0.0616073
0.062805
0.0640006
0.0652594
0.0665092
0.0677662
0.0690233
0.0702777
0.0715111
0.0726674
0.0737521
0.074672
0.024742
0.0219592
0.0158683
0.0106785
0.00870755
0.00929062
0.0105469
0.0115054
0.0120605
0.0123807
0.0126925
0.0131223
0.0135546
0.0138569
0.0141069
0.0143974
0.0147051
0.0150071
0.0152951
0.0156001
0.0159965
0.0164468
0.0168183
0.0170822
0.0173636
0.0177707
0.0182282
0.0185978
0.018922
0.0193285
0.0197862
0.0201936
0.0205585
0.0209414
0.0213721
0.0218522
0.0223767
0.0229224
0.0234537
0.0239829
0.0245227
0.0250399
0.0255148
0.025967
0.0264244
0.0269246
0.0274626
0.0280054
0.0285477
0.029128
0.0297401
0.030338
0.0309116
0.0315359
0.0322152
0.032847
0.0334401
0.0340572
0.0346882
0.0353136
0.0359794
0.0366941
0.037453
0.0382097
0.039005
0.0397951
0.0405131
0.0412087
0.0419909
0.0428165
0.0436589
0.044524
0.0453838
0.0462408
0.0470927
0.0479921
0.0489103
0.0498699
0.0508217
0.051801
0.0527953
0.0538155
0.0548621
0.0559188
0.0570154
0.0581331
0.0592858
0.0604566
0.0616074
0.0628051
0.0640008
0.0652595
0.0665093
0.0677663
0.0690234
0.0702779
0.0715113
0.0726678
0.0737527
0.0746723
0.0240514
0.0216908
0.0160635
0.0110527
0.00898822
0.00941004
0.0105934
0.011542
0.0121005
0.012421
0.0127273
0.0131463
0.0135689
0.0138687
0.0141206
0.0144115
0.0147166
0.0150168
0.0153062
0.0156131
0.0160073
0.0164524
0.016822
0.0170887
0.0173726
0.017778
0.0182326
0.0186021
0.0189276
0.019334
0.0197904
0.0201971
0.0205622
0.0209445
0.0213744
0.0218538
0.0223778
0.022923
0.0234543
0.0239837
0.0245236
0.0250407
0.0255155
0.0259679
0.0264254
0.0269253
0.0274629
0.0280059
0.0285484
0.0291287
0.0297405
0.0303385
0.0309123
0.0315366
0.0322158
0.0328476
0.0334408
0.0340577
0.0346886
0.035314
0.0359798
0.0366944
0.0374534
0.0382101
0.0390054
0.0397956
0.0405136
0.041209
0.0419912
0.0428168
0.0436593
0.0445244
0.0453841
0.0462411
0.0470929
0.0479923
0.0489106
0.0498702
0.0508219
0.0518011
0.0527954
0.0538156
0.0548622
0.0559189
0.0570155
0.0581332
0.059286
0.0604568
0.0616075
0.0628052
0.0640009
0.0652597
0.0665095
0.0677665
0.0690236
0.0702781
0.0715116
0.0726684
0.0737535
0.0746728
0.0233815
0.0213985
0.0162388
0.0114237
0.00928143
0.00954072
0.0106422
0.0115782
0.0121422
0.0124642
0.0127647
0.0131719
0.0135842
0.0138812
0.0141352
0.0144263
0.0147287
0.015027
0.0153182
0.0156274
0.0160193
0.016459
0.0168261
0.0170957
0.0173824
0.017786
0.0182374
0.0186069
0.0189341
0.0193402
0.019795
0.0202013
0.0205667
0.0209488
0.0213777
0.0218562
0.0223793
0.0229238
0.0234549
0.0239844
0.0245244
0.0250414
0.0255164
0.0259692
0.0264268
0.0269263
0.0274635
0.0280065
0.0285493
0.0291294
0.0297409
0.0303388
0.0309131
0.0315373
0.0322164
0.0328483
0.0334417
0.0340585
0.0346892
0.0353144
0.0359802
0.0366947
0.0374537
0.0382104
0.0390059
0.0397962
0.0405142
0.0412094
0.0419915
0.0428172
0.0436597
0.0445248
0.0453845
0.0462414
0.0470932
0.0479926
0.0489108
0.0498704
0.0508221
0.0518013
0.0527956
0.0538158
0.0548624
0.055919
0.0570157
0.0581334
0.0592861
0.0604569
0.0616077
0.0628054
0.064001
0.0652598
0.0665096
0.0677666
0.0690239
0.0702784
0.071512
0.0726692
0.0737547
0.0746733
0.0227378
0.0210861
0.016391
0.011788
0.00958562
0.00968365
0.0106939
0.0116136
0.0121848
0.0125101
0.0128049
0.0131994
0.0136005
0.0138945
0.0141505
0.0144419
0.0147415
0.0150377
0.0153307
0.0156425
0.0160324
0.0164663
0.0168309
0.0171033
0.0173927
0.0177944
0.0182424
0.0186121
0.0189412
0.0193469
0.0197998
0.0202057
0.0205719
0.020954
0.0213819
0.0218592
0.0223813
0.0229249
0.0234554
0.0239848
0.0245248
0.0250418
0.0255171
0.0259706
0.0264287
0.0269277
0.0274642
0.0280073
0.0285505
0.0291304
0.0297412
0.0303391
0.0309138
0.031538
0.0322168
0.0328489
0.0334427
0.0340594
0.0346899
0.0353151
0.0359808
0.0366951
0.037454
0.0382107
0.0390062
0.0397969
0.0405148
0.0412098
0.0419919
0.0428177
0.0436602
0.0445252
0.0453849
0.0462419
0.0470936
0.047993
0.0489112
0.0498708
0.0508224
0.0518016
0.0527959
0.053816
0.0548626
0.0559192
0.0570158
0.0581335
0.0592863
0.0604571
0.0616078
0.0628055
0.0640011
0.06526
0.0665099
0.0677668
0.0690242
0.0702787
0.0715125
0.0726704
0.0737563
0.074674
0.0221247
0.0207586
0.0165183
0.0121422
0.00989837
0.00983944
0.0107496
0.0116477
0.0122274
0.0125584
0.0128476
0.0132288
0.0136179
0.0139085
0.0141666
0.0144583
0.0147547
0.0150487
0.0153434
0.015658
0.0160461
0.0164743
0.016836
0.0171112
0.0174035
0.0178031
0.0182476
0.0186174
0.0189486
0.0193539
0.0198047
0.0202102
0.0205774
0.0209597
0.0213867
0.021863
0.0223838
0.0229262
0.0234561
0.0239852
0.0245248
0.0250417
0.0255175
0.0259721
0.0264309
0.0269296
0.0274653
0.0280084
0.028552
0.0291315
0.0297416
0.0303395
0.0309145
0.0315386
0.0322169
0.0328493
0.0334436
0.0340604
0.0346907
0.0353161
0.0359818
0.0366958
0.0374543
0.0382108
0.0390065
0.0397974
0.0405155
0.0412103
0.0419923
0.0428183
0.0436608
0.0445257
0.0453854
0.0462424
0.0470941
0.0479934
0.0489116
0.0498712
0.0508228
0.0518019
0.0527962
0.0538163
0.0548628
0.0559194
0.057016
0.0581337
0.0592865
0.0604573
0.061608
0.0628057
0.0640013
0.0652601
0.0665101
0.067767
0.0690245
0.0702791
0.0715131
0.0726719
0.0737584
0.0746749
0.0215448
0.020421
0.0166197
0.0124831
0.0102168
0.0100083
0.0108099
0.01168
0.012269
0.0126084
0.012893
0.01326
0.0136363
0.0139234
0.0141836
0.0144756
0.0147686
0.01506
0.0153565
0.0156741
0.0160603
0.0164827
0.0168415
0.0171194
0.0174146
0.0178123
0.0182531
0.018623
0.0189564
0.0193612
0.0198097
0.0202146
0.0205829
0.0209656
0.021392
0.0218672
0.0223868
0.0229279
0.023457
0.0239855
0.0245246
0.0250412
0.0255175
0.0259736
0.0264333
0.0269317
0.0274667
0.0280098
0.0285538
0.0291329
0.0297421
0.0303399
0.0309154
0.0315391
0.0322168
0.0328494
0.0334443
0.0340612
0.0346915
0.0353172
0.0359831
0.0366968
0.0374548
0.0382108
0.0390064
0.0397977
0.0405161
0.0412109
0.0419929
0.0428189
0.0436614
0.0445263
0.0453859
0.046243
0.0470947
0.047994
0.0489122
0.0498718
0.0508233
0.0518024
0.0527966
0.0538167
0.0548631
0.0559196
0.0570162
0.0581339
0.0592867
0.0604575
0.0616081
0.0628058
0.0640015
0.0652603
0.0665103
0.0677672
0.069025
0.0702796
0.0715137
0.0726738
0.073761
0.074676
0.0209984
0.0200779
0.0166954
0.0128081
0.0105379
0.0101897
0.010876
0.0117105
0.0123086
0.0126593
0.0129406
0.0132931
0.0136559
0.0139391
0.0142015
0.0144938
0.0147832
0.0150717
0.0153699
0.0156905
0.0160749
0.0164914
0.0168471
0.0171278
0.0174262
0.0178219
0.0182589
0.0186289
0.0189645
0.0193689
0.0198149
0.020219
0.0205883
0.0209717
0.0213976
0.0218718
0.0223901
0.0229299
0.0234581
0.0239859
0.0245242
0.0250404
0.0255172
0.0259749
0.0264359
0.0269342
0.0274684
0.0280114
0.0285558
0.0291345
0.0297428
0.0303404