/*--------------------------------*- C++ -*----------------------------------*\
| =========                 |                                                 |
| \\      /  F ield         | OpenFOAM: The Open Source CFD Toolbox           |
|  \\    /   O peration     | Version:  v1906                                 |
|   \\  /    A nd           | Web:      www.OpenFOAM.com                      |
|    \\/     M anipulation  |                                                 |
\*---------------------------------------------------------------------------*/
FoamFile
{
    version     2.0;
    format      ascii;
    class       volVectorField;
    location    "4.9";
    object      U;
}
// * * * * * * * * * * * * * * * * * * * * * * * * * * * * * * * * * * * * * //

dimensions      [0 1 -1 0 0 0 0];


internalField   nonuniform List<vector> 
9600
(
(0.653207 -0.000703345 0)
(1.31169 0.00939108 0)
(0.607438 -0.0209309 0)
(1.3503 -0.0180692 0)
(0.926412 -0.00336423 0)
(1.23658 0.022962 0)
(0.780567 0.000185358 0)
(1.20064 -0.00315286 0)
(0.770324 -0.0265922 0)
(1.25696 -0.0257937 0)
(0.844482 -0.0241899 0)
(1.21403 -0.00689956 0)
(0.881987 -0.00784305 0)
(1.19906 0.000366008 0)
(0.912747 -0.000570778 0)
(1.17832 0.00394898 0)
(0.91508 0.00252856 0)
(1.15612 0.00392573 0)
(0.890461 0.00185929 0)
(1.1416 0.00188839 0)
(0.672681 -0.00066527 0)
(1.29188 0.0100851 0)
(0.654375 -0.0217977 0)
(1.31671 -0.0206975 0)
(0.939986 -0.00269611 0)
(1.21678 0.0242814 0)
(0.850132 0.000310299 0)
(1.17344 -0.00257839 0)
(0.855186 -0.0279627 0)
(1.21032 -0.0266269 0)
(0.897756 -0.0239423 0)
(1.18094 -0.00722344 0)
(0.931837 -0.00794201 0)
(1.1632 -7.84518e-05 0)
(0.971046 -0.000246394 0)
(1.12946 0.00388574 0)
(0.991621 0.00317832 0)
(1.084 0.00422524 0)
(0.998405 0.00320926 0)
(1.03181 0.00230367 0)
(0.709972 -0.000593905 0)
(1.25325 0.0105267 0)
(0.714535 -0.022282 0)
(1.25609 -0.0225857 0)
(0.964992 -0.00209195 0)
(1.18083 0.0255316 0)
(0.929803 0.000586697 0)
(1.14305 -0.00247987 0)
(0.925203 -0.028311 0)
(1.1453 -0.0268247 0)
(0.95398 -0.0236867 0)
(1.12748 -0.00763391 0)
(0.989696 -0.0078144 0)
(1.11524 -0.000732261 0)
(1.02933 0.000385119 0)
(1.08867 0.00356753 0)
(1.04278 0.00419656 0)
(1.05594 0.00415714 0)
(1.0347 0.00456543 0)
(1.02534 0.00321684 0)
(0.760432 -0.000484479 0)
(1.20095 0.0107249 0)
(0.781468 -0.0225128 0)
(1.17685 -0.0243138 0)
(0.992488 -0.00168067 0)
(1.14143 0.0259506 0)
(1.00103 0.000813695 0)
(1.11796 -0.00230877 0)
(0.981337 -0.0281155 0)
(1.08448 -0.0271456 0)
(0.991511 -0.023513 0)
(1.07696 -0.00818849 0)
(1.02452 -0.00777553 0)
(1.08029 -0.00144423 0)
(1.05768 0.00077513 0)
(1.07426 0.00339554 0)
(1.06119 0.00480398 0)
(1.05753 0.00440401 0)
(1.04573 0.00550796 0)
(1.03614 0.0044574 0)
(0.817464 -0.000326217 0)
(1.1436 0.0107732 0)
(0.84391 -0.0223803 0)
(1.09361 -0.0258836 0)
(1.01278 -0.00169221 0)
(1.1108 0.0257491 0)
(1.05628 0.000999513 0)
(1.10473 -0.0020142 0)
(1.01724 -0.0273106 0)
(1.04151 -0.0271816 0)
(1.00486 -0.0233807 0)
(1.04199 -0.00876569 0)
(1.03454 -0.00800089 0)
(1.06095 -0.00212905 0)
(1.06448 0.000774576 0)
(1.07193 0.00330182 0)
(1.06771 0.00517349 0)
(1.06303 0.004739 0)
(1.05373 0.00636804 0)
(1.04423 0.00555655 0)
(0.873491 -0.000134287 0)
(1.09145 0.0107426 0)
(0.894523 -0.0219576 0)
(1.02206 -0.0272153 0)
(1.02083 -0.00218987 0)
(1.09453 0.025161 0)
(1.09424 0.00107023 0)
(1.10248 -0.00150687 0)
(1.03806 -0.026087 0)
(1.01889 -0.0269059 0)
(1.00301 -0.0233212 0)
(1.02118 -0.00937175 0)
(1.03155 -0.00844711 0)
(1.04983 -0.00286416 0)
(1.06252 0.000488277 0)
(1.07093 0.00312381 0)
(1.07048 0.00540748 0)
(1.06664 0.00504512 0)
(1.05932 0.00710814 0)
(1.0502 0.00665456 0)
(0.921631 4.63593e-05 0)
(1.05272 0.010711 0)
(0.931719 -0.0213156 0)
(0.972738 -0.028242 0)
(1.01737 -0.00323364 0)
(1.0903 0.0242088 0)
(1.11674 0.00102186 0)
(1.10541 -0.00080836 0)
(1.04941 -0.0245483 0)
(1.01019 -0.0263039 0)
(0.996402 -0.0232222 0)
(1.00863 -0.0100253 0)
(1.02485 -0.00903985 0)
(1.04192 -0.00369216 0)
(1.05799 1.32668e-05 0)
(1.06858 0.00279168 0)
(1.07077 0.00549774 0)
(1.06802 0.00531868 0)
(1.06203 0.00773803 0)
(1.05373 0.0077663 0)
(0.957446 0.000163844 0)
(1.03024 0.0107277 0)
(0.958185 -0.0205366 0)
(0.947391 -0.0289603 0)
(1.00714 -0.00477561 0)
(1.09147 0.0228907 0)
(1.12631 0.000924514 0)
(1.10716 5.89145e-06 0)
(1.0547 -0.0228103 0)
(1.008 -0.0254544 0)
(0.990732 -0.0230119 0)
(1.00038 -0.0107205 0)
(1.01795 -0.00972979 0)
(1.03503 -0.00461687 0)
(1.05256 -0.000597678 0)
(1.06462 0.0023225 0)
(1.06874 0.00545973 0)
(1.06699 0.005573 0)
(1.06204 0.00828776 0)
(1.05449 0.00885252 0)
(0.979875 0.000184362 0)
(1.0212 0.010781 0)
(0.977693 -0.0196832 0)
(0.940469 -0.0293827 0)
(0.995547 -0.00661575 0)
(1.09193 0.0212889 0)
(1.1252 0.000878438 0)
(1.10372 0.000863528 0)
(1.05529 -0.0209788 0)
(1.00782 -0.0244484 0)
(0.987482 -0.0226735 0)
(0.994726 -0.0114129 0)
(1.01131 -0.0104592 0)
(1.02776 -0.0056029 0)
(1.04582 -0.00130372 0)
(1.05868 0.00176785 0)
(1.06416 0.00531634 0)
(1.06326 0.00580686 0)
(1.0593 0.0087668 0)
(1.05251 0.00988532 0)
(0.991 0.000108473 0)
(1.01979 0.010815 0)
(0.992738 -0.0187984 0)
(0.944195 -0.0295225 0)
(0.985979 -0.00854938 0)
(1.08803 0.0195405 0)
(1.11545 0.000930418 0)
(1.09402 0.00168469 0)
(1.05181 -0.0191686 0)
(1.00782 -0.0233856 0)
(0.986338 -0.0222261 0)
(0.990911 -0.0120393 0)
(1.0048 -0.0111442 0)
(1.01929 -0.0065986 0)
(1.037 -0.00207684 0)
(1.05017 0.0011589 0)
(1.05668 0.00507218 0)
(1.05663 0.00600867 0)
(1.05373 0.00917768 0)
(1.04792 0.0108446 0)
(0.994716 -3.25091e-05 0)
(1.02057 0.0107712 0)
(1.00408 -0.0179264 0)
(0.952619 -0.0294042 0)
(0.979105 -0.0103959 0)
(1.07821 0.0177832 0)
(1.09911 0.00106248 0)
(1.07917 0.0023871 0)
(1.04511 -0.017491 0)
(1.00746 -0.0223602 0)
(0.986618 -0.0216977 0)
(0.988499 -0.0125397 0)
(0.998698 -0.0117026 0)
(1.00989 -0.00753266 0)
(1.02613 -0.00287567 0)
(1.03908 0.000508939 0)
(1.04631 0.00472902 0)
(1.04722 0.00616576 0)
(1.04557 0.00951602 0)
(1.04108 0.0116964 0)
(0.994936 -0.000196585 0)
(1.02047 0.0106233 0)
(1.0117 -0.0171146 0)
(0.962342 -0.029077 0)
(0.974254 -0.011996 0)
(1.06258 0.0161405 0)
(1.07872 0.00125727 0)
(1.06166 0.00292254 0)
(1.03652 -0.0160324 0)
(1.00665 -0.0214529 0)
(0.98768 -0.0211189 0)
(0.987187 -0.012885 0)
(0.993627 -0.0120872 0)
(1.00077 -0.00831506 0)
(1.01443 -0.00364222 0)
(1.02644 -0.000156121 0)
(1.03391 0.00430272 0)
(1.03581 0.00625716 0)
(1.03557 0.00975595 0)
(1.03268 0.0123887 0)
(0.994311 -0.000351288 0)
(1.01879 0.0103843 0)
(1.01586 -0.0163981 0)
(0.971492 -0.0286029 0)
(0.970941 -0.0132431 0)
(1.0433 0.0146994 0)
(1.05751 0.00146452 0)
(1.04443 0.00324943 0)
(1.02766 -0.0148356 0)
(1.00547 -0.0207118 0)
(0.988989 -0.0205233 0)
(0.9867 -0.0130889 0)
(0.990104 -0.0122882 0)
(0.99333 -0.00889408 0)
(1.0037 -0.0043194 0)
(1.01399 -0.000792089 0)
(1.02105 0.00382046 0)
(1.02369 0.00625377 0)
(1.02483 0.00986723 0)
(1.02362 0.0128824 0)
(0.994007 -0.000478738 0)
(1.01614 0.0100824 0)
(1.01743 -0.0157896 0)
(0.979006 -0.0280402 0)
(0.969168 -0.0141157 0)
(1.02406 0.0134801 0)
(1.03869 0.00162375 0)
(1.02984 0.00335556 0)
(1.01989 -0.0138905 0)
(1.00409 -0.0201435 0)
(0.99015 -0.0199404 0)
(0.986739 -0.013186 0)
(0.988189 -0.0123367 0)
(0.988338 -0.00926473 0)
(0.995361 -0.00485861 0)
(1.00337 -0.00134234 0)
(1.00938 0.00332059 0)
(1.01225 0.00614524 0)
(1.01452 0.00985153 0)
(1.0148 0.0131755 0)
(0.994212 -0.000577002 0)
(1.01332 0.00975093 0)
(1.01749 -0.0152753 0)
(0.984506 -0.0274372 0)
(0.968898 -0.0146474 0)
(1.00823 0.0124569 0)
(1.02426 0.00170759 0)
(1.019 0.00326611 0)
(1.01393 -0.0131468 0)
(1.00268 -0.0197182 0)
(0.990955 -0.0193899 0)
(0.987003 -0.0132102 0)
(0.98748 -0.0122919 0)
(0.985647 -0.00945206 0)
(0.989864 -0.00523508 0)
(0.995438 -0.00176615 0)
(0.999966 0.0028563 0)
(1.00254 0.00596171 0)
(1.00546 0.00974423 0)
(1.00682 0.0132929 0)
(0.994741 -0.000650338 0)
(1.01082 0.00941375 0)
(1.01688 -0.0148301 0)
(0.988193 -0.0268219 0)
(0.969733 -0.0149018 0)
(0.997252 0.0115835 0)
(1.01452 0.00170864 0)
(1.01172 0.00302616 0)
(1.00979 -0.0125427 0)
(1.00144 -0.0193891 0)
(0.991377 -0.0188796 0)
(0.98726 -0.0131928 0)
(0.987403 -0.0122018 0)
(0.98452 -0.00949919 0)
(0.986748 -0.00545827 0)
(0.990165 -0.00205115 0)
(0.993096 0.0024768 0)
(0.994967 0.00575877 0)
(0.998059 0.00958396 0)
(1.00003 0.0132713 0)
(0.995382 -0.000702418 0)
(1.00881 0.00907252 0)
(1.01606 -0.014432 0)
(0.990545 -0.026204 0)
(0.971089 -0.0149622 0)
(0.99063 0.0108074 0)
(1.00848 0.00165067 0)
(1.00713 0.00268352 0)
(1.00709 -0.0120287 0)
(1.00049 -0.0191119 0)
(0.991518 -0.0184089 0)
(0.987392 -0.0131475 0)
(0.987506 -0.0120977 0)
(0.984156 -0.00945213 0)
(0.98517 -0.00555007 0)
(0.986961 -0.00221086 0)
(0.988464 0.00220508 0)
(0.989471 0.00558259 0)
(0.992392 0.00939609 0)
(0.994555 0.013157 0)
(0.995996 -0.000739131 0)
(1.00729 0.00872636 0)
(1.0152 -0.0140602 0)
(0.992025 -0.0255926 0)
(0.972496 -0.0148929 0)
(0.986968 0.010095 0)
(1.00485 0.00156641 0)
(1.0043 0.00227343 0)
(1.00534 -0.0115725 0)
(0.999859 -0.0188529 0)
(0.991527 -0.0179705 0)
(0.987388 -0.013079 0)
(0.987558 -0.011994 0)
(0.984034 -0.00934422 0)
(0.984386 -0.00554761 0)
(0.985123 -0.00226591 0)
(0.985533 0.00203989 0)
(0.985728 0.00545519 0)
(0.988331 0.00919707 0)
(0.990438 0.012994 0)
(0.996503 -0.000764433 0)
(1.00621 0.00837745 0)
(1.01437 -0.0137043 0)
(0.992957 -0.0249893 0)
(0.973718 -0.0147345 0)
(0.985017 0.00942343 0)
(1.00262 0.00146388 0)
(1.00256 0.00181925 0)
(1.00418 -0.0111574 0)
(0.999503 -0.0185905 0)
(0.991528 -0.0175552 0)
(0.987307 -0.0129884 0)
(0.987506 -0.0118873 0)
(0.983941 -0.00920654 0)
(0.983948 -0.00548644 0)
(0.984106 -0.00225298 0)
(0.983794 0.00195803 0)
(0.983365 0.0053826 0)
(0.985668 0.00899923 0)
(0.98764 0.0128012 0)
(0.996865 -0.000781869 0)
(1.00552 0.0080257 0)
(1.01359 -0.0133539 0)
(0.993548 -0.0243914 0)
(0.974702 -0.0145137 0)
(0.984036 0.00877268 0)
(1.00123 0.00134484 0)
(1.00152 0.00133884 0)
(1.00337 -0.0107742 0)
(0.99935 -0.0183122 0)
(0.991583 -0.0171569 0)
(0.987227 -0.0128665 0)
(0.987383 -0.0117818 0)
(0.983849 -0.00905539 0)
(0.983667 -0.00537885 0)
(0.983577 -0.00220644 0)
(0.982861 0.0019279 0)
(0.982041 0.00536034 0)
(0.98415 0.0088122 0)
(0.986028 0.0125764 0)
(0.997073 -0.000793393 0)
(1.00514 0.0076678 0)
(1.01285 -0.0130012 0)
(0.993937 -0.0237953 0)
(0.975485 -0.0142517 0)
(0.983667 0.00812989 0)
(1.00038 0.00120949 0)
(1.00096 0.000842447 0)
(1.00277 -0.0104171 0)
(0.999317 -0.0180124 0)
(0.991702 -0.0167702 0)
(0.987205 -0.012714 0)
(0.987243 -0.0116712 0)
(0.983797 -0.00889624 0)
(0.983499 -0.0052467 0)
(0.983361 -0.00213976 0)
(0.982469 0.00191986 0)
(0.981468 0.0053672 0)
(0.983502 0.00863819 0)
(0.985374 0.0123192 0)
(0.997143 -0.000800426 0)
(1.00498 0.00730157 0)
(1.01216 -0.0126407 0)
(0.994228 -0.0231994 0)
(0.976139 -0.0139638 0)
(0.98372 0.00748695 0)
(0.999885 0.00105707 0)
(1.0007 0.000338717 0)
(1.00227 -0.0100808 0)
(0.999335 -0.0176876 0)
(0.991869 -0.0163911 0)
(0.987263 -0.0125345 0)
(0.987134 -0.0115465 0)
(0.98382 -0.00873655 0)
(0.983443 -0.00509918 0)
(0.983371 -0.00206713 0)
(0.982441 0.00191373 0)
(0.981408 0.00537769 0)
(0.983457 0.00846667 0)
(0.985402 0.0120351 0)
(0.997105 -0.000805134 0)
(1.00496 0.00692835 0)
(1.01149 -0.0122706 0)
(0.994487 -0.0226006 0)
(0.976737 -0.0136583 0)
(0.984051 0.00684081 0)
(0.999607 0.00088792 0)
(1.0006 -0.000163728 0)
(1.00183 -0.00976246 0)
(0.999355 -0.0173367 0)
(0.992063 -0.0160197 0)
(0.987395 -0.012329 0)
(0.987082 -0.0114058 0)
(0.983934 -0.00858026 0)
(0.983501 -0.00493859 0)
(0.983548 -0.00199596 0)
(0.982654 0.00189513 0)
(0.981669 0.0053781 0)
(0.983783 0.00828335 0)
(0.985847 0.0117168 0)
(0.997 -0.000806834 0)
(1.00499 0.00654425 0)
(1.01083 -0.0118909 0)
(0.994741 -0.0219959 0)
(0.977338 -0.0133409 0)
(0.98454 0.00619167 0)
(0.999435 0.00070277 0)
(1.00055 -0.000656979 0)
(1.0014 -0.00946088 0)
(0.999345 -0.0169627 0)
(0.992273 -0.0156552 0)
(0.98758 -0.0121016 0)
(0.987097 -0.0112525 0)
(0.984134 -0.00842956 0)
(0.983664 -0.00477149 0)
(0.983842 -0.00192312 0)
(0.983021 0.00185897 0)
(0.982104 0.00536292 0)
(0.984296 0.00808587 0)
(0.986498 0.0113402 0)
(0.996868 -0.000804407 0)
(1.00503 0.00614802 0)
(1.01019 -0.0115039 0)
(0.99499 -0.021384 0)
(0.977983 -0.0130165 0)
(0.985096 0.00553888 0)
(0.999304 0.000500653 0)
(1.00048 -0.0011381 0)
(1.00097 -0.00917227 0)
(0.999293 -0.0165672 0)
(0.992497 -0.0152985 0)
(0.987795 -0.0118577 0)
(0.987173 -0.011079 0)
(0.984408 -0.00828736 0)
(0.983915 -0.00460989 0)
(0.984209 -0.00185322 0)
(0.983481 0.00180656 0)
(0.982616 0.00533328 0)
(0.98487 0.00788749 0)
(0.98721 0.0108917 0)
(0.996744 -0.000798619 0)
(1.00503 0.00574435 0)
(1.00957 -0.0111115 0)
(0.995216 -0.0207641 0)
(0.978689 -0.0126858 0)
(0.985664 0.00488743 0)
(0.999186 0.000286843 0)
(1.00037 -0.0016078 0)
(1.00055 -0.00889577 0)
(0.999196 -0.0161524 0)
(0.992733 -0.0149544 0)
(0.988022 -0.0115967 0)
(0.987297 -0.0108779 0)
(0.984736 -0.00815463 0)
(0.984237 -0.00444977 0)
(0.984617 -0.00178773 0)
(0.983995 0.00172669 0)
(0.983148 0.00528752 0)
(0.985433 0.00771701 0)
(0.9879 0.0103945 0)
(0.996655 -0.000789412 0)
(1.00497 0.00533278 0)
(1.00897 -0.0107136 0)
(0.995406 -0.0201376 0)
(0.979454 -0.0123557 0)
(0.986223 0.00424461 0)
(0.999076 5.34815e-05 0)
(1.0002 -0.00206383 0)
(1.00014 -0.00863366 0)
(0.999061 -0.0157167 0)
(0.992982 -0.0146216 0)
(0.988254 -0.0113254 0)
(0.987455 -0.0106544 0)
(0.985101 -0.00803151 0)
(0.984612 -0.00428879 0)
(0.985041 -0.00171373 0)
(0.984541 0.00160943 0)
(0.983682 0.00519822 0)
(0.985952 0.0075893 0)
(0.988524 0.00990839 0)
(0.996615 -0.000774559 0)
(1.00486 0.00491539 0)
(1.00841 -0.0103153 0)
(0.995555 -0.0195065 0)
(0.980266 -0.0120286 0)
(0.986768 0.00361163 0)
(0.998974 -0.000195772 0)
(1 -0.0025037 0)
(0.999734 -0.00839222 0)
(0.998894 -0.0152573 0)
(0.993239 -0.0142948 0)
(0.988487 -0.01105 0)
(0.987633 -0.010403 0)
(0.985491 -0.00791038 0)
(0.985025 -0.00413795 0)
(0.985467 -0.0016269 0)
(0.985099 0.00147483 0)
(0.984221 0.00504105 0)
(0.986428 0.00747096 0)
(0.98907 0.00948909 0)
(0.996626 -0.000755235 0)
(1.00471 0.00449606 0)
(1.00787 -0.00992126 0)
(0.99567 -0.018866 0)
(0.981107 -0.0117023 0)
(0.987303 0.00298858 0)
(0.99888 -0.000449894 0)
(0.999785 -0.00292848 0)
(0.999336 -0.00817561 0)
(0.998705 -0.0147827 0)
(0.9935 -0.0139769 0)
(0.988722 -0.0107722 0)
(0.987823 -0.0101249 0)
(0.985895 -0.00778375 0)
(0.985464 -0.00400377 0)
(0.985888 -0.00153189 0)
(0.985654 0.00135402 0)
(0.984765 0.00483506 0)
(0.986879 0.00731263 0)
(0.989542 0.00914207 0)
(0.99668 -0.000731304 0)
(1.00453 0.00407252 0)
(1.00735 -0.00953013 0)
(0.995764 -0.0182136 0)
(0.981956 -0.0113838 0)
(0.987832 0.00237956 0)
(0.998792 -0.000709378 0)
(0.999562 -0.00333731 0)
(0.998942 -0.00797851 0)
(0.998498 -0.0142943 0)
(0.993758 -0.0136718 0)
(0.988962 -0.0104983 0)
(0.988017 -0.00983016 0)
(0.986309 -0.0076549 0)
(0.985921 -0.00389135 0)
(0.986306 -0.00143588 0)
(0.9862 0.00124629 0)
(0.985313 0.00461133 0)
(0.987317 0.00710029 0)
(0.989957 0.00882434 0)
(0.996764 -0.000703886 0)
(1.00433 0.00365364 0)
(1.00685 -0.00915002 0)
(0.995849 -0.0175521 0)
(0.982802 -0.0110712 0)
(0.988356 0.00178203 0)
(0.998707 -0.000970325 0)
(0.999343 -0.00372455 0)
(0.998554 -0.00780464 0)
(0.998277 -0.013788 0)
(0.994009 -0.0133652 0)
(0.989208 -0.0102275 0)
(0.98821 -0.00951566 0)
(0.986728 -0.00751484 0)
(0.986393 -0.00379189 0)
(0.98672 -0.00133047 0)
(0.986732 0.0011401 0)
(0.985864 0.00437729 0)
(0.987747 0.00685668 0)
(0.990332 0.00850294 0)
(0.996868 -0.000673899 0)
(1.00413 0.00324309 0)
(1.00637 -0.00878195 0)
(0.995936 -0.0168832 0)
(0.983635 -0.0107636 0)
(0.988875 0.00119519 0)
(0.998623 -0.00123288 0)
(0.999133 -0.00408403 0)
(0.998174 -0.00765523 0)
(0.998047 -0.0132688 0)
(0.994249 -0.0130553 0)
(0.989463 -0.00996259 0)
(0.9884 -0.00917602 0)
(0.987147 -0.00736177 0)
(0.98688 -0.0037016 0)
(0.98713 -0.00122194 0)
(0.987246 0.00103501 0)
(0.986419 0.0041159 0)
(0.988174 0.00659712 0)
(0.990675 0.00818165 0)
(0.99698 -0.000640059 0)
(1.00393 0.00283663 0)
(1.0059 -0.00842165 0)
(0.996028 -0.0162097 0)
(0.984452 -0.0104637 0)
(0.989388 0.00062424 0)
(0.998537 -0.00149469 0)
(0.998932 -0.00441599 0)
(0.997807 -0.00752785 0)
(0.99781 -0.0127537 0)
(0.994475 -0.0127408 0)
(0.989727 -0.009713 0)
(0.988585 -0.00882086 0)
(0.98756 -0.00719952 0)
(0.987378 -0.00363054 0)
(0.987536 -0.00110932 0)
(0.987738 0.000956706 0)
(0.986978 0.00382717 0)
(0.988608 0.00631198 0)
(0.990993 0.00787355 0)
(0.997097 -0.000604728 0)
(1.00374 0.00244325 0)
(1.00545 -0.00807598 0)
(0.996128 -0.0155364 0)
(0.985254 -0.0101665 0)
(0.989895 7.05505e-05 0)
(0.998451 -0.00176644 0)
(0.99874 -0.00472177 0)
(0.997456 -0.00742176 0)
(0.99757 -0.0122464 0)
(0.994688 -0.0124174 0)
(0.990001 -0.00947625 0)
(0.988767 -0.00845502 0)
(0.987962 -0.00701648 0)
(0.98789 -0.00358472 0)
(0.987944 -0.00100453 0)
(0.988202 0.00092001 0)
(0.987531 0.00353868 0)
(0.989055 0.00598861 0)
(0.991294 0.00757227 0)
(0.997215 -0.000567913 0)
(1.00355 0.00206427 0)
(1.005 -0.00774497 0)
(0.996233 -0.0148655 0)
(0.986039 -0.00986861 0)
(0.990394 -0.000468531 0)
(0.998365 -0.00204721 0)
(0.998554 -0.00499461 0)
(0.997125 -0.00733197 0)
(0.997328 -0.0117427 0)
(0.994887 -0.0120871 0)
(0.990286 -0.00924678 0)
(0.988947 -0.00807861 0)
(0.988347 -0.0068106 0)
(0.988408 -0.00355355 0)
(0.988359 -0.000919136 0)
(0.98864 0.00091126 0)
(0.988067 0.00327169 0)
(0.989515 0.00562988 0)
(0.991592 0.00725237 0)
(0.997333 -0.000529085 0)
(1.00336 0.00169461 0)
(1.00457 -0.00742237 0)
(0.996342 -0.0142007 0)
(0.986807 -0.00957493 0)
(0.990884 -0.000990087 0)
(0.998281 -0.0023286 0)
(0.998375 -0.00523478 0)
(0.996814 -0.00725137 0)
(0.997085 -0.0112515 0)
(0.995073 -0.0117503 0)
(0.990584 -0.00902897 0)
(0.989127 -0.00770033 0)
(0.988711 -0.00657832 0)
(0.98893 -0.0035305 0)
(0.988783 -0.000852791 0)
(0.989053 0.000917434 0)
(0.988577 0.00303125 0)
(0.989981 0.00525429 0)
(0.991897 0.00690002 0)
(0.997449 -0.00048808 0)
(1.00319 0.00133416 0)
(1.00416 -0.00710571 0)
(0.996452 -0.0135527 0)
(0.987556 -0.00928597 0)
(0.991367 -0.00147965 0)
(0.998202 -0.00261969 0)
(0.998204 -0.00544611 0)
(0.996526 -0.00716985 0)
(0.996842 -0.0107692 0)
(0.995244 -0.01141 0)
(0.990896 -0.00882672 0)
(0.989314 -0.00732693 0)
(0.989052 -0.00631828 0)
(0.98945 -0.00351787 0)
(0.989216 -0.000820923 0)
(0.989444 0.000930908 0)
(0.989054 0.00281709 0)
(0.990444 0.00487747 0)
(0.992218 0.00651328 0)
(0.997563 -0.000448151 0)
(1.00301 0.000991725 0)
(1.00376 -0.00679369 0)
(0.996564 -0.0129259 0)
(0.988285 -0.00899435 0)
(0.991839 -0.0019518 0)
(0.998127 -0.00292807 0)
(0.998041 -0.00563592 0)
(0.996261 -0.00708896 0)
(0.996599 -0.0102992 0)
(0.995397 -0.0110681 0)
(0.991222 -0.00864192 0)
(0.989512 -0.00696413 0)
(0.989368 -0.00603517 0)
(0.989961 -0.00351052 0)
(0.989663 -0.000827877 0)
(0.989818 0.000948936 0)
(0.989494 0.00263438 0)
(0.990894 0.00451027 0)
(0.992559 0.00608936 0)
(0.997676 -0.000408286 0)
(1.00285 0.00066728 0)
(1.00339 -0.00648022 0)
(0.996678 -0.0123189 0)
(0.988992 -0.00871252 0)
(0.992297 -0.00239512 0)
(0.998061 -0.00323579 0)
(0.997892 -0.00580895 0)
(0.996023 -0.00701521 0)
(0.996357 -0.00984551 0)
(0.99553 -0.0107185 0)
(0.991561 -0.00847818 0)
(0.989726 -0.00661897 0)
(0.989659 -0.00572592 0)
(0.990455 -0.00349968 0)
(0.990126 -0.000872413 0)
(0.990182 0.00096334 0)
(0.989893 0.0024882 0)
(0.991315 0.00416883 0)
(0.992914 0.0056355 0)
(0.997786 -0.000365753 0)
(1.00269 0.000352191 0)
(1.00303 -0.00617298 0)
(0.996791 -0.0117277 0)
(0.989676 -0.00844445 0)
(0.992742 -0.00277618 0)
(0.998001 -0.0035334 0)
(0.997754 -0.00596654 0)
(0.995812 -0.00694833 0)
(0.99612 -0.00939668 0)
(0.995639 -0.010351 0)
(0.991911 -0.00833215 0)
(0.989963 -0.00629947 0)
(0.989924 -0.00539037 0)
(0.990926 -0.00346344 0)
(0.990604 -0.000951125 0)
(0.990546 0.000961469 0)
(0.990253 0.00237829 0)
(0.991694 0.00387002 0)
(0.993266 0.00518268 0)
(0.997895 -0.000325349 0)
(1.00254 5.55339e-05 0)
(1.00269 -0.00588519 0)
(0.996903 -0.0111455 0)
(0.990339 -0.00818879 0)
(0.993172 -0.00311355 0)
(0.997946 -0.00382389 0)
(0.997632 -0.00611641 0)
(0.995633 -0.00687965 0)
(0.995892 -0.00895188 0)
(0.995725 -0.00996461 0)
(0.992269 -0.00819118 0)
(0.990229 -0.00602177 0)
(0.990171 -0.00504581 0)
(0.991361 -0.00339652 0)
(0.991093 -0.00106983 0)
(0.990922 0.000921913 0)
(0.990583 0.00229042 0)
(0.992026 0.00361057 0)
(0.993594 0.00475869 0)
(0.998002 -0.000290269 0)
(1.00239 -0.000219206 0)
(1.00237 -0.00561821 0)
(0.997013 -0.0105598 0)
(0.990979 -0.00796349 0)
(0.993588 -0.00342671 0)
(0.997897 -0.00408378 0)
(0.997526 -0.00625909 0)
(0.995487 -0.00681031 0)
(0.995678 -0.00852808 0)
(0.995785 -0.00955889 0)
(0.992627 -0.00804946 0)
(0.990526 -0.00578937 0)
(0.990407 -0.00470794 0)
(0.991755 -0.00329825 0)
(0.991584 -0.00120705 0)
(0.991319 0.000838567 0)
(0.990893 0.00221759 0)
(0.992311 0.00338402 0)
(0.993881 0.00437559 0)
(0.998106 -0.000256589 0)
(1.00226 -0.000478135 0)
(1.00208 -0.00537566 0)
(0.99712 -0.00996446 0)
(0.991594 -0.00776676 0)
(0.993992 -0.00371428 0)
(0.997853 -0.00430384 0)
(0.997436 -0.00638235 0)
(0.995377 -0.00676426 0)
(0.995481 -0.00813055 0)
(0.995824 -0.0091389 0)
(0.992982 -0.00789729 0)
(0.990857 -0.00558825 0)
(0.99064 -0.00438646 0)
(0.992104 -0.00316772 0)
(0.992067 -0.00134409 0)
(0.991746 0.000706507 0)
(0.991195 0.00215201 0)
(0.99255 0.00319319 0)
(0.994115 0.00403892 0)
(0.998208 -0.000228545 0)
(1.00214 -0.0007058 0)
(1.00181 -0.00517372 0)
(0.997223 -0.0093505 0)
(0.992181 -0.00758231 0)
(0.99439 -0.00399146 0)
(0.997819 -0.00448587 0)
(0.997359 -0.0064746 0)
(0.995301 -0.00673391 0)
(0.995306 -0.00775015 0)
(0.995838 -0.00869809 0)
(0.993331 -0.00772228 0)
(0.99122 -0.00542005 0)
(0.990877 -0.00409974 0)
(0.992408 -0.00301925 0)
(0.992529 -0.00147012 0)
(0.992206 0.000517765 0)
(0.991509 0.00206759 0)
(0.992752 0.00303641 0)
(0.994292 0.00374439 0)
(0.998308 -0.00020946 0)
(1.00202 -0.000897001 0)
(1.00158 -0.00501178 0)
(0.997324 -0.00873158 0)
(0.992735 -0.00739123 0)
(0.994781 -0.00426725 0)
(0.997797 -0.00462873 0)
(0.997296 -0.00653296 0)
(0.995263 -0.00670106 0)
(0.995162 -0.00740121 0)
(0.995835 -0.0082413 0)
(0.993667 -0.00751729 0)
(0.991614 -0.00528626 0)
(0.991127 -0.00385697 0)
(0.992674 -0.00285924 0)
(0.992958 -0.00155925 0)
(0.992695 0.000289119 0)
(0.991852 0.00193354 0)
(0.992928 0.00290595 0)
(0.994419 0.00348051 0)
(0.998405 -0.000197304 0)
(1.0019 -0.00105264 0)
(1.00138 -0.0048834 0)
(0.997425 -0.00812855 0)
(0.99325 -0.00717935 0)
(0.995165 -0.00454168 0)
(0.997789 -0.0047474 0)
(0.997245 -0.0065402 0)
(0.995262 -0.00665944 0)
(0.995056 -0.00710462 0)
(0.995819 -0.00779831 0)
(0.993982 -0.00727468 0)
(0.992033 -0.00517488 0)
(0.991399 -0.00366326 0)
(0.992911 -0.00270422 0)
(0.993344 -0.00161078 0)
(0.993192 4.73107e-05 0)
(0.99224 0.00172699 0)
(0.993096 0.00277797 0)
(0.994504 0.00323983 0)
(0.9985 -0.000195183 0)
(1.00179 -0.00116849 0)
(1.0012 -0.00478502 0)
(0.997531 -0.00755941 0)
(0.993724 -0.0069229 0)
(0.99554 -0.00480531 0)
(0.997804 -0.00485923 0)
(0.997207 -0.00648196 0)
(0.995289 -0.00660066 0)
(0.994988 -0.00684773 0)
(0.995804 -0.00737418 0)
(0.994276 -0.00700015 0)
(0.992466 -0.00507157 0)
(0.991695 -0.00351301 0)
(0.993132 -0.00256197 0)
(0.993686 -0.00163545 0)
(0.99368 -0.000177878 0)
(0.992673 0.00146084 0)
(0.993278 0.00262771 0)
(0.994556 0.00303285 0)
(0.998592 -0.000204631 0)
(1.00168 -0.00124738 0)
(1.00106 -0.00470235 0)
(0.997648 -0.00704387 0)
(0.994154 -0.00661384 0)
(0.995899 -0.00504136 0)
(0.997846 -0.00497533 0)
(0.997184 -0.00637519 0)
(0.995339 -0.00650593 0)
(0.994964 -0.00662472 0)
(0.995797 -0.00697677 0)
(0.994547 -0.00671109 0)
(0.992904 -0.00496532 0)
(0.992018 -0.00339167 0)
(0.993345 -0.00243081 0)
(0.993988 -0.00164074 0)
(0.994144 -0.000378025 0)
(0.993144 0.00115677 0)
(0.993498 0.0024303 0)
(0.994589 0.00285123 0)
(0.998682 -0.000224237 0)
(1.00157 -0.00129351 0)
(1.00094 -0.00462783 0)
(0.99778 -0.00659374 0)
(0.994542 -0.00625764 0)
(0.996235 -0.00522288 0)
(0.997919 -0.005117 0)
(0.997183 -0.00623999 0)
(0.995403 -0.00634554 0)
(0.994974 -0.00642024 0)
(0.995807 -0.00662934 0)
(0.994799 -0.00642626 0)
(0.993344 -0.004861 0)
(0.992366 -0.00330083 0)
(0.993556 -0.00231257 0)
(0.994252 -0.00162714 0)
(0.994572 -0.000546132 0)
(0.99364 0.000838609 0)
(0.993772 0.00218091 0)
(0.99462 0.00267631 0)
(0.998769 -0.000252595 0)
(1.00146 -0.00131282 0)
(1.00084 -0.00455551 0)
(0.997932 -0.00621998 0)
(0.994894 -0.00586696 0)
(0.996536 -0.0053319 0)
(0.99802 -0.00528111 0)
(0.997219 -0.00610048 0)
(0.99548 -0.00612873 0)
(0.995005 -0.00620232 0)
(0.995833 -0.00631876 0)
(0.995038 -0.00614442 0)
(0.993779 -0.00474693 0)
(0.992742 -0.00323622 0)
(0.993777 -0.00221537 0)
(0.994487 -0.00159979 0)
(0.994957 -0.000671497 0)
(0.994143 0.000525422 0)
(0.994107 0.0018821 0)
(0.994673 0.00248812 0)
(0.998852 -0.000290894 0)
(1.00134 -0.00130548 0)
(1.00076 -0.00447988 0)
(0.998107 -0.00590985 0)
(0.995217 -0.00548108 0)
(0.996793 -0.00536197 0)
(0.998144 -0.00543842 0)
(0.997298 -0.00599234 0)
(0.995572 -0.00587469 0)
(0.99505 -0.00595577 0)
(0.995873 -0.00602672 0)
(0.99527 -0.00588218 0)
(0.994206 -0.00462819 0)
(0.993135 -0.00318744 0)
(0.994011 -0.00213591 0)
(0.994703 -0.00156736 0)
(0.995293 -0.000755323 0)
(0.994629 0.000244261 0)
(0.994502 0.00154257 0)
(0.994774 0.0022688 0)
(0.998931 -0.000335039 0)
(1.00123 -0.00127994 0)
(1.00068 -0.00438968 0)
(0.998302 -0.0056635 0)
(0.995519 -0.00512243 0)
(0.997006 -0.00528396 0)
(0.998276 -0.0055627 0)
(0.997426 -0.00595156 0)
(0.995691 -0.00561099 0)
(0.995103 -0.00566448 0)
(0.995915 -0.00573156 0)
(0.99549 -0.00563904 0)
(0.994627 -0.00451683 0)
(0.993549 -0.00315114 0)
(0.994263 -0.00207074 0)
(0.994908 -0.00153496 0)
(0.995585 -0.000811501 0)
(0.995076 2.46478e-05 0)
(0.994936 0.00119091 0)
(0.99494 0.0020104 0)
(0.999007 -0.000382049 0)
(1.00111 -0.00124867 0)
(1.00059 -0.00427528 0)
(0.998515 -0.00547116 0)
(0.995814 -0.0048065 0)
(0.997175 -0.00510759 0)
(0.998393 -0.00561666 0)
(0.9976 -0.00596764 0)
(0.995854 -0.00537692 0)
(0.995165 -0.00534469 0)
(0.995952 -0.00541762 0)
(0.995695 -0.00539503 0)
(0.995036 -0.00440539 0)
(0.993981 -0.00313022 0)
(0.994534 -0.00202321 0)
(0.995109 -0.00150165 0)
(0.995848 -0.000852836 0)
(0.995473 -0.000144006 0)
(0.99538 0.000860126 0)
(0.99518 0.00171079 0)
(0.999078 -0.000428637 0)
(1.001 -0.00121952 0)
(1.00051 -0.00412855 0)
(0.998739 -0.00532222 0)
(0.996112 -0.00453705 0)
(0.997309 -0.00488142 0)
(0.998481 -0.00557232 0)
(0.997806 -0.00599987 0)
(0.99607 -0.00521335 0)
(0.995245 -0.00501992 0)
(0.995978 -0.00508149 0)
(0.995875 -0.00513986 0)
(0.995427 -0.00429051 0)
(0.994427 -0.00312845 0)
(0.994831 -0.00199933 0)
(0.995308 -0.00147107 0)
(0.996083 -0.00088594 0)
(0.99582 -0.000276376 0)
(0.995806 0.000579226 0)
(0.995481 0.00138949 0)
(0.999143 -0.00046952 0)
(1.00089 -0.00120094 0)
(1.00041 -0.00394555 0)
(0.998966 -0.0052032 0)
(0.996417 -0.00431535 0)
(0.997419 -0.00463259 0)
(0.99853 -0.00541907 0)
(0.998018 -0.00600941 0)
(0.996342 -0.0051438 0)
(0.995363 -0.00472574 0)
(0.995996 -0.00472899 0)
(0.996024 -0.00486551 0)
(0.995786 -0.00416036 0)
(0.994877 -0.00313221 0)
(0.995156 -0.00200271 0)
(0.995514 -0.00144329 0)
(0.9963 -0.000910411 0)
(0.996126 -0.000380574 0)
(0.996195 0.000355371 0)
(0.995818 0.00107375 0)
(0.999201 -0.0005002 0)
(1.00079 -0.00119498 0)
(1.0003 -0.00373043 0)
(0.999189 -0.00509367 0)
(0.996735 -0.00415329 0)
(0.99752 -0.0043793 0)
(0.998538 -0.00517892 0)
(0.998208 -0.00594626 0)
(0.99666 -0.00513742 0)
(0.995535 -0.00450806 0)
(0.996014 -0.0043731 0)
(0.996138 -0.00456944 0)
(0.996105 -0.00400575 0)
(0.995318 -0.00312473 0)
(0.995511 -0.00203349 0)
(0.995733 -0.0014316 0)
(0.996497 -0.000922183 0)
(0.996397 -0.000466092 0)
(0.996538 0.000179901 0)
(0.99616 0.000791382 0)
(0.999251 -0.000519357 0)
(1.0007 -0.00120397 0)
(1.00018 -0.0034809 0)
(0.999395 -0.00497286 0)
(0.997066 -0.00404991 0)
(0.997625 -0.00414285 0)
(0.998515 -0.00490002 0)
(0.998357 -0.00579097 0)
(0.996997 -0.00514257 0)
(0.995771 -0.00438489 0)
(0.996054 -0.00404338 0)
(0.996218 -0.00425107 0)
(0.996375 -0.00382726 0)
(0.99573 -0.00309973 0)
(0.99588 -0.00208009 0)
(0.995978 -0.00145227 0)
(0.996687 -0.000932059 0)
(0.996639 -0.000536402 0)
(0.99684 3.2793e-05 0)
(0.996481 0.000554496 0)
(0.999294 -0.000523898 0)
(1.00063 -0.00122437 0)
(1.00006 -0.00320903 0)
(0.999574 -0.00481123 0)
(0.997406 -0.00399811 0)
(0.997745 -0.00393484 0)
(0.998471 -0.00461011 0)
(0.998458 -0.00555533 0)
(0.997323 -0.00510998 0)
(0.996066 -0.00434367 0)
(0.996137 -0.00378051 0)
(0.996272 -0.00392487 0)
(0.996589 -0.00361791 0)
(0.996104 -0.0030543 0)
(0.996251 -0.00212134 0)
(0.996245 -0.00149238 0)
(0.996878 -0.000953407 0)
(0.996852 -0.000588531 0)
(0.997104 -9.44993e-05 0)
(0.996775 0.000355943 0)
(0.999331 -0.000514638 0)
(1.00057 -0.00124849 0)
(0.999936 -0.00294003 0)
(0.999716 -0.00459315 0)
(0.997746 -0.00397307 0)
(0.997886 -0.00378911 0)
(0.99842 -0.0043207 0)
(0.998513 -0.00527071 0)
(0.997609 -0.00500954 0)
(0.996397 -0.00433587 0)
(0.996279 -0.00360324 0)
(0.996323 -0.00362098 0)
(0.996743 -0.00337728 0)
(0.996422 -0.00297415 0)
(0.996608 -0.00215659 0)
(0.996528 -0.00154331 0)
(0.997081 -0.000996189 0)
(0.997046 -0.000632589 0)
(0.997328 -0.000197527 0)
(0.997034 0.000187776 0)
(0.999361 -0.000496019 0)
(1.00053 -0.00127177 0)
(0.999824 -0.00269304 0)
(0.999819 -0.00432413 0)
(0.998066 -0.00394154 0)
(0.998054 -0.0037083 0)
(0.998378 -0.00404735 0)
(0.998531 -0.00496317 0)
(0.997847 -0.00483896 0)
(0.996736 -0.0043163 0)
(0.996478 -0.00350144 0)
(0.996395 -0.00337174 0)
(0.996855 -0.00313047 0)
(0.996675 -0.0028509 0)
(0.996935 -0.00217187 0)
(0.996814 -0.0015951 0)
(0.997295 -0.00105023 0)
(0.997234 -0.000688786 0)
(0.997519 -0.000279526 0)
(0.997255 4.37714e-05 0)
(0.999386 -0.000466683 0)
(1.0005 -0.00129142 0)
(0.999729 -0.00247991 0)
(0.999888 -0.00402345 0)
(0.998355 -0.00387301 0)
(0.998245 -0.00365679 0)
(0.998359 -0.00380151 0)
(0.998527 -0.00464463 0)