/*--------------------------------*- C++ -*----------------------------------*\
| =========                 |                                                 |
| \\      /  F ield         | OpenFOAM: The Open Source CFD Toolbox           |
|  \\    /   O peration     | Version:  v1906                                 |
|   \\  /    A nd           | Web:      www.OpenFOAM.com                      |
|    \\/     M anipulation  |                                                 |
\*---------------------------------------------------------------------------*/
FoamFile
{
    version     2.0;
    format      ascii;
    class       surfaceScalarField;
    location    "4.2";
    object      phi;
}
// * * * * * * * * * * * * * * * * * * * * * * * * * * * * * * * * * * * * * //

dimensions      [0 3 -1 0 0 0 0];
oriented        oriented;


internalField   nonuniform List<scalar> 
19000
(
1.22068e-06
1.38153e-06
1.1123e-06
-1.13753e-06
1.14383e-06
6.79807e-07
1.21434e-06
1.02684e-06
1.1363e-06
1.35497e-07
1.07408e-06
-1.18627e-06
1.19547e-06
1.13798e-06
1.11863e-06
2.07893e-08
1.14766e-06
4.07163e-07
1.1293e-06
6.33084e-07
1.10435e-06
-1.87419e-08
1.14928e-06
7.04665e-07
1.12598e-06
4.75629e-07
1.13053e-06
7.28976e-07
1.13082e-06
3.78428e-07
1.13243e-06
2.87586e-07
1.14341e-06
4.5773e-08
1.12946e-06
-1.18271e-07
1.13782e-06
-1.22568e-08
-3.01821e-07
1.08091e-06
1.27459e-06
1.3312e-06
1.16379e-06
-1.02672e-06
1.19416e-06
6.49439e-07
1.2739e-06
9.47105e-07
1.19361e-06
2.15789e-07
1.12702e-06
-1.11968e-06
1.24972e-06
1.01528e-06
1.17001e-06
1.00495e-07
1.19819e-06
3.78986e-07
1.19298e-06
6.38286e-07
1.15867e-06
1.55699e-08
1.21653e-06
6.46811e-07
1.18324e-06
5.08917e-07
1.19931e-06
7.12908e-07
1.18379e-06
3.93945e-07
1.20221e-06
2.69166e-07
1.19196e-06
5.60195e-08
1.20117e-06
-1.27473e-07
1.18203e-06
6.874e-09
-2.85536e-07
1.16575e-06
1.33041e-06
1.28357e-06
1.2211e-06
-9.17413e-07
1.24384e-06
6.26701e-07
1.33191e-06
8.59033e-07
1.25624e-06
2.9146e-07
1.18332e-06
-1.04676e-06
1.30181e-06
8.96794e-07
1.23226e-06
1.70048e-07
1.24843e-06
3.62815e-07
1.26409e-06
6.22621e-07
1.21804e-06
6.16205e-08
1.28143e-06
5.83423e-07
1.24542e-06
5.44925e-07
1.26006e-06
6.98265e-07
1.24275e-06
4.11258e-07
1.25696e-06
2.54958e-07
1.24971e-06
6.32666e-08
1.25382e-06
-1.31577e-07
1.24798e-06
1.27075e-08
-2.62799e-07
1.22525e-06
1.38767e-06
1.24e-06
1.28671e-06
-8.16446e-07
1.29474e-06
6.18673e-07
1.38868e-06
7.65092e-07
1.32373e-06
3.56412e-07
1.24694e-06
-9.69972e-07
1.35366e-06
7.90071e-07
1.30511e-06
2.18601e-07
1.30181e-06
3.6611e-07
1.33648e-06
5.87953e-07
1.28143e-06
1.16665e-07
1.33031e-06
5.34544e-07
1.30729e-06
5.67944e-07
1.3129e-06
6.92661e-07
1.30237e-06
4.21784e-07
1.31122e-06
2.46108e-07
1.30916e-06
6.53279e-08
1.31093e-06
-1.33345e-07
1.31003e-06
1.36058e-08
-2.38847e-07
1.28608e-06
1.44654e-06
1.20181e-06
1.36038e-06
-7.30278e-07
1.34982e-06
6.29233e-07
1.44414e-06
6.70772e-07
1.39597e-06
4.04582e-07
1.31912e-06
-8.9312e-07
1.40607e-06
7.03115e-07
1.38344e-06
2.41232e-07
1.36289e-06
3.86658e-07
1.40387e-06
5.46972e-07
1.35069e-06
1.69849e-07
1.37306e-06
5.12171e-07
1.36564e-06
5.75371e-07
1.36862e-06
6.8968e-07
1.36427e-06
4.26136e-07
1.37281e-06
2.37561e-07
1.37366e-06
6.44799e-08
1.37544e-06
-1.35126e-07
1.37647e-06
1.25808e-08
-2.15063e-07
1.35268e-06
1.50765e-06
1.16983e-06
1.44009e-06
-6.62724e-07
1.41241e-06
6.56919e-07
1.49982e-06
5.83365e-07
1.4723e-06
4.321e-07
1.39877e-06
-8.19593e-07
1.4606e-06
6.41283e-07
1.46142e-06
2.4042e-07
1.43401e-06
4.1406e-07
1.46885e-06
5.1214e-07
1.42552e-06
2.13179e-07
1.42427e-06
5.13418e-07
1.42454e-06
5.75102e-07
1.43132e-06
6.82902e-07
1.43263e-06
4.24818e-07
1.44266e-06
2.2753e-07
1.44499e-06
6.21575e-08
1.44624e-06
-1.36379e-07
1.44844e-06
1.03799e-08
-1.91119e-07
1.4245e-06
1.57194e-06
1.14411e-06
1.52317e-06
-6.13953e-07
1.48486e-06
6.95232e-07
1.55886e-06
5.09367e-07
1.55151e-06
4.39451e-07
1.4832e-06
-7.51289e-07
1.51969e-06
6.04798e-07
1.53722e-06
2.22886e-07
1.51322e-06
4.38061e-07
1.53667e-06
4.88686e-07
1.50377e-06
2.46083e-07
1.48886e-06
5.28329e-07
1.4899e-06
5.7406e-07
1.50136e-06
6.71441e-07
1.50781e-06
4.1837e-07
1.51962e-06
2.15724e-07
1.52239e-06
5.93837e-08
1.52205e-06
-1.36038e-07
1.52468e-06
7.75016e-09
-1.668e-07
1.50036e-06
1.64036e-06
1.12387e-06
1.60757e-06
-5.81157e-07
1.56722e-06
7.3558e-07
1.62432e-06
4.52266e-07
1.63219e-06
4.31583e-07
1.56988e-06
-6.88982e-07
1.58598e-06
5.88702e-07
1.61265e-06
1.96216e-07
1.59619e-06
4.54517e-07
1.60966e-06
4.75216e-07
1.58409e-06
2.7165e-07
1.56425e-06
5.48169e-07
1.56412e-06
5.74189e-07
1.57871e-06
6.56852e-07
1.58871e-06
4.08376e-07
1.60188e-06
2.02547e-07
1.60475e-06
5.65202e-08
1.60213e-06
-1.3342e-07
1.60455e-06
5.33324e-09
-1.42114e-07
1.57986e-06
1.71352e-06
1.10793e-06
1.69249e-06
-5.6013e-07
1.65731e-06
7.7076e-07
1.69765e-06
4.11932e-07
1.71352e-06
4.1571e-07
1.6577e-06
-6.33164e-07
1.66113e-06
5.85271e-07
1.69036e-06
1.6699e-07
1.68007e-06
4.64809e-07
1.6875e-06
4.6778e-07
1.66685e-06
2.92306e-07
1.64706e-06
5.6795e-07
1.64674e-06
5.74512e-07
1.66322e-06
6.4037e-07
1.67499e-06
3.9661e-07
1.68846e-06
1.89081e-07
1.69119e-06
5.37844e-08
1.6861e-06
-1.28324e-07
1.6879e-06
3.52773e-09
-1.17296e-07
1.66308e-06
1.79165e-06
1.09499e-06
1.77826e-06
-5.46736e-07
1.75224e-06
7.96779e-07
1.77857e-06
3.85603e-07
1.79578e-06
3.98499e-07
1.74693e-06
-5.84312e-07
1.74507e-06
5.87133e-07
1.77218e-06
1.39881e-07
1.76497e-06
4.72017e-07
1.76953e-06
4.63223e-07
1.75305e-06
3.08784e-07
1.73578e-06
5.85223e-07
1.73678e-06
5.73511e-07
1.75448e-06
6.22665e-07
1.76662e-06
3.84474e-07
1.77904e-06
1.76664e-07
1.78117e-06
5.16496e-08
1.77363e-06
-1.20784e-07
1.77462e-06
2.53911e-09
-9.27904e-08
1.75011e-06
1.87476e-06
1.08398e-06
1.86573e-06
-5.37699e-07
1.84983e-06
8.12678e-07
1.8659e-06
3.69524e-07
1.88011e-06
3.84293e-07
1.83836e-06
-5.42557e-07
1.83629e-06
5.89197e-07
1.8588e-06
1.17376e-07
1.85266e-06
4.78152e-07
1.85566e-06
4.60226e-07
1.84339e-06
3.21052e-07
1.82989e-06
5.98724e-07
1.83323e-06
5.7017e-07
1.85159e-06
6.0431e-07
1.86305e-06
3.73015e-07
1.87329e-06
1.66415e-07
1.87426e-06
5.06852e-08
1.86445e-06
-1.10977e-07
1.86449e-06
2.49944e-09
-6.91515e-08
1.84085e-06
1.96278e-06
1.07404e-06
1.95584e-06
-5.30755e-07
1.94911e-06
8.19408e-07
1.95838e-06
3.60248e-07
1.96786e-06
3.74818e-07
1.93264e-06
-5.07337e-07
1.93291e-06
5.88929e-07
1.95014e-06
1.00142e-07
1.94465e-06
4.83646e-07
1.94621e-06
4.58669e-07
1.93809e-06
3.29168e-07
1.92885e-06
6.07959e-07
1.93483e-06
5.64199e-07
1.9532e-06
5.8594e-07
1.96328e-06
3.62935e-07
1.97074e-06
1.58954e-07
1.97013e-06
5.12906e-08
1.9584e-06
-9.92496e-08
1.95739e-06
3.5099e-09
-4.6901e-08
1.93514e-06
2.05572e-06
1.06451e-06
2.0494e-06
-5.24439e-07
2.05006e-06
8.18749e-07
2.05512e-06
3.5519e-07
2.06011e-06
3.69823e-07
2.03018e-06
-4.774e-07
2.03346e-06
5.85648e-07
2.04581e-06
8.77848e-08
2.04141e-06
4.88053e-07
2.04138e-06
4.58697e-07
2.03706e-06
3.33489e-07
2.03189e-06
6.1313e-07
2.0402e-06
5.55889e-07
2.05801e-06
5.68126e-07
2.06638e-06
3.54565e-07
2.07102e-06
1.54321e-07
2.06869e-06
5.36169e-08
2.05555e-06
-8.61152e-08
2.05344e-06
5.62658e-09
-2.6407e-08
2.03294e-06
2.15363e-06
1.05488e-06
2.14702e-06
-5.17823e-07
2.15314e-06
8.12625e-07
2.1557e-06
3.52631e-07
2.15752e-06
3.68001e-07
2.13127e-06
-4.51146e-07
2.13725e-06
5.79667e-07
2.14544e-06
7.95938e-08
2.14272e-06
4.90769e-07
2.14117e-06
4.60253e-07
2.14011e-06
3.34548e-07
2.13829e-06
6.14942e-07
2.14835e-06
5.45836e-07
2.16527e-06
5.51208e-07
2.17192e-06
3.47912e-07
2.17417e-06
1.5207e-07
2.17016e-06
5.76267e-08
2.15619e-06
-7.21502e-08
2.15304e-06
8.78361e-09
-7.79347e-09
2.13442e-06
2.25663e-06
1.04474e-06
2.24913e-06
-5.10319e-07
2.25899e-06
8.02762e-07
2.2601e-06
3.51519e-07
2.26036e-06
3.67745e-07
2.23623e-06
-4.27022e-07
2.24424e-06
5.71658e-07
2.24888e-06
7.4954e-08
2.2483e-06
4.91352e-07
2.24546e-06
4.63095e-07
2.24707e-06
3.32933e-07
2.24772e-06
6.14299e-07
2.25886e-06
5.34692e-07
2.27485e-06
5.35214e-07
2.27998e-06
3.42786e-07
2.28057e-06
1.51485e-07
2.27504e-06
6.31503e-08
2.26075e-06
-5.78547e-08
2.25677e-06
1.27593e-08
9.0466e-09
2.23993e-06
2.36484e-06
1.03377e-06
2.35608e-06
-5.01563e-07
2.36835e-06
7.90495e-07
2.36858e-06
3.51292e-07
2.36871e-06
3.67612e-07
2.34546e-06
-4.03767e-07
2.35483e-06
5.62282e-07
2.35634e-06
7.3448e-08
2.35813e-06
4.89562e-07
2.35427e-06
4.66956e-07
2.35796e-06
3.29239e-07
2.36022e-06
6.12037e-07
2.37186e-06
5.2305e-07
2.38719e-06
5.19885e-07
2.39103e-06
3.38951e-07
2.39073e-06
1.51784e-07
2.38397e-06
6.99113e-08
2.36964e-06
-4.35276e-08
2.36519e-06
1.72064e-08
2.43261e-08
2.34991e-06
2.47839e-06
1.02178e-06
2.46818e-06
-4.91355e-07
2.48196e-06
7.7671e-07
2.4815e-06
3.51751e-07
2.4826e-06
3.66516e-07
2.45931e-06
-3.80473e-07
2.46958e-06
5.5201e-07
2.46824e-06
7.47822e-08
2.47245e-06
4.85351e-07
2.46777e-06
4.71638e-07
2.47299e-06
3.24023e-07
2.47626e-06
6.08766e-07
2.48788e-06
5.11427e-07
2.50296e-06
5.04805e-07
2.50571e-06
3.362e-07
2.50517e-06
1.52327e-07
2.49757e-06
7.75177e-08
2.48326e-06
-2.92198e-08
2.47871e-06
2.17496e-08
3.82037e-08
2.46484e-06
2.59744e-06
1.00864e-06
2.58568e-06
-4.79599e-07
2.60052e-06
7.61872e-07
2.59933e-06
3.52938e-07
2.60209e-06
3.63757e-07
2.57814e-06
-3.56518e-07
2.58906e-06
5.41087e-07
2.58515e-06
7.86874e-08
2.59167e-06
4.78839e-07
2.5863e-06
4.77e-07
2.59258e-06
3.17748e-07
2.59653e-06
6.04817e-07
2.60765e-06
5.00303e-07
2.62295e-06
4.89507e-07
2.62471e-06
3.34433e-07
2.62434e-06
1.52698e-07
2.61641e-06
8.54549e-08
2.60192e-06
-1.4732e-08
2.59765e-06
2.60234e-08
5.07406e-08
2.58511e-06
2.72218e-06
9.94287e-07
2.70884e-06
-4.66253e-07
2.72459e-06
7.46122e-07
2.7225e-06
3.5502e-07
2.7273e-06
3.58961e-07
2.70227e-06
-3.31491e-07
2.71377e-06
5.29592e-07
2.70758e-06
8.48718e-08
2.71617e-06
4.70256e-07
2.71025e-06
4.82921e-07
2.71722e-06
3.10774e-07
2.72178e-06
6.0026e-07
2.73195e-06
4.9013e-07
2.74786e-06
4.73599e-07
2.7487e-06
3.33597e-07
2.74862e-06
1.52777e-07
2.74095e-06
9.31264e-08
2.72601e-06
2.00805e-10
2.72218e-06
2.98584e-08
6.18218e-08
2.7111e-06
2.85286e-06
9.78694e-07
2.83789e-06
-4.51281e-07
2.85462e-06
7.29388e-07
2.85144e-06
3.58197e-07
2.8584e-06
3.52005e-07
2.83205e-06
-3.05138e-07
2.84413e-06
5.17514e-07
2.83598e-06
9.30198e-08
2.84635e-06
4.59878e-07
2.84001e-06
4.89261e-07
2.84739e-06
3.03399e-07
2.85271e-06
5.94939e-07
2.86151e-06
4.81333e-07
2.87828e-06
4.56828e-07
2.87832e-06
3.33558e-07
2.87829e-06
1.52802e-07
2.87155e-06
9.98661e-08
2.85599e-06
1.57664e-08
2.85245e-06
3.34009e-08
7.11549e-08
2.84311e-06
2.98975e-06
9.61843e-07
2.97309e-06
-4.34621e-07
2.991e-06
7.11474e-07
2.98655e-06
3.62646e-07
2.99561e-06
3.42946e-07
2.96781e-06
-2.77335e-07
2.98051e-06
5.04809e-07
2.97072e-06
1.02809e-07
2.98259e-06
4.4801e-07
2.976e-06
4.95853e-07
2.98348e-06
2.9592e-07
2.98987e-06
5.88552e-07
2.99696e-06
4.74244e-07
3.01467e-06
4.39115e-07
3.01416e-06
3.34065e-07
3.01372e-06
1.5324e-07
3.00848e-06
1.05105e-07
2.99233e-06
3.19184e-08
2.98862e-06
3.71134e-08
7.83893e-08
2.98139e-06
3.13314e-06
9.43708e-07
3.11471e-06
-4.16184e-07
3.13405e-06
6.92131e-07
3.1282e-06
3.68494e-07
3.13919e-06
3.31961e-07
3.10993e-06
-2.48078e-07
3.1233e-06
4.91434e-07
3.1122e-06
1.13915e-07
3.12522e-06
4.34981e-07
3.11859e-06
5.02486e-07
3.12584e-06
2.88675e-07
3.13366e-06
5.80724e-07
3.13886e-06
4.69049e-07
3.15741e-06
4.20568e-07
3.15675e-06
3.34719e-07
3.1553e-06
1.54696e-07
3.15192e-06
1.08488e-07
3.13554e-06
4.82975e-08
3.13095e-06
4.1697e-08
8.32641e-08
3.12608e-06
3.28336e-06
9.24256e-07
3.26305e-06
-3.95872e-07
3.28406e-06
6.7112e-07
3.27674e-06
3.75814e-07
3.28942e-06
3.19285e-07
3.2588e-06
-2.17462e-07
3.27285e-06
4.77389e-07
3.26075e-06
1.26011e-07
3.27458e-06
4.21152e-07
3.26815e-06
5.08912e-07
3.27479e-06
2.82038e-07
3.28442e-06
5.71097e-07
3.28772e-06
4.65751e-07
3.30681e-06
4.01471e-07
3.3065e-06
3.35028e-07
3.30347e-06
1.57726e-07
3.30197e-06
1.09987e-07
3.28604e-06
6.42289e-08
3.27984e-06
4.78958e-08
8.58113e-08
3.2773e-06
3.44074e-06
9.03448e-07
3.41846e-06
-3.73592e-07
3.44132e-06
6.48259e-07
3.43251e-06
3.84624e-07
3.44663e-06
3.05162e-07
3.41483e-06
-1.8566e-07
3.42947e-06
4.62751e-07
3.41674e-06
1.38737e-07
3.43097e-06
4.06921e-07
3.42505e-06
5.14834e-07
3.4307e-06
2.76392e-07
3.4424e-06
5.59399e-07
3.44396e-06
4.6419e-07
3.46317e-06
3.82261e-07
3.46375e-06
3.34441e-07
3.45877e-06
1.62711e-07
3.4588e-06
1.09959e-07
3.44416e-06
7.88688e-08
3.43588e-06
5.61743e-08
8.65441e-08
3.43515e-06
3.60562e-06
8.81243e-07
3.5813e-06
-3.49275e-07
3.60611e-06
6.23448e-07
3.59584e-06
3.94894e-07
3.61118e-06
2.8982e-07
3.57843e-06
-1.52905e-07
3.59347e-06
4.47704e-07
3.58052e-06
1.51692e-07
3.59473e-06
3.92715e-07
3.58963e-06
5.19926e-07
3.59395e-06
2.72075e-07
3.60783e-06
5.45515e-07
3.60797e-06
4.6405e-07
3.62673e-06
3.63503e-07
3.62877e-06
3.32407e-07
3.62172e-06
1.69753e-07
3.62259e-06
1.09097e-07
3.61008e-06
9.13764e-08
3.59971e-06
6.65412e-08
8.64417e-08
3.59981e-06
3.77834e-06
8.57606e-07
3.75195e-06
-3.22886e-07
3.77874e-06
5.96663e-07
3.76708e-06
4.0655e-07
3.78343e-06
2.73476e-07
3.75002e-06
-1.19495e-07
3.76517e-06
4.32549e-07
3.75244e-06
1.64425e-07
3.76618e-06
3.7897e-07
3.76225e-06
5.23862e-07
3.76499e-06
2.69334e-07
3.78099e-06
5.29514e-07
3.78014e-06
4.64898e-07
3.79783e-06
3.45813e-07
3.80175e-06
3.28491e-07
3.79284e-06
1.78657e-07
3.79369e-06
1.08245e-07
3.78391e-06
1.01162e-07
3.77198e-06
7.8471e-08
8.67668e-08
3.77165e-06
3.95928e-06
8.32513e-07
3.93082e-06
-2.94425e-07
3.95954e-06
5.67946e-07
3.94661e-06
4.19475e-07
3.96373e-06
2.56363e-07
3.93003e-06
-8.57971e-08
3.94489e-06
4.1769e-07
3.93285e-06
1.76459e-07
3.94574e-06
3.66087e-07
3.94322e-06
5.26378e-07
3.94428e-06
2.68271e-07
3.96214e-06
5.11656e-07
3.96083e-06
4.66214e-07
3.97685e-06
3.29792e-07
3.9829e-06
3.2244e-07
3.97261e-06
1.8895e-07
3.97252e-06
1.08332e-07
3.96575e-06
1.07934e-07
3.95316e-06
9.10591e-08
8.86698e-08
3.95126e-06
4.14881e-06
8.05955e-07
4.11832e-06
-2.63934e-07
4.14887e-06
5.3739e-07
4.13484e-06
4.33504e-07
4.15245e-06
2.38757e-07
4.11891e-06
-5.22577e-08
4.13299e-06
4.03608e-07
4.12214e-06
1.87315e-07
4.13382e-06
3.54404e-07
4.1329e-06
5.27293e-07
4.13232e-06
2.68849e-07
4.15166e-06
4.92316e-07
4.15039e-06
4.67491e-07
4.16424e-06
3.15941e-07
4.17246e-06
3.14219e-07
4.16143e-06
1.99975e-07
4.15962e-06
1.10143e-07
4.15574e-06
1.11817e-07
4.14363e-06
1.03172e-07
9.29005e-08
4.1394e-06
4.34732e-06
7.77942e-07
4.31487e-06
-2.3149e-07
4.34713e-06
5.0513e-07
4.33222e-06
4.48417e-07
4.34998e-06
2.20996e-07
4.31711e-06
-1.9391e-08
4.3299e-06
3.90824e-07
4.32065e-06
1.96562e-07
4.3309e-06
3.44157e-07
4.33162e-06
5.26571e-07
4.32958e-06
2.7089e-07
4.34998e-06
4.71917e-07
4.34917e-06
4.68304e-07
4.36052e-06
3.04589e-07
4.37075e-06
3.03984e-07
4.35968e-06
2.11049e-07
4.35565e-06
1.14168e-07
4.3541e-06
1.13371e-07
4.3436e-06
1.13671e-07
9.95499e-08
4.33695e-06
4.55521e-06
7.48501e-07
4.52093e-06
-1.97204e-07
4.5547e-06
4.71354e-07
4.5392e-06
4.63919e-07
4.5567e-06
2.03495e-07
4.52511e-06
1.22039e-08
4.53606e-06
3.79873e-07
4.52874e-06
2.03882e-07
4.5375e-06
3.35399e-07
4.53975e-06
5.2432e-07
4.53649e-06
2.74143e-07
4.55754e-06
4.50869e-07
4.55754e-06
4.68308e-07
4.5662e-06
2.95932e-07
4.57817e-06
2.9201e-07
4.56769e-06
2.21527e-07
4.56129e-06
1.20573e-07
4.5612e-06
1.13457e-07
4.55318e-06
1.21691e-07
1.0797e-07
4.54476e-06
4.77294e-06
7.17679e-07
4.73696e-06
-1.61227e-07
4.772e-06
4.36312e-07
4.75629e-06
4.79636e-07
4.77304e-06
1.86745e-07
4.74338e-06
4.18636e-08
4.75198e-06
3.71266e-07
4.74674e-06
2.09121e-07
4.75417e-06
3.27976e-07
4.75767e-06
5.20819e-07
4.75352e-06
2.78292e-07
4.77482e-06
4.29564e-07
4.77594e-06
4.67194e-07
4.78179e-06
2.90079e-07
4.79506e-06
2.78739e-07
4.78589e-06
2.30696e-07
4.77717e-06
1.29301e-07
4.77757e-06
1.13056e-07
4.77246e-06
1.26797e-07
1.17015e-07
4.76342e-06
5.00093e-06
6.85546e-07
4.96346e-06
-1.23755e-07
4.99944e-06
4.00328e-07
4.98398e-06
4.95103e-07
4.99942e-06
1.71301e-07
4.9724e-06
6.88814e-08
4.97823e-06
3.65437e-07
4.97502e-06
2.12333e-07
4.98145e-06
3.21544e-07
4.98585e-06
5.16422e-07
4.98107e-06
2.83074e-07
5.00233e-06
4.083e-07
5.00481e-06
4.6471e-07
5.00781e-06
2.87077e-07
5.02188e-06
2.64676e-07
5.01466e-06
2.37917e-07
5.00393e-06
1.4003e-07
5.00387e-06
1.13117e-07
5.00161e-06
1.29057e-07
1.25379e-07
4.99324e-06
5.23967e-06
6.52197e-07
5.20095e-06
-8.5036e-08
5.23746e-06
3.63811e-07
5.22281e-06
5.09759e-07
5.23632e-06
1.5779e-07
5.21266e-06
9.25372e-08
5.21541e-06
3.62689e-07
5.21391e-06
2.13829e-07
5.21987e-06
3.15583e-07
5.22483e-06
5.1147e-07
5.21957e-06
2.88336e-07
5.24058e-06
3.87286e-07
5.24464e-06
4.60648e-07
5.24483e-06
2.86884e-07
5.25906e-06
2.50448e-07
5.25436e-06
2.42624e-07
5.24217e-06
1.52218e-07
5.24089e-06
1.14395e-07
5.24083e-06
1.29113e-07
1.31897e-07
5.23432e-06
5.48963e-06
6.17756e-07
5.44997e-06
-4.5376e-08
5.48652e-06
3.27266e-07
5.47333e-06
5.22942e-07
5.48422e-06
1.46898e-07
5.46459e-06
1.12177e-07
5.46417e-06
3.63106e-07
5.46381e-06
2.14183e-07
5.46995e-06
3.09452e-07
5.47519e-06
5.06223e-07
5.46948e-06
2.94046e-07
5.49007e-06
3.66696e-07
5.49594e-06
4.54776e-07
5.49347e-06
2.89359e-07
5.50709e-06
2.36827e-07
5.50543e-06
2.44281e-07
5.49239e-06
1.65264e-07
5.48942e-06
1.17357e-07
5.49068e-06
1.27861e-07
1.35938e-07
5.48664e-06
5.75134e-06
5.82379e-07
5.71111e-06
-5.15074e-09
5.74708e-06
2.91295e-07
5.73611e-06
5.33908e-07
5.74369e-06
1.39318e-07
5.72858e-06
1.27296e-07
5.72521e-06
3.66476e-07
5.72522e-06
2.14173e-07
5.73211e-06
3.02554e-07
5.73759e-06
5.00751e-07
5.73133e-06
3.00299e-07
5.75134e-06
3.46692e-07
5.7592e-06
4.46917e-07
5.75436e-06
2.94198e-07
5.76651e-06
2.24677e-07
5.76829e-06
2.42503e-07
5.7551e-06
1.7845e-07
5.75018e-06
1.22273e-07
5.75198e-06
1.26069e-07
1.37586e-07
5.75033e-06
6.02531e-06
5.46258e-07
5.98497e-06
3.51922e-08
6.01966e-06
2.56606e-07
6.01174e-06
5.4183e-07
6.01533e-06
1.35729e-07
6.00498e-06
1.37644e-07
5.9993e-06
3.72158e-07
5.99873e-06
2.14744e-07
6.00683e-06
2.94451e-07
6.01266e-06
4.9492e-07
6.00572e-06
3.07236e-07
6.02487e-06
3.27544e-07
6.03491e-06
4.36881e-07
6.02819e-06
3.00914e-07
6.038e-06
2.14868e-07
6.04323e-06
2.37269e-07
6.03084e-06
1.9084e-07
6.02384e-06
1.29275e-07
6.02556e-06
1.24345e-07
1.37326e-07
6.02582e-06
6.31213e-06
5.0962e-07
6.27219e-06
7.51313e-08
6.30481e-06
2.23982e-07
6.30079e-06
5.45849e-07
6.29979e-06
1.36726e-07
6.29415e-06
1.43291e-07
6.28715e-06
3.79155e-07
6.28509e-06
2.16804e-07
6.2945e-06
2.85042e-07
6.30106e-06
4.88355e-07
6.29331e-06
3.14986e-07
6.31119e-06
3.09665e-07
6.32351e-06
4.24559e-07
6.31567e-06
3.08756e-07
6.32233e-06
2.08215e-07
6.33063e-06
2.28965e-07
6.3201e-06
2.0137e-07
6.31116e-06
1.38215e-07
6.31216e-06
1.23342e-07
1.35657e-07
6.31383e-06
6.61236e-06
4.72729e-07
6.57341e-06
1.14084e-07
6.60312e-06
1.94276e-07
6.60386e-06
5.45107e-07
6.59785e-06
1.42731e-07
6.59647e-06
1.44676e-07
6.58935e-06
3.86269e-07
6.58504e-06
2.21121e-07
6.5956e-06
2.74475e-07
6.60335e-06
4.80603e-07
6.59476e-06
3.23576e-07
6.61087e-06
2.93556e-07
6.62549e-06
4.09943e-07
6.61742e-06
3.16825e-07
6.62046e-06
2.05179e-07
6.63088e-06
2.18542e-07
6.62334e-06
2.08913e-07
6.61285e-06
1.48698e-07
6.61255e-06
1.23647e-07
1.33018e-07
6.61519e-06
6.92664e-06
4.3588e-07
6.88931e-06
1.51411e-07
6.91522e-06
1.6837e-07
6.92148e-06
5.38845e-07
6.91036e-06
1.53849e-07
6.91224e-06
1.42795e-07
6.90637e-06
3.92144e-07
6.89926e-06
2.28228e-07
6.91059e-06
2.63143e-07
6.92e-06
4.712e-07
6.91071e-06
3.32865e-07
6.92452e-06
2.79743e-07
6.94128e-06
3.93186e-07
6.93397e-06
3.24131e-07
6.93337e-06
2.05777e-07
6.94464e-06
2.07277e-07
6.94085e-06
2.12699e-07
6.92968e-06
1.59867e-07
6.92751e-06
1.25821e-07
1.29867e-07
6.93066e-06
7.25562e-06
3.99399e-07
7.22057e-06
1.86463e-07
7.24181e-06
1.47126e-07
7.25412e-06
5.26535e-07
7.23813e-06
1.69842e-07
7.24202e-06
1.389e-07
7.23872e-06
3.95445e-07
7.2287e-06
2.38252e-07
7.24008e-06
2.51759e-07
7.25148e-06
4.598e-07
7.24181e-06
3.42537e-07
7.25283e-06
2.6872e-07
7.27133e-06
3.74686e-07
7.26584e-06
3.29629e-07
7.26198e-06
2.09633e-07
7.2727e-06
1.96554e-07
7.27296e-06
2.12437e-07
7.26225e-06
1.70577e-07
7.258e-06
1.30076e-07
1.26886e-07
7.26098e-06
7.59999e-06
3.63633e-07
7.56787e-06
2.18582e-07
7.5837e-06
1.31297e-07
7.60223e-06
5.08007e-07
7.5821e-06
1.89968e-07
7.58662e-06
1.34383e-07
7.58689e-06
3.95172e-07
7.57429e-06
2.50851e-07
7.58479e-06
2.41264e-07
7.59828e-06
4.46308e-07
7.5888e-06
3.52017e-07
7.59662e-06
2.609e-07
7.61637e-06
3.5494e-07
7.61345e-06
3.32548e-07
7.60713e-06
2.15948e-07
7.6161e-06
1.87583e-07
7.62005e-06
2.0849e-07
7.61101e-06
1.79616e-07
7.60494e-06
1.36144e-07
1.2488e-07
7.60695e-06
7.96049e-06
3.28952e-07
7.93195e-06
2.47127e-07
7.94201e-06
1.21237e-07
7.96617e-06
4.83844e-07
7.94379e-06
2.12352e-07
7.94733e-06
1.30837e-07
7.95182e-06
3.90684e-07
7.9374e-06
2.65267e-07
7.94552e-06
2.33148e-07
7.96084e-06
4.30986e-07
7.95239e-06
3.60472e-07
7.95691e-06
2.56379e-07
7.97718e-06
3.34672e-07
7.97734e-06
3.32384e-07
7.96956e-06
2.23724e-07
7.97596e-06
1.81192e-07
7.98275e-06
2.01696e-07
7.9763e-06
1.86065e-07
7.96919e-06
1.4325e-07
1.24493e-07
7.96958e-06
8.33791e-06
2.95723e-07
8.31353e-06
2.71506e-07
8.31792e-06
1.16845e-07
8.3465e-06
4.55269e-07
8.32456e-06
2.34285e-07
8.32631e-06
1.29095e-07
8.33424e-06
3.82749e-07
8.31789e-06
2.8162e-07
8.32248e-06
2.28552e-07
8.33977e-06
4.13701e-07
8.33338e-06
3.6686e-07
8.33479e-06
2.54974e-07
8.35474e-06
3.14719e-07
8.35813e-06
3.28996e-07
8.34998e-06
2.31872e-07
8.35339e-06
1.77778e-07
8.3619e-06
1.93194e-07
8.35855e-06
1.89408e-07
8.35138e-06
1.50419e-07
1.25853e-07
8.35002e-06
8.73307e-06
2.64312e-07
8.71339e-06
2.91186e-07
8.7125e-06
1.1774e-07
8.74432e-06
4.23443e-07
8.7228e-06
2.55815e-07
8.71725e-06
1.34637e-07
8.72934e-06
3.70662e-07
8.71564e-06
2.95317e-07
8.71712e-06
2.27076e-07
8.73602e-06
3.94801e-07
8.73243e-06
3.70446e-07
8.73135e-06
2.56058e-07
8.75008e-06
2.95986e-07
8.75659e-06
3.22485e-07
8.74911e-06
2.3936e-07
8.74956e-06
1.77324e-07
8.75852e-06
1.84235e-07
8.75843e-06
1.89494e-07
8.75196e-06
1.56889e-07
1.28521e-07
8.7493e-06
9.14685e-06
2.35076e-07
9.13241e-06
3.05626e-07
9.1264e-06
1.23759e-07
9.15943e-06
3.90407e-07
9.13985e-06
2.75393e-07
9.12958e-06
1.44907e-07
9.14496e-06
3.55289e-07
9.13392e-06
3.06353e-07
9.13169e-06
2.2931e-07
9.15069e-06
3.75798e-07
9.15036e-06
3.7078e-07
9.1475e-06
2.58916e-07
9.1643e-06
2.79184e-07
9.17356e-06
3.13225e-07
9.16755e-06
2.45373e-07
9.16546e-06
1.79412e-07
9.17371e-06
1.75986e-07
9.17663e-06
1.86575e-07
9.17153e-06
1.61982e-07
1.319e-07
9.16815e-06
9.58021e-06
2.0833e-07
9.57137e-06
3.14467e-07
9.56086e-06
1.34265e-07
9.59426e-06
3.57006e-07
9.57889e-06
2.90764e-07
9.56378e-06
1.60017e-07
9.57951e-06
3.39559e-07
9.57213e-06
3.13733e-07
9.56725e-06
2.34192e-07
9.58518e-06
3.57866e-07
9.58795e-06
3.68011e-07
9.5841e-06
2.62762e-07
9.59848e-06
2.64807e-07
9.60994e-06
3.01767e-07
9.60599e-06
2.49324e-07
9.60218e-06
1.83219e-07
9.60873e-06
1.69434e-07
9.61405e-06
1.81257e-07
9.6109e-06
1.65135e-07
1.35552e-07
9.60725e-06
1.00341e-05
1.84324e-07
1.00311e-05
3.17505e-07
1.0017e-05
1.4835e-07
1.00492e-05
3.24827e-07
1.00394e-05
3.0058e-07
1.00206e-05
1.78798e-07
1.00345e-05
3.2565e-07
1.00308e-05
3.17481e-07
1.00246e-05
2.4033e-07
1.00408e-05
3.4167e-07
1.00462e-05
3.62658e-07
1.00422e-05
2.66757e-07
1.00538e-05
2.53136e-07
1.00667e-05
2.8888e-07
1.00652e-05
2.50886e-07
1.00606e-05
1.87792e-07
1.00649e-05
1.65121e-07
1.00716e-05
1.74538e-07
1.00708e-05
1.6592e-07
1.39058e-07
1.00673e-05
1.05097e-05
1.63234e-07
1.05126e-05
3.14663e-07
1.04959e-05
1.65063e-07
1.05252e-05
2.95473e-07
1.05219e-05
3.03896e-07
1.05009e-05
1.99768e-07
1.05114e-05
3.15198e-07
1.05107e-05
3.18129e-07
1.05045e-05
2.46521e-07
1.05187e-05
3.27505e-07
1.05261e-05
3.55305e-07
1.05225e-05
2.70331e-07
1.05315e-05
2.4408e-07
1.0545e-05
2.75399e-07
1.0546e-05
2.49927e-07
1.05415e-05
1.92293e-07
1.05436e-05
1.62986e-07
1.05506e-05
1.67573e-07
1.05522e-05
1.64293e-07
1.41856e-07
1.05494e-05
1.10081e-05
1.45129e-07
1.10166e-05
3.06217e-07
1.09985e-05
1.83112e-07
1.10234e-05
2.70633e-07
1.10265e-05
3.00768e-07
1.10054e-05
2.20903e-07
1.10116e-05
3.08908e-07
1.1013e-05
3.16743e-07
1.10076e-05
2.5193e-07
1.102e-05
3.15167e-07
1.10287e-05
3.46526e-07
1.1026e-05
2.7311e-07
1.10327e-05
2.37357e-07
1.1046e-05
2.62073e-07
1.10493e-05
2.46617e-07
1.10456e-05
1.95998e-07
1.1046e-05
1.62591e-07
1.10523e-05
1.61316e-07
1.10559e-05
1.6068e-07
1.43363e-07
1.10544e-05
1.15306e-05
1.29933e-07
1.15438e-05
2.92941e-07
1.15261e-05
2.0084e-07
1.15449e-05
2.51879e-07
1.15538e-05
2.9185e-07
1.15346e-05
2.40076e-07
1.15367e-05
3.0677e-07
1.15389e-05
3.14636e-07
1.15347e-05
2.56087e-07
1.15456e-05
3.04253e-07
1.15554e-05
3.3675e-07
1.15536e-05
2.74854e-07
1.15583e-05
2.32653e-07
1.1571e-05
2.49444e-07
1.15763e-05
2.41318e-07
1.15738e-05
1.98422e-07
1.15732e-05
1.63283e-07
1.15782e-05
1.56271e-07
1.1583e-05
1.55898e-07
1.43229e-07
1.15831e-05
1.20783e-05
1.17447e-07
1.20953e-05
2.75941e-07
1.20796e-05
2.16563e-07
1.20915e-05
2.39973e-07
1.21045e-05
2.7884e-07
1.20893e-05
2.55254e-07
1.20879e-05
3.08172e-07
1.20897e-05
3.12885e-07
1.20868e-05
2.58977e-07
1.20967e-05
2.94383e-07
1.21072e-05
3.2623e-07
1.21066e-05
2.75407e-07
1.21097e-05
2.29566e-07
1.21212e-05
2.37921e-07
1.2128e-05
2.34524e-07
1.21272e-05
1.99273e-07
1.2126e-05
1.64439e-07
1.21298e-05
1.52518e-07
1.21349e-05
1.50762e-07
1.41527e-07
1.21366e-05
1.26527e-05
1.07343e-07
1.26718e-05
2.56887e-07
1.26593e-05
2.29061e-07
1.26648e-05
2.34425e-07
1.26795e-05
2.64183e-07
1.26699e-05
2.64788e-07
1.26663e-05
3.11769e-07
1.26671e-05
3.12103e-07
1.2665e-05
2.61043e-07
1.26741e-05
2.85278e-07
1.26853e-05
3.15068e-07
1.2686e-05
2.74676e-07
1.2688e-05
2.27619e-07
1.2698e-05
2.27867e-07
1.27059e-05
2.26669e-07
1.27067e-05
1.98514e-07
1.27056e-05
1.65502e-07
1.27082e-05
1.49895e-07
1.27132e-05
1.45809e-07
1.38656e-07
1.2716e-05
1.32551e-05
9.92141e-08
1.32737e-05
2.38208e-07
1.32657e-05
2.37147e-07
1.32661e-05
2.33971e-07
1.32798e-05
2.50455e-07
1.32765e-05
2.68081e-07
1.3273e-05
3.15274e-07
1.32727e-05
3.12484e-07
1.32709e-05
2.62841e-07
1.32793e-05
2.76801e-07
1.32909e-05
3.03468e-07
1.32931e-05
2.72466e-07
1.32944e-05
2.26399e-07
1.33028e-05
2.19397e-07
1.33112e-05
2.18276e-07
1.33135e-05
1.96233e-07
1.3313e-05
1.66005e-07
1.33148e-05
1.48121e-07
1.33193e-05
1.41331e-07
1.35074e-07
1.33228e-05
1.38868e-05
9.25919e-08
1.39049e-05
2.20077e-07
1.39009e-05
2.41155e-07
1.38974e-05
2.37444e-07
1.39071e-05
2.40838e-07
1.39098e-05
2.6535e-07
1.39088e-05
3.16226e-07
1.39077e-05
3.13608e-07
1.39058e-05
2.64721e-07
1.39135e-05
2.69117e-07
1.39253e-05
2.91646e-07
1.39292e-05
2.68644e-07
1.39301e-05
2.25448e-07
1.3937e-05
2.12468e-07
1.39454e-05
2.09882e-07
1.39491e-05
1.92567e-07
1.39494e-05
1.65691e-07
1.39507e-05
1.4681e-07
1.39546e-05
1.37465e-07
1.31151e-07
1.39585e-05
1.45492e-05
8.70957e-08
1.45649e-05
2.04368e-07
1.45652e-05
2.40866e-07
1.45606e-05
2.42039e-07
1.45649e-05
2.36475e-07
1.45712e-05
2.59038e-07
1.45744e-05
3.13109e-07
1.45737e-05
3.14313e-07
1.45715e-05
2.66854e-07
1.4578e-05
2.62596e-07
1.459e-05
2.79721e-07
1.45953e-05
2.63355e-07
1.45965e-05
2.24172e-07
1.46021e-05
2.06923e-07
1.46101e-05
2.019e-07
1.46147e-05
1.87882e-07
1.46161e-05
1.64336e-07
1.46173e-05
1.45616e-07
1.46205e-05
1.3421e-07
1.27134e-07
1.46246e-05
1.52436e-05
8.23896e-08
1.52571e-05
1.90829e-07
1.52603e-05
2.37659e-07
1.52564e-05
2.45987e-07
1.5257e-05
2.3587e-07
1.52634e-05
2.52638e-07
1.52706e-05
3.05912e-07
1.52717e-05
3.13211e-07
1.52694e-05
2.69139e-07
1.52746e-05
2.57383e-07
1.52862e-05
2.68122e-07
1.52928e-05
2.56743e-07
1.52948e-05
2.22194e-07
1.52994e-05
2.02341e-07
1.53067e-05
1.94591e-07
1.5312e-05
1.82579e-07
1.53144e-05
1.61936e-07
1.53159e-05
1.4414e-07
1.53186e-05
1.31506e-07
1.23242e-07
1.53225e-05
1.59715e-05
7.82511e-08
1.59827e-05
1.79623e-07
1.5988e-05
2.32336e-07
1.59858e-05
2.48224e-07
1.59843e-05
2.37367e-07
1.5989e-05
2.4793e-07
1.5999e-05
2.95868e-07
1.60028e-05
3.09463e-07
1.6001e-05
2.70926e-07
1.6005e-05
2.53363e-07
1.60156e-05
2.57472e-07
1.60234e-05
2.48957e-07
1.60263e-05
2.19301e-07
1.60304e-05
1.98291e-07
1.6037e-05
1.87988e-07
1.60425e-05
1.77034e-07
1.60457e-05
1.58721e-07
1.60478e-05
1.42034e-07
1.60502e-05
1.29123e-07
1.1967e-07
1.60538e-05
1.67343e-05
7.45706e-08
1.67427e-05
1.71215e-07
1.67497e-05
2.25375e-07
1.67499e-05
2.47996e-07
1.67478e-05
2.39457e-07
1.67505e-05
2.4522e-07
1.67615e-05
2.8484e-07
1.6768e-05
3.02967e-07
1.67677e-05
2.7128e-07
1.67707e-05
2.50325e-07
1.67801e-05
2.48087e-07
1.67886e-05
2.40479e-07
1.67926e-05
2.1528e-07
1.67964e-05
1.94442e-07
1.68025e-05
1.81954e-07
1.68081e-05
1.71451e-07
1.68118e-05
1.54983e-07
1.68146e-05
1.39238e-07
1.68171e-05
1.26624e-07
1.16529e-07
1.68202e-05
1.75337e-05
7.12555e-08
1.75411e-05
1.63816e-07
1.75481e-05
2.18309e-07
1.75503e-05
2.4583e-07
1.75486e-05
2.41117e-07
1.75499e-05
2.43967e-07
1.75602e-05
2.74542e-07
1.7569e-05
2.94145e-07
1.75708e-05
2.69545e-07
1.75733e-05
2.47777e-07
1.75815e-05
2.39894e-07
1.759e-05
2.31998e-07
1.75951e-05
2.10107e-07
1.75991e-05
1.90466e-07
1.76047e-05
1.7638e-07
1.76103e-05
1.65817e-07
1.76143e-05
1.5099e-07
1.76176e-05
1.35947e-07
1.76206e-05
1.23679e-07
1.13664e-07
1.76234e-05
1.83713e-05
6.82719e-08
1.83779e-05
1.57294e-07
1.83849e-05
2.11223e-07
1.83887e-05
2.42117e-07
1.83882e-05
2.41604e-07
1.83887e-05
2.43477e-07
1.83975e-05
2.65724e-07
1.84076e-05
2.83967e-07
1.84115e-05
2.65657e-07
1.84144e-05
2.44884e-07
1.84215e-05
2.32818e-07
1.84297e-05
2.23827e-07
1.84356e-05
2.042e-07
1.84401e-05
1.85955e-07
1.84453e-05
1.71186e-07
1.8451e-05
1.60123e-07
1.84553e-05
1.46689e-07
1.84587e-05
1.325e-07
1.84622e-05
1.20212e-07
1.10726e-07
1.84651e-05
1.92491e-05
6.55776e-08
1.92551e-05
1.51323e-07
1.9262e-05
2.04285e-07
1.92668e-05
2.37309e-07
1.92678e-05
2.40656e-07
1.92682e-05
2.43074e-07
1.92756e-05
2.5827e-07
1.9286e-05
2.73587e-07
1.92918e-05
2.59889e-07
1.92956e-05
2.40998e-07
1.93019e-05
2.2657e-07
1.93097e-05
2.16036e-07
1.93159e-05
1.97999e-07
1.9321e-05
1.80847e-07
1.93261e-05
1.66047e-07
1.93317e-05
1.5457e-07
1.93365e-05
1.41912e-07
1.934e-05
1.28971e-07
1.93437e-05
1.16505e-07
1.07404e-07
1.9347e-05
2.01689e-05
6.31266e-08