/*--------------------------------*- C++ -*----------------------------------*\
| =========                 |                                                 |
| \\      /  F ield         | OpenFOAM: The Open Source CFD Toolbox           |
|  \\    /   O peration     | Version:  v1812                                 |
|   \\  /    A nd           | Web:      www.OpenFOAM.com                      |
|    \\/     M anipulation  |                                                 |
\*---------------------------------------------------------------------------*/
FoamFile
{
    version     2.0;
    format      ascii;
    class       volVectorField;
    location    "4.2";
    object      U;
}
// * * * * * * * * * * * * * * * * * * * * * * * * * * * * * * * * * * * * * //

dimensions      [0 1 -1 0 0 0 0];


internalField   nonuniform List<vector> 
9600
(
(0.902956 0.0142307 0)
(1.17395 -0.0133041 0)
(0.747849 0.00816758 0)
(1.18913 0.0138879 0)
(0.90747 0.000959678 0)
(1.03044 -0.0188825 0)
(0.816561 0.0202843 0)
(1.21963 -0.000620115 0)
(0.712079 0.00826303 0)
(1.229 0.0134017 0)
(0.727179 -0.000920867 0)
(1.14354 0.0185031 0)
(0.834927 0.0128422 0)
(1.08238 0.0219533 0)
(0.860235 0.0123701 0)
(1.06912 0.0103453 0)
(0.874065 0.00199744 0)
(1.07634 -0.00517292 0)
(0.858899 -0.000514246 0)
(1.0804 -0.0156119 0)
(0.905662 0.0136967 0)
(1.16518 -0.011849 0)
(0.752492 0.00805779 0)
(1.1785 0.012891 0)
(0.918036 0.00252872 0)
(1.02628 -0.0176832 0)
(0.820585 0.0183509 0)
(1.20894 0.00123284 0)
(0.720962 0.00795091 0)
(1.2143 0.0136529 0)
(0.753343 -5.27624e-05 0)
(1.12646 0.0175336 0)
(0.870704 0.0135483 0)
(1.05397 0.0219392 0)
(0.910577 0.0127138 0)
(1.01998 0.0100864 0)
(0.945145 0.00186118 0)
(1.00097 -0.00537504 0)
(0.959625 0.000276096 0)
(0.970634 -0.0171267 0)
(0.911193 0.0131248 0)
(1.15234 -0.0105857 0)
(0.766858 0.00763603 0)
(1.15416 0.0117096 0)
(0.936219 0.00364023 0)
(1.01778 -0.0166234 0)
(0.832069 0.0158934 0)
(1.1871 0.00255762 0)
(0.75043 0.00730369 0)
(1.1765 0.0137017 0)
(0.809276 0.000910651 0)
(1.08103 0.0157852 0)
(0.922414 0.0147174 0)
(1.01504 0.0213978 0)
(0.951248 0.0132828 0)
(0.986427 0.00935708 0)
(0.971727 0.00233921 0)
(0.977611 -0.00544463 0)
(0.974826 0.000311183 0)
(0.969973 -0.0136898 0)
(0.919409 0.0126507 0)
(1.13562 -0.00942199 0)
(0.792645 0.00734274 0)
(1.1182 0.0105152 0)
(0.959537 0.00462649 0)
(1.00682 -0.0154997 0)
(0.852244 0.0139064 0)
(1.15387 0.00365683 0)
(0.800835 0.00707304 0)
(1.12097 0.0131509 0)
(0.877567 0.00213498 0)
(1.02562 0.0141261 0)
(0.955519 0.0155423 0)
(0.988198 0.0209604 0)
(0.965075 0.0136816 0)
(0.974299 0.00892879 0)
(0.974402 0.00254003 0)
(0.974636 -0.00567685 0)
(0.974298 0.000667689 0)
(0.9732 -0.0122855 0)
(0.929863 0.0122427 0)
(1.1157 -0.0084053 0)
(0.827649 0.00734808 0)
(1.07671 0.00928817 0)
(0.982883 0.00542832 0)
(0.997435 -0.0143118 0)
(0.87808 0.0123262 0)
(1.11348 0.00428865 0)
(0.859673 0.00736713 0)
(1.06509 0.0122259 0)
(0.933948 0.00344795 0)
(0.984623 0.0131267 0)
(0.96465 0.0158772 0)
(0.974419 0.0208579 0)
(0.967873 0.0139487 0)
(0.971474 0.00864518 0)
(0.975439 0.00254616 0)
(0.976104 -0.00573967 0)
(0.976302 0.000637007 0)
(0.976025 -0.0112516 0)
(0.941719 0.0118897 0)
(1.09418 -0.0075757 0)
(0.866689 0.00760564 0)
(1.03829 0.00808618 0)
(1.00092 0.00596162 0)
(0.993177 -0.0131356 0)
(0.903691 0.011096 0)
(1.07352 0.00445312 0)
(0.911832 0.00792689 0)
(1.02463 0.0113348 0)
(0.96865 0.00458315 0)
(0.965928 0.0129075 0)
(0.962941 0.0159527 0)
(0.967954 0.0207682 0)
(0.970028 0.0140382 0)
(0.973765 0.00832411 0)
(0.978848 0.0024826 0)
(0.980051 -0.00579119 0)
(0.980132 0.000534457 0)
(0.980109 -0.0101253 0)
(0.953865 0.0115998 0)
(1.07317 -0.00695167 0)
(0.903864 0.00802391 0)
(1.01021 0.00701559 0)
(1.01111 0.00619675 0)
(0.99459 -0.0120312 0)
(0.924343 0.0102903 0)
(1.04123 0.00425008 0)
(0.948967 0.0084706 0)
(1.0034 0.0106984 0)
(0.985559 0.00545072 0)
(0.962743 0.0132141 0)
(0.961438 0.0159442 0)
(0.966181 0.0204936 0)
(0.973496 0.0139168 0)
(0.978972 0.00793386 0)
(0.984103 0.00237747 0)
(0.985199 -0.0058125 0)
(0.98459 0.000397396 0)
(0.984407 -0.0089304 0)
(0.965216 0.0113724 0)
(1.05456 -0.00651936 0)
(0.934933 0.0085131 0)
(0.995079 0.00615917 0)
(1.01438 0.00617334 0)
(0.999102 -0.0110206 0)
(0.939068 0.00988216 0)
(1.02013 0.00381172 0)
(0.970784 0.00886488 0)
(0.995573 0.0103258 0)
(0.992598 0.00611449 0)
(0.966034 0.013724 0)
(0.963342 0.0159377 0)
(0.968178 0.0200823 0)
(0.978168 0.0136373 0)
(0.985108 0.00747636 0)
(0.990099 0.00226306 0)
(0.990627 -0.00574461 0)
(0.989125 0.000281269 0)
(0.988389 -0.0076991 0)
(0.975004 0.0111959 0)
(1.03938 -0.00623718 0)
(0.958305 0.00898179 0)
(0.990687 0.00553792 0)
(1.01364 0.00598261 0)
(1.00331 -0.0101116 0)
(0.949867 0.0097508 0)
(1.00938 0.00327949 0)
(0.981553 0.00911695 0)
(0.993823 0.0101281 0)
(0.995659 0.00664745 0)
(0.970907 0.0142555 0)
(0.967905 0.015957 0)
(0.972997 0.0196067 0)
(0.983949 0.0132625 0)
(0.991371 0.00699325 0)
(0.995968 0.00215294 0)
(0.995816 -0.00557626 0)
(0.99344 0.000191576 0)
(0.99202 -0.00644601 0)
(0.982897 0.0110558 0)
(1.0278 -0.00605667 0)
(0.974533 0.00935763 0)
(0.99262 0.00512396 0)
(1.01174 0.00573272 0)
(1.00519 -0.00931206 0)
(0.959159 0.00976471 0)
(1.0056 0.00275678 0)
(0.986367 0.00928527 0)
(0.9939 0.0100152 0)
(0.997519 0.00707788 0)
(0.975954 0.0147421 0)
(0.974014 0.0159675 0)
(0.979669 0.0190837 0)
(0.990574 0.0128594 0)
(0.997559 0.00653034 0)
(1.0013 0.00204696 0)
(1.00039 -0.00530274 0)
(0.997296 0.000117886 0)
(0.995261 -0.00519801 0)
(0.988924 0.0109397 0)
(1.01936 -0.005938 0)
(0.985191 0.00961017 0)
(0.996928 0.00486488 0)
(1.01032 0.00550314 0)
(1.00468 -0.00862398 0)
(0.968061 0.00981736 0)
(1.00528 0.0023061 0)
(0.988927 0.00942055 0)
(0.994477 0.00993859 0)
(0.999061 0.00740915 0)
(0.980989 0.0151471 0)
(0.980863 0.015918 0)
(0.987218 0.0185317 0)
(0.997431 0.01247 0)
(1.00334 0.00612389 0)
(1.00586 0.0019723 0)
(1.00411 -0.00491953 0)
(1.00048 8.79567e-05 0)
(0.997989 -0.00399482 0)
(0.993318 0.0108377 0)
(1.01346 -0.00585243 0)
(0.99194 0.00974251 0)
(1.00122 0.00471044 0)
(1.00977 0.00533596 0)
(1.00281 -0.00804135 0)
(0.976383 0.0098435 0)
(1.00608 0.0019504 0)
(0.990998 0.00953971 0)
(0.995417 0.00988755 0)
(1.00049 0.00764379 0)
(0.98586 0.0154398 0)
(0.987696 0.0157887 0)
(0.994613 0.0179771 0)
(1.00374 0.0121094 0)
(1.00825 0.00580822 0)
(1.00944 0.00195528 0)
(1.00687 -0.00444663 0)
(1.00288 0.00011835 0)
(1.00011 -0.0028653 0)
(0.996377 0.0107424 0)
(1.0095 -0.00578045 0)
(0.996086 0.00977333 0)
(1.0045 0.00462455 0)
(1.0099 0.00523842 0)
(1.0007 -0.00754751 0)
(0.983491 0.00981954 0)
(1.00691 0.00168609 0)
(0.992952 0.00963848 0)
(0.996638 0.00987038 0)
(1.00185 0.00778626 0)
(0.990279 0.0156172 0)
(0.993812 0.015586 0)
(1.00099 0.0174326 0)
(1.00887 0.0117938 0)
(1.01198 0.00560068 0)
(1.01197 0.00200945 0)
(1.00871 -0.00391411 0)
(1.00452 0.000192098 0)
(1.00161 -0.00181186 0)
(0.998392 0.0106481 0)
(1.00701 -0.00570959 0)
(0.998531 0.00972739 0)
(1.00656 0.00457943 0)
(1.01034 0.00519701 0)
(0.999019 -0.00712123 0)
(0.989005 0.00974338 0)
(1.00741 0.00150297 0)
(0.994606 0.00970663 0)
(0.997898 0.00989187 0)
(1.00312 0.007843 0)
(0.993964 0.0156987 0)
(0.998737 0.0153219 0)
(1.00589 0.0169111 0)
(1.01256 0.0115352 0)
(1.01447 0.00548827 0)
(1.01352 0.00213225 0)
(1.00979 -0.00334839 0)
(1.00557 0.000312614 0)
(1.00261 -0.000832666 0)
(0.999623 0.0105503 0)
(1.00559 -0.00563157 0)
(0.99988 0.00962742 0)
(1.00754 0.00455788 0)
(1.01086 0.00518855 0)
(0.997971 -0.00673778 0)
(0.992966 0.00962474 0)
(1.00754 0.00138951 0)
(0.995776 0.00973617 0)
(0.998962 0.00994413 0)
(1.00422 0.00783053 0)
(0.996759 0.0157039 0)
(1.0023 0.0150158 0)
(1.00922 0.0164186 0)
(1.01488 0.0113396 0)
(1.0159 0.0054424 0)
(1.01432 0.00231921 0)
(1.01034 -0.00276756 0)
(1.0062 0.000488654 0)
(1.00325 6.06574e-05 0)
(1.00029 0.0104453 0)
(1.00492 -0.00554142 0)
(1.00055 0.00949206 0)
(1.00774 0.00454998 0)
(1.0113 0.00519035 0)
(0.997486 -0.00637586 0)
(0.995665 0.00947713 0)
(1.00736 0.00133549 0)
(0.996454 0.0097213 0)
(0.999725 0.0100194 0)
(1.00509 0.00776449 0)
(0.998673 0.0156577 0)
(1.00459 0.0146876 0)
(1.0112 0.0159514 0)
(1.01609 0.0111899 0)
(1.01652 0.00543978 0)
(1.0146 0.00257494 0)
(1.01055 -0.0021787 0)
(1.0066 0.000695555 0)
(1.00368 0.000864423 0)
(1.00059 0.0103307 0)
(1.0047 -0.00543655 0)
(1.00085 0.00933464 0)
(1.00745 0.00455151 0)
(1.01161 0.00518453 0)
(0.997406 -0.00602 0)
(0.997437 0.00931209 0)
(1.00702 0.00133444 0)
(0.996763 0.00965724 0)
(1.00019 0.0101147 0)
(1.00572 0.00765439 0)
(0.999854 0.0155851 0)
(1.00586 0.0143528 0)
(1.01215 0.0154993 0)
(1.01649 0.0110737 0)
(1.01661 0.00545536 0)
(1.01455 0.00287715 0)
(1.01056 -0.00158159 0)
(1.00689 0.000908314 0)
(1.004 0.00160316 0)
(1.00065 0.0102049 0)
(1.00474 -0.00531555 0)
(1.00097 0.00916306 0)
(1.00695 0.00456189 0)
(1.01176 0.00515838 0)
(0.997577 -0.00565766 0)
(0.998554 0.00913321 0)
(1.00664 0.00138502 0)
(0.996859 0.00954585 0)
(1.00042 0.0102255 0)
(1.00615 0.00751362 0)
(1.00052 0.0154964 0)
(1.00643 0.014028 0)
(1.01242 0.0150426 0)
(1.01638 0.0109989 0)
(1.01636 0.00546604 0)
(1.01431 0.00319827 0)
(1.01048 -0.000969324 0)
(1.00712 0.00110534 0)
(1.00428 0.00229012 0)
(1.00057 0.010067 0)
(1.00489 -0.0051773 0)
(1.00102 0.00898038 0)
(1.00639 0.00458262 0)
(1.01177 0.00510485 0)
(0.997878 -0.00528136 0)
(0.999215 0.00894439 0)
(1.00631 0.00148151 0)
(0.996872 0.0093908 0)
(1.00047 0.0103504 0)
(1.00646 0.00735138 0)
(1.00089 0.0153941 0)
(1.00656 0.0137251 0)
(1.01231 0.0145727 0)
(1.01595 0.0109637 0)
(1.01593 0.00546007 0)
(1.01396 0.00350895 0)
(1.01033 -0.000338863 0)
(1.00733 0.00128154 0)
(1.00454 0.00290938 0)
(1.00044 0.0099165 0)
(1.00507 -0.00502164 0)
(1.00106 0.00878684 0)
(1.00589 0.00461644 0)
(1.01167 0.00502036 0)
(0.998223 -0.0048867 0)
(0.999569 0.00874854 0)
(1.00604 0.00161469 0)
(0.996879 0.00919778 0)
(1.00041 0.010487 0)
(1.00669 0.00717732 0)
(1.00114 0.0152749 0)
(1.00647 0.0134553 0)
(1.01202 0.0140777 0)
(1.01537 0.0109663 0)
(1.01541 0.00544528 0)
(1.01355 0.00378512 0)
(1.01016 0.000319167 0)
(1.00753 0.00144384 0)
(1.00481 0.00343847 0)
(1.00028 0.0097535 0)
(1.00522 -0.00484841 0)
(1.0011 0.00858131 0)
(1.00548 0.00466473 0)
(1.01148 0.00490738 0)
(0.998557 -0.00447124 0)
(0.99973 0.008541 0)
(1.00584 0.0017831 0)
(0.996918 0.00897163 0)
(1.0003 0.0106296 0)
(1.00686 0.00699902 0)
(1.00135 0.0151302 0)
(1.00629 0.0132345 0)
(1.01168 0.0135476 0)
(1.01474 0.0109901 0)
(1.01488 0.00544715 0)
(1.01314 0.0040196 0)
(1.00998 0.00101549 0)
(1.00771 0.00160328 0)
(1.00511 0.00385787 0)
(1.00014 0.00957753 0)
(1.00535 -0.00465598 0)
(1.00113 0.00835972 0)
(1.0052 0.0047313 0)
(1.01124 0.00476475 0)
(0.998849 -0.0040305 0)
(0.999784 0.00831827 0)
(1.00571 0.00197921 0)
(0.996999 0.0087198 0)
(1.00017 0.0107755 0)
(1.00698 0.00682005 0)
(1.00157 0.0149478 0)
(1.00607 0.0130697 0)
(1.01139 0.0129872 0)
(1.01411 0.0110299 0)
(1.01437 0.00547448 0)
(1.01275 0.00417798 0)
(1.00979 0.00173021 0)
(1.00786 0.00178839 0)
(1.00543 0.00415472 0)
(1.00002 0.0093886 0)
(1.00543 -0.00444423 0)
(1.00116 0.00811997 0)
(1.00502 0.00481749 0)
(1.01096 0.0045943 0)
(0.999092 -0.00356584 0)
(0.999791 0.00808213 0)
(1.00565 0.00219336 0)
(0.997121 0.00844885 0)
(1.00006 0.0109195 0)
(1.00706 0.00665794 0)
(1.00181 0.0147172 0)
(1.00585 0.0129597 0)
(1.01116 0.0124059 0)
(1.01353 0.0110603 0)
(1.0139 0.00555707 0)
(1.0124 0.00425705 0)
(1.00962 0.00243304 0)
(1.00799 0.0020293 0)
(1.00578 0.00431656 0)
(0.999927 0.00918626 0)
(1.00549 -0.00421079 0)
(1.00119 0.00785818 0)
(1.00492 0.00492349 0)
(1.01067 0.00440346 0)
(0.999293 -0.00308592 0)
(0.999784 0.00784007 0)
(1.00565 0.00242322 0)
(0.997278 0.00816377 0)
(0.999976 0.011054 0)
(1.00711 0.00652099 0)
(1.00206 0.0144361 0)
(1.00564 0.0129031 0)
(1.011 0.0118169 0)
(1.01301 0.0110531 0)
(1.01345 0.00570637 0)
(1.01209 0.00427682 0)
(1.00947 0.00309319 0)
(1.00807 0.00235791 0)
(1.00615 0.00435732 0)
(0.999851 0.00896964 0)
(1.00552 -0.00395517 0)
(1.00122 0.00757394 0)
(1.00485 0.00504776 0)
(1.01037 0.00419419 0)
(0.999464 -0.00258897 0)
(0.99978 0.00758917 0)
(1.00567 0.00266212 0)
(0.997463 0.00787957 0)
(0.999908 0.0111705 0)
(1.00714 0.00640921 0)
(1.00232 0.014101 0)
(1.00543 0.0128899 0)
(1.01089 0.0112331 0)
(1.01255 0.0110085 0)
(1.01302 0.00592238 0)
(1.01184 0.0042378 0)
(1.00935 0.00367621 0)
(1.00811 0.00280425 0)
(1.00654 0.00432871 0)
(0.999796 0.00873931 0)
(1.00553 -0.00367832 0)
(1.00127 0.00726689 0)
(1.0048 0.00519054 0)
(1.01007 0.00396818 0)
(0.999616 -0.00207702 0)
(0.999788 0.00732939 0)
(1.00571 0.00289991 0)
(0.997673 0.00760153 0)
(0.999851 0.0112663 0)
(1.00715 0.00633414 0)
(1.00259 0.0137088 0)
(1.00521 0.012908 0)
(1.01079 0.0106738 0)
(1.01215 0.0109114 0)
(1.01258 0.00622351 0)
(1.01161 0.00418581 0)
(1.00926 0.00415389 0)
(1.0081 0.00335502 0)
(1.00691 0.0042906 0)
(0.99976 0.00849407 0)
(1.00551 -0.00337739 0)
(1.00133 0.00693383 0)
(1.00473 0.00535293 0)
(1.00979 0.00373061 0)
(0.999755 -0.00156446 0)
(0.999814 0.00707411 0)
(1.00575 0.00312806 0)
(0.997909 0.00733572 0)
(0.999802 0.01133 0)
(1.00716 0.00629886 0)
(1.00287 0.0132696 0)
(1.00498 0.0129465 0)
(1.0107 0.0101605 0)
(1.01182 0.0107449 0)
(1.01214 0.00658777 0)
(1.01141 0.00416767 0)
(1.00921 0.00449862 0)
(1.00806 0.00396269 0)
(1.00724 0.00431222 0)
(0.999743 0.00823453 0)
(1.00547 -0.00305542 0)
(1.00142 0.00658014 0)
(1.00464 0.00552944 0)
(1.00952 0.0034839 0)
(0.999884 -0.00104525 0)
(0.999859 0.00682699 0)
(1.00578 0.00333888 0)
(0.998169 0.00709764 0)
(0.999756 0.0113545 0)
(1.00718 0.00630413 0)
(1.00316 0.0127933 0)
(1.00475 0.0129783 0)
(1.01059 0.00971099 0)
(1.01155 0.0104997 0)
(1.01168 0.00698718 0)
(1.01121 0.00420132 0)
(1.00921 0.00470326 0)
(1.008 0.00457463 0)
(1.0075 0.00446152 0)
(0.999743 0.00795961 0)
(1.0054 -0.00270984 0)
(1.00153 0.00620406 0)
(1.00454 0.00571836 0)
(1.00927 0.00323486 0)
(1 -0.000533852 0)
(0.999922 0.00660161 0)
(1.0058 0.00352315 0)
(0.998453 0.00688975 0)
(0.999714 0.0113443 0)
(1.00719 0.00634355 0)
(1.00345 0.0122923 0)
(1.00453 0.0129979 0)
(1.01045 0.00933105 0)
(1.01135 0.010186 0)
(1.01122 0.00740224 0)
(1.01099 0.00432004 0)
(1.00926 0.0047895 0)
(1.00796 0.00512593 0)
(1.00767 0.00476296 0)
(0.999756 0.00767056 0)
(1.0053 -0.00234368 0)
(1.00167 0.00580784 0)
(1.00443 0.00591855 0)
(1.00902 0.00298364 0)
(1.00012 -3.73788e-05 0)
(0.999998 0.00640288 0)
(1.00581 0.00366969 0)
(0.998756 0.00671926 0)
(0.999677 0.0113056 0)
(1.0072 0.0064063 0)
(1.00377 0.0117698 0)
(1.0043 0.0130149 0)
(1.01028 0.0090295 0)
(1.01121 0.00981008 0)
(1.01078 0.0078026 0)
(1.01075 0.00453715 0)
(1.00935 0.00479185 0)
(1.00795 0.00556346 0)
(1.00775 0.00520511 0)
(0.999777 0.00736707 0)
(1.00519 -0.001957 0)
(1.00181 0.0053932 0)
(1.0043 0.00612481 0)
(1.00878 0.00273666 0)
(1.00023 0.000443161 0)
(1.00008 0.00623681 0)
(1.00583 0.00377005 0)
(0.999075 0.00657901 0)
(0.999645 0.0112463 0)
(1.00721 0.00649305 0)
(1.0041 0.0112361 0)
(1.00408 0.0130079 0)
(1.01007 0.00880765 0)
(1.01114 0.00938908 0)
(1.01038 0.00816188 0)
(1.01047 0.00484723 0)
(1.00945 0.00475308 0)
(1.00801 0.00585224 0)
(1.00777 0.00573145 0)
(0.999802 0.00705001 0)
(1.00505 -0.00155272 0)
(1.00197 0.00496459 0)
(1.00417 0.00632957 0)
(1.00855 0.00250869 0)
(1.00034 0.0008833 0)
(1.00015 0.00612437 0)
(1.00583 0.00383059 0)
(0.999407 0.00645358 0)
(0.999619 0.0111588 0)
(1.0072 0.00659433 0)
(1.00444 0.0107049 0)
(1.00388 0.0129647 0)
(1.00982 0.00867149 0)
(1.01111 0.00893135 0)
(1.01002 0.00846408 0)
(1.01014 0.00524707 0)
(1.00955 0.00472289 0)
(1.00814 0.0059821 0)
(1.00775 0.00623465 0)
(0.999829 0.0067205 0)
(1.0049 -0.00113336 0)
(1.00212 0.00452853 0)
(1.00404 0.00652486 0)
(1.00831 0.00230456 0)
(1.00045 0.00127871 0)
(1.00022 0.00606254 0)
(1.00584 0.00385667 0)
(0.99975 0.00633892 0)
(0.999601 0.0110582 0)
(1.00717 0.00670025 0)
(1.00481 0.0101679 0)
(1.0037 0.0128817 0)
(1.00951 0.00862826 0)
(1.01112 0.00844869 0)
(1.00973 0.00868587 0)
(1.00978 0.00571925 0)
(1.00963 0.0047458 0)
(1.00833 0.00598447 0)
(1.00775 0.00662761 0)
(0.999857 0.00637825 0)
(1.00474 -0.000701005 0)
(1.00228 0.00409072 0)
(1.0039 0.00670516 0)
(1.00807 0.00213052 0)
(1.00058 0.00161235 0)
(1.00028 0.00605818 0)
(1.00583 0.00386089 0)
(1.00011 0.00622497 0)
(0.999591 0.0109573 0)
(1.00711 0.00680703 0)
(1.00519 0.00962921 0)
(1.00355 0.0127546 0)
(1.00915 0.00867458 0)
(1.01115 0.0079655 0)
(1.00952 0.00879712 0)
(1.00938 0.00623285 0)
(1.00965 0.00484498 0)
(1.00858 0.00591252 0)
(1.00781 0.00686856 0)
(0.999884 0.00602625 0)
(1.00456 -0.00026254 0)
(1.00243 0.00365368 0)
(1.00376 0.0068691 0)
(1.00782 0.0019953 0)
(1.00071 0.00187274 0)
(1.00032 0.00610772 0)
(1.00581 0.0038579 0)
(1.00047 0.00609455 0)
(0.999592 0.0108577 0)
(1.00702 0.00693061 0)
(1.00558 0.00909931 0)
(1.00344 0.0125758 0)
(1.00874 0.0088048 0)
(1.01118 0.00751775 0)
(1.0094 0.00878473 0)
(1.00897 0.00676508 0)
(1.0096 0.00502893 0)
(1.00885 0.00581903 0)
(1.00795 0.00695835 0)
(0.99991 0.00566579 0)
(1.00437 0.000175394 0)
(1.00258 0.00322971 0)
(1.00362 0.00699341 0)
(1.00757 0.00191743 0)
(1.00086 0.00206071 0)
(1.00036 0.00619888 0)
(1.00578 0.00385876 0)
(1.00085 0.00593728 0)
(0.999611 0.0107565 0)
(1.00689 0.00708051 0)
(1.00597 0.00858326 0)
(1.00339 0.0123323 0)
(1.00828 0.00900241 0)
(1.01119 0.00714063 0)
(1.00937 0.00864238 0)
(1.00858 0.00728361 0)
(1.00947 0.00529701 0)
(1.00911 0.00574022 0)
(1.00817 0.00694888 0)
(0.999936 0.00529946 0)
(1.00417 0.000611888 0)
(1.00272 0.00282908 0)
(1.00348 0.00707109 0)
(1.0073 0.00190088 0)
(1.00102 0.00216616 0)
(1.00039 0.00631991 0)
(1.00573 0.00388207 0)
(1.00123 0.00574903 0)
(0.999651 0.0106387 0)
(1.00673 0.00725255 0)
(1.00636 0.00808936 0)
(1.00341 0.0120212 0)
(1.0078 0.00924909 0)
(1.01116 0.00686194 0)
(1.00944 0.00836968 0)
(1.00823 0.00774661 0)
(1.00926 0.00564741 0)
(1.00934 0.00567759 0)
(1.00844 0.00688152 0)
(0.999961 0.00492813 0)
(1.00394 0.00104777 0)
(1.00285 0.00245373 0)
(1.00334 0.00709609 0)
(1.00702 0.00195154 0)
(1.0012 0.00220174 0)
(1.00042 0.00644594 0)
(1.00565 0.00393987 0)
(1.00163 0.00552667 0)
(0.999718 0.0104943 0)
(1.00653 0.00745407 0)
(1.00673 0.00763256 0)
(1.00349 0.0116351 0)
(1.00729 0.00951464 0)
(1.01106 0.00670965 0)
(1.00958 0.00799931 0)
(1.00794 0.00811388 0)
(1.00897 0.00609067 0)
(1.00951 0.00564548 0)
(1.00875 0.0067699 0)
(0.999986 0.00455705 0)
(1.00371 0.00146933 0)
(1.00296 0.00212093 0)
(1.00322 0.00704678 0)
(1.00671 0.00208036 0)
(1.00138 0.00218536 0)
(1.00045 0.00655931 0)
(1.00555 0.0040553 0)
(1.00203 0.00528252 0)
(0.999821 0.0103057 0)
(1.0063 0.00768973 0)
(1.00707 0.00723396 0)
(1.00366 0.0111722 0)
(1.0068 0.00976118 0)
(1.01089 0.00668786 0)
(1.00979 0.00757472 0)
(1.00776 0.0083315 0)
(1.00862 0.00659937 0)
(1.0096 0.00568489 0)
(1.00909 0.00660592 0)
(1.00001 0.00418696 0)
(1.00346 0.00186895 0)
(1.00306 0.00184451 0)
(1.0031 0.00692417 0)
(1.00639 0.00227945 0)
(1.00156 0.00212846 0)
(1.0005 0.00663903 0)
(1.00543 0.00423229 0)
(1.00242 0.00503691 0)
(0.999966 0.0100682 0)
(1.00603 0.00794251 0)
(1.00736 0.00691406 0)
(1.00389 0.0106512 0)
(1.00633 0.009958 0)
(1.01063 0.00678827 0)
(1.01003 0.00715589 0)
(1.0077 0.0083768 0)
(1.00825 0.00711148 0)
(1.00957 0.00584167 0)
(1.00943 0.00640475 0)
(1.00003 0.00382336 0)
(1.0032 0.00224183 0)
(1.00314 0.00162279 0)
(1.003 0.00672168 0)
(1.00606 0.00254197 0)
(1.00174 0.00205775 0)
(1.00056 0.00666167 0)
(1.00527 0.00446437 0)
(1.00281 0.0048152 0)
(1.00016 0.00978305 0)
(1.00575 0.00818768 0)
(1.0076 0.00668698 0)
(1.0042 0.0100978 0)
(1.00592 0.010077 0)
(1.01028 0.00697936 0)
(1.01025 0.00679141 0)
(1.00776 0.00825909 0)
(1.00789 0.00755685 0)
(1.00943 0.00612596 0)
(1.00972 0.00623538 0)
(1.00006 0.00346546 0)
(1.00292 0.00257814 0)
(1.00319 0.00147266 0)
(1.00292 0.00643599 0)
(1.00572 0.00284833 0)
(1.00192 0.00199301 0)
(1.00065 0.00661197 0)
(1.0051 0.00473992 0)
(1.00317 0.0046314 0)
(1.0004 0.00943776 0)
(1.00546 0.00840611 0)
(1.00777 0.00655662 0)
(1.00456 0.00953848 0)
(1.00558 0.0101156 0)
(1.00986 0.00723686 0)
(1.01043 0.00651686 0)
(1.00794 0.00801126 0)
(1.0076 0.00788051 0)
(1.00917 0.00648662 0)
(1.00991 0.00616586 0)
(1.00008 0.00312748 0)
(1.00265 0.00286255 0)
(1.0032 0.00139362 0)
(1.00285 0.00608506 0)
(1.00536 0.00317571 0)
(1.00207 0.00194617 0)
(1.00077 0.00646231 0)
(1.00491 0.00503113 0)
(1.0035 0.00451692 0)
(1.00069 0.00905576 0)
(1.00518 0.00857236 0)
(1.00787 0.00650243 0)
(1.00495 0.00897856 0)
(1.00533 0.0100568 0)
(1.00938 0.00752323 0)
(1.01053 0.00634795 0)
(1.00821 0.00768166 0)
(1.00741 0.00807196 0)
(1.00886 0.0068631 0)
(1.00999 0.00622807 0)
(1.0001 0.00280033 0)
(1.00237 0.00310744 0)
(1.00319 0.00137669 0)
(1.0028 0.0056848 0)
(1.00502 0.00349528 0)
(1.00219 0.00197623 0)
(1.00091 0.00625293 0)
(1.00472 0.0053053 0)
(1.00379 0.00448697 0)
(1.00102 0.0086587 0)
(1.00491 0.00867455 0)
(1.00789 0.00651346 0)
(1.00535 0.00844546 0)
(1.00517 0.00990156 0)
(1.00887 0.00780518 0)
(1.01054 0.00629171 0)
(1.00853 0.00731041 0)
(1.00734 0.00812345 0)
(1.00853 0.00719662 0)
(1.00993 0.00638209 0)
(1.00012 0.00249131 0)
(1.00209 0.00329849 0)
(1.00313 0.00142696 0)
(1.00277 0.00524947 0)
(1.00468 0.00378989 0)
(1.00228 0.00211395 0)
(1.00107 0.00600679 0)
(1.00453 0.00552538 0)
(1.00403 0.00453504 0)
(1.00137 0.00826133 0)
(1.00468 0.00870283 0)
(1.00784 0.00656439 0)
(1.00575 0.00795209 0)
(1.00512 0.00965231 0)
(1.00836 0.00804359 0)
(1.01043 0.00633993 0)
(1.00886 0.00694271 0)
(1.00739 0.00803245 0)
(1.00821 0.0074628 0)
(1.00977 0.00657555 0)
(1.00014 0.00221463 0)
(1.00182 0.00341888 0)
(1.00304 0.00153551 0)
(1.00275 0.00480343 0)
(1.00436 0.00403821 0)
(1.00233 0.0023419 0)
(1.00124 0.00574104 0)
(1.00436 0.00567499 0)
(1.00423 0.00462973 0)
(1.00174 0.00787002 0)
(1.00448 0.00865138 0)
(1.00773 0.00663813 0)
(1.00613 0.00751026 0)
(1.00516 0.00932189 0)
(1.00788 0.00821281 0)
(1.01023 0.00647465 0)
(1.00917 0.00664059 0)
(1.00756 0.00782079 0)
(1.00796 0.00765102 0)
(1.00953 0.00677694 0)
(1.00016 0.00195616 0)
(1.00156 0.00348279 0)
(1.00292 0.00169224 0)
(1.00274 0.00437183 0)
(1.00407 0.00421233 0)
(1.00234 0.00262881 0)
(1.00141 0.00550086 0)
(1.00421 0.00574529 0)
(1.00438 0.00473565 0)
(1.0021 0.00751484 0)
(1.00432 0.00855494 0)
(1.00756 0.00673923 0)
(1.00646 0.00714122 0)
(1.00528 0.00893759 0)
(1.00746 0.008306 0)
(1.00994 0.00666201 0)
(1.00941 0.00643942 0)
(1.00782 0.00752331 0)
(1.00779 0.00772889 0)
(1.00925 0.00696899 0)
(1.00018 0.00173037 0)
(1.00132 0.00348123 0)
(1.00276 0.00188192 0)
(1.00272 0.00396546 0)
(1.00382 0.0043018 0)
(1.00233 0.00295261 0)
(1.00156 0.00530141 0)
(1.00408 0.00574912 0)
(1.0045 0.0048466 0)
(1.00246 0.00721462 0)
(1.00421 0.00842334 0)
(1.00735 0.00684234 0)
(1.00673 0.00684407 0)
(1.00547 0.00851676 0)
(1.00712 0.00831053 0)
(1.00959 0.00685536 0)
(1.00955 0.00633852 0)
(1.00813 0.00720009 0)
(1.00773 0.00768114 0)
(1.00896 0.00713853 0)
(1.00019 0.00153523 0)
(1.0011 0.00340911 0)
(1.00258 0.00209914 0)
(1.00271 0.00361378 0)
(1.00362 0.00428016 0)
(1.00229 0.00328714 0)
(1.00169 0.00517741 0)
(1.00397 0.00572669 0)
(1.00459 0.00494579 0)
(1.0028 0.00694274 0)
(1.00413 0.00824824 0)
(1.00711 0.00693074 0)
(1.00694 0.00662479 0)
(1.0057 0.00808867 0)
(1.00687 0.00822537 0)
(1.00922 0.00702214 0)
(1.00959 0.00632248 0)
(1.00844 0.00690962 0)
(1.00778 0.00752339 0)
(1.0087 0.00724922 0)
(1.0002 0.00136957 0)
(1.0009 0.00328008 0)
(1.00238 0.00231951 0)
(1.00267 0.0033399 0)
(1.00346 0.00416496 0)
(1.00226 0.00359742 0)
(1.0018 0.0051395 0)
(1.00386 0.00569314 0)
(1.00466 0.00501335 0)
(1.00313 0.00668897 0)
(1.00409 0.00804448 0)
(1.00686 0.00700478 0)
(1.00707 0.00647311 0)
(1.00596 0.00767266 0)
(1.00671 0.00805439 0)
(1.00885 0.00713492 0)
(1.00954 0.00636319 0)
(1.00871 0.00668287 0)
(1.00791 0.00730189 0)
(1.0085 0.00727307 0)
(1.00021 0.00123315 0)
(1.00073 0.00310583 0)
(1.00217 0.00252233 0)
(1.00262 0.00314855 0)
(1.00334 0.00399117 0)
(1.00223 0.00385835 0)
(1.00188 0.00516968 0)
(1.00377 0.00567004 0)
(1.0047 0.00506021 0)
(1.00344 0.00644688 0)
(1.0041 0.00780807 0)
(1.0066 0.00705713 0)
(1.00714 0.00638275 0)
(1.00621 0.00729736 0)
(1.00663 0.00782407 0)
(1.00852 0.00718323 0)
(1.00941 0.00642577 0)
(1.00892 0.00652179 0)
(1.0081 0.00706261 0)
(1.00839 0.00720622 0)
(1.00021 0.00112489 0)
(1.00059 0.00289725 0)
(1.00196 0.00269188 0)
(1.00254 0.00305379 0)
(1.00326 0.00378093 0)
(1.00223 0.00403238 0)
(1.00194 0.00523353 0)
(1.00366 0.00567428 0)
(1.00472 0.00510688 0)
(1.00373 0.00621886 0)
(1.00415 0.00754398 0)
(1.00635 0.00707239 0)
(1.00713 0.00634253 0)
(1.00644 0.00697661 0)
(1.00662 0.0075574 0)
(1.00824 0.00716137 0)
(1.00924 0.00647261 0)
(1.00905 0.00640586 0)
(1.0083 0.00682957 0)
(1.00835 0.00707181 0)
(1.00022 0.00103802 0)
(1.00048 0.00268322 0)
(1.00177 0.0028082 0)
(1.00244 0.00304126 0)
(1.0032 0.00357609 0)
(1.00226 0.00409425 0)
(1.002 0.00529861 0)
(1.00356 0.00570172 0)
(1.00472 0.0051539 0)
(1.004 0.00600715 0)
(1.00424 0.00725862 0)
(1.00614 0.00703701 0)
(1.00707 0.00632848 0)
(1.00664 0.00671452 0)
(1.00667 0.00727983 0)
(1.00801 0.00708336 0)
(1.00905 0.00649222 0)
(1.00912 0.00632164 0)
(1.0085 0.00661722 0)
(1.00839 0.00690177 0)
(1.00022 0.000965268 0)
(1.00039 0.00248022 0)
(1.00161 0.00286844 0)
(1.00232 0.00308134 0)
(1.00314 0.00341622 0)
(1.00233 0.00405985 0)
(1.00208 0.00532816 0)
(1.00345 0.00574423 0)
(1.00468 0.00520625 0)
(1.00423 0.00582476 0)
(1.00436 0.0069558 0)
(1.00596 0.00694829 0)
(1.00697 0.00631612 0)
(1.00679 0.00650909 0)
(1.00674 0.00700892 0)
(1.00784 0.0069648 0)
(1.00885 0.00648481 0)
(1.00913 0.00625484 0)
(1.00867 0.00642481 0)
(1.00846 0.00670675 0)
(1.00022 0.000906309 0)
(1.00032 0.00229567 0)
(1.00147 0.00287407 0)
(1.00219 0.00314174 0)
(1.00308 0.00333544 0)
(1.00242 0.00397415 0)
(1.00218 0.00528277 0)
(1.00336 0.00577361 0)
(1.00462 0.00527628 0)
(1.00442 0.00567943 0)
(1.0045 0.00665319 0)
(1.00583 0.00681116 0)
(1.00686 0.00629058 0)
(1.00689 0.00634726 0)
(1.00683 0.00675225 0)
(1.00772 0.0068097 0)
(1.00866 0.00644803 0)
(1.00909 0.006198 0)
(1.00879 0.00625388 0)
(1.00856 0.00649729 0)
(1.00022 0.000855313 0)
(1.00027 0.00213829 0)
(1.00136 0.00284075 0)
(1.00206 0.00319377 0)
(1.00301 0.00332831 0)
(1.00252 0.00387863 0)
(1.0023 0.00516088 0)
(1.00328 0.0057588 0)
(1.00453 0.00534972 0)
(1.00456 0.00556815 0)
(1.00465 0.00636661 0)
(1.00575 0.00663191 0)
(1.00674 0.00623874 0)
(1.00695 0.00621127 0)
(1.00692 0.00652009 0)
(1.00765 0.00663208 0)
(1.0085 0.00637645 0)
(1.00901 0.00614756 0)
(1.00887 0.006111 0)
(1.00868 0.00628762 0)
(1.00022 0.000811168 0)
(1.00024 0.00200901 0)
(1.00127 0.00277899 0)
(1.00194 0.00322542 0)
(1.00293 0.0033601 0)
(1.00261 0.00380452 0)
(1.00244 0.00498777 0)
(1.00324 0.00569679 0)
(1.00444 0.00540211 0)
(1.00466 0.00549978 0)
(1.00479 0.00610904 0)
(1.00571 0.0064225 0)
(1.00663 0.00614874 0)
(1.00698 0.00608102 0)
(1.00701 0.00630773 0)
(1.00761 0.00644718 0)
(1.00836 0.00626412 0)
(1.00891 0.00608052 0)
(1.00889 0.00599289 0)
(1.00878 0.00608506 0)
(1.00022 0.000771045 0)
(1.00021 0.00190589 0)
(1.0012 0.00270405 0)
(1.00184 0.00323031 0)
(1.00284 0.00339551 0)
(1.00268 0.00376798 0)
(1.00259 0.00479845 0)
(1.00323 0.00557779 0)
(1.00435 0.00541753 0)
(1.00471 0.00545482 0)
(1.00491 0.00589334 0)
(1.00569 0.00620553 0)
(1.00654 0.00602841 0)
(1.00699 0.00594952 0)
(1.00708 0.00610409 0)
(1.00759 0.00626292 0)
(1.00825 0.00613207 0)
(1.00882 0.00598403 0)
(1.00887 0.00589319 0)
(1.00884 0.00590478 0)
(1.00021 0.000734475 0)
(1.00018 0.00182329 0)
(1.00115 0.00262311 0)
(1.00175 0.00320643 0)
(1.00275 0.00341975 0)
(1.00272 0.00376097 0)
(1.00274 0.00462778 0)
(1.00325 0.00540515 0)
(1.00427 0.00539205 0)
(1.00473 0.00540632 0)
(1.00499 0.0057149 0)
(1.00568 0.00599477 0)
(1.00645 0.00588604 0)
(1.00697 0.0058142 0)
(1.00714 0.00590264 0)
(1.00759 0.00606595 0)
(1.00815 0.0059925 0)
(1.00873 0.00585863 0)
(1.00883 0.00578495 0)
(1.00886 0.00575284 0)
(1.00021 0.000702226 0)
(1.00016 0.00175113 0)
(1.00111 0.00254196 0)
(1.00167 0.00315776 0)
(1.00266 0.00342929 0)
(1.00275 0.00376317 0)
(1.00286 0.00448528 0)
(1.0033 0.00521303 0)
(1.00422 0.0053146 0)
(1.00473 0.00534806 0)
(1.00505 0.00555978 0)
(1.00568 0.00579772 0)
(1.00638 0.00572934 0)
(1.00694 0.00567301 0)
(1.00718 0.00571017 0)
(1.0076 0.00585017 0)
(1.00808 0.00583679 0)
(1.00864 0.00572188 0)
(1.00878 0.00565073 0)
(1.00884 0.00562394 0)
(1.00021 0.000673598 0)
(1.00015 0.0016848 0)
(1.00107 0.00246214 0)
(1.0016 0.00309534 0)
(1.00258 0.00341892 0)
(1.00276 0.00376263 0)
(1.00296 0.00436637 0)
(1.00335 0.00502928 0)
(1.00418 0.00518813 0)
(1.00471 0.00526622 0)
(1.00509 0.00541504 0)
(1.00567 0.00561508 0)
(1.00632 0.00556748 0)
(1.0069 0.00552282 0)
(1.00719 0.00552996 0)
(1.00762 0.00563115 0)
(1.00802 0.005651 0)
(1.00855 0.00557982 0)
(1.00873 0.00549156 0)
(1.00879 0.00549117 0)
(1.00021 0.000647119 0)
(1.00014 0.00162284 0)
(1.00104 0.00238474 0)
(1.00154 0.00302691 0)
(1.00251 0.00338761 0)
(1.00275 0.0037508 0)
(1.00304 0.00426769 0)
(1.0034 0.00485949 0)
(1.00416 0.00504386 0)
(1.0047 0.0051496 0)
(1.0051 0.00527035 0)
(1.00565 0.00544059 0)
(1.00625 0.00540623 0)
(1.00684 0.00536435 0)
(1.00718 0.0053509 0)
(1.00762 0.0054216 0)
(1.00799 0.00543814 0)
(1.00847 0.00541704 0)
(1.00867 0.00531888 0)
(1.00874 0.00532581 0)
(1.00021 0.000623176 0)
(1.00013 0.0015622 0)
(1.00101 0.00230879 0)
(1.00149 0.00295585 0)
(1.00245 0.00333995 0)
(1.00275 0.00371972 0)
(1.0031 0.00417877 0)
(1.00344 0.00469776 0)
(1.00414 0.00489748 0)
(1.00468 0.00500868 0)
(1.00511 0.00511453 0)
(1.00563 0.00526693 0)
(1.00618 0.00524576 0)
(1.00678 0.00520633 0)
(1.00715 0.00516855 0)
(1.00761 0.00521924 0)
(1.00796 0.00521937 0)
(1.0084 0.00522658 0)
(1.0086 0.00514295 0)
(1.0087 0.00512916 0)
(1.00021 0.000601801 0)
(1.00012 0.00150346 0)
(1.00099 0.00223075 0)
(1.00144 0.00288137 0)
(1.00239 0.00328234 0)
(1.00273 0.00367125 0)
(1.00314 0.00408761 0)
(1.00347 0.00454979 0)
(1.00412 0.00474782 0)
(1.00465 0.00486313 0)