/*--------------------------------*- C++ -*----------------------------------*\
| =========                 |                                                 |
| \\      /  F ield         | OpenFOAM: The Open Source CFD Toolbox           |
|  \\    /   O peration     | Version:  v1812                                 |
|   \\  /    A nd           | Web:      www.OpenFOAM.com                      |
|    \\/     M anipulation  |                                                 |
\*---------------------------------------------------------------------------*/
FoamFile
{
    version     2.0;
    format      ascii;
    class       volScalarField;
    location    "1.3";
    object      p;
}
// * * * * * * * * * * * * * * * * * * * * * * * * * * * * * * * * * * * * * //

dimensions      [0 2 -2 0 0 0 0];


internalField   nonuniform List<scalar> 
9600
(
-1.17331e-10
-0.000142751
-0.000657631
-0.000334895
0.000757829
0.0003786
-0.00088745
-0.000658648
-0.00113169
-0.000497789
-0.000333667
0.000890469
0.000394219
0.000905203
0.0011164
0.00256826
0.00322681
0.00483985
0.00725811
0.0120142
2.07446e-06
-0.000150877
-0.000656156
-0.000327238
0.000751305
0.000365665
-0.00086883
-0.000661757
-0.0011257
-0.000493236
-0.000338065
0.000887658
0.000395781
0.000904417
0.00113102
0.00255721
0.00326428
0.00481286
0.00745002
0.0116094
3.47002e-06
-0.000159978
-0.000651972
-0.000319613
0.000739169
0.000351032
-0.000850923
-0.000666948
-0.00111428
-0.000488457
-0.000342061
0.000882016
0.000400285
0.000905616
0.00114111
0.00254639
0.00328979
0.00477807
0.00750188
0.0110656
3.44331e-06
-0.000168242
-0.000646092
-0.00031427
0.000725658
0.000335802
-0.000837169
-0.000672508
-0.00109772
-0.00048243
-0.000345412
0.000872632
0.000407011
0.000906923
0.00114868
0.00253362
0.00331292
0.00473291
0.00751546
0.0106003
2.34397e-06
-0.000175498
-0.000638646
-0.000310837
0.000711238
0.000319608
-0.000825238
-0.000677875
-0.00107641
-0.000476742
-0.000349869
0.000859822
0.000414883
0.000906213
0.00115565
0.00251664
0.00333728
0.00467863
0.00750601
0.0101844
4.45189e-07
-0.00018163
-0.000629799
-0.000309435
0.00069636
0.00030325
-0.000814086
-0.000683197
-0.00105177
-0.000472367
-0.000355554
0.000844787
0.000423254
0.000903231
0.0011639
0.00249663
0.00336228
0.00461852
0.00747136
0.00979575
-2.02719e-06
-0.000186725
-0.000620015
-0.000309675
0.000681885
0.000286925
-0.00080338
-0.000688506
-0.00102484
-0.000469063
-0.000362082
0.000828604
0.00043194
0.000898325
0.00117451
0.00247384
0.00339198
0.00455466
0.00740716
0.00942878
-4.83424e-06
-0.000191109
-0.000609652
-0.000310882
0.000668033
0.0002704
-0.00079272
-0.000693844
-0.000996248
-0.000466372
-0.000369085
0.000811879
0.000440951
0.000891505
0.0011872
0.00244831
0.00341251
0.00448826
0.00731166
0.00908051
-7.77419e-06
-0.000195174
-0.000598871
-0.000312528
0.000654556
0.000253494
-0.000781796
-0.000699358
-0.000966361
-0.00046395
-0.000376343
0.000794768
0.000450316
0.000882633
0.00120122
0.00242059
0.00342664
0.0044201
0.00718529
0.00874779
-1.07143e-05
-0.00019926
-0.000587723
-0.000314321
0.000641146
0.000236162
-0.000770436
-0.000705196
-0.000935465
-0.000461604
-0.000383772
0.000777264
0.000460084
0.000871611
0.00121568
0.00239157
0.00343302
0.00435049
0.00702978
0.00842688
-1.35853e-05
-0.000203607
-0.000576216
-0.000316109
0.000627576
0.000218439
-0.000758516
-0.000711491
-0.000903825
-0.000459193
-0.000391492
0.000759394
0.000470171
0.000858506
0.00122964
0.00236195
0.00343005
0.00427947
0.00684742
0.00811384
-1.63591e-05
-0.000208369
-0.000564358
-0.000317811
0.000613704
0.000200372
-0.000745994
-0.000718345
-0.000871718
-0.000456527
-0.000399616
0.000741208
0.000480289
0.000843699
0.00124218
0.00233198
0.00341645
0.00420665
0.00664078
0.00780297
-1.90244e-05
-0.000213633
-0.00055217
-0.000319382
0.000599429
0.000182
-0.000732894
-0.000725764
-0.000839422
-0.000453412
-0.000408321
0.000722786
0.000490041
0.000827664
0.00125256
0.00230169
0.00339168
0.00413035
0.00641366
0.00749071
-2.15731e-05
-0.000219446
-0.000539693
-0.000320795
0.000584673
0.000163354
-0.000719263
-0.000733671
-0.000807215
-0.000449652
-0.000417862
0.000704337
0.000499034
0.000810704
0.00126012
0.00227103
0.00335586
0.00404765
0.00617081
0.00717637
-2.39941e-05
-0.000225841
-0.000526975
-0.000322022
0.00056937
0.000144461
-0.000705168
-0.000741947
-0.000775414
-0.00044498
-0.00042855
0.000686119
0.000506903
0.000793023
0.00126447
0.0022392
0.00330969
0.00395609
0.00591578
0.00685972
-2.62719e-05
-0.000232845
-0.000514076
-0.000323032
0.000553458
0.000125355
-0.000690696
-0.000750428
-0.000744387
-0.000439057
-0.00044067
0.000668309
0.000513374
0.000774618
0.00126547
0.00220485
0.00325424
0.0038543
0.00565033
0.00654086
-2.83862e-05
-0.000240487
-0.000501063
-0.000323784
0.000536877
0.000106111
-0.000675983
-0.000758914
-0.000714531
-0.000431535
-0.000454468
0.000651023
0.000518323
0.000755145
0.00126329
0.00216632
0.00319004
0.00374171
0.00537578
0.00622018
-3.03107e-05
-0.000248797
-0.000488007
-0.000324233
0.000519562
8.68566e-05
-0.000661207
-0.000767168
-0.000686281
-0.000422134
-0.000470168
0.00063431
0.000521775
0.00073407
0.00125866
0.0021217
0.00311655
0.00361967
0.00509296
0.00589754
-3.20135e-05
-0.000257803
-0.000474989
-0.000324335
0.000501442
6.77475e-05
-0.000646555
-0.000774913
-0.00066009
-0.00041064
-0.000487892
0.000617993
0.000524062
0.000710401
0.00125227
0.00206988
0.00303281
0.0034902
0.0048025
0.00557254
-3.34578e-05
-0.000267538
-0.000462108
-0.000324014
0.000482426
4.89572e-05
-0.000632244
-0.000781836
-0.000636397
-0.000396889
-0.000507713
0.000601601
0.000525826
0.000682715
0.00124432
0.00201097
0.00293776
0.003356
0.00450558
0.00524409
-3.46018e-05
-0.000278034
-0.000449488
-0.000323166
0.000462426
3.06834e-05
-0.000618555
-0.000787646
-0.000615569
-0.000380845
-0.000529702
0.000584416
0.000527982
0.000649695
0.00123456
0.00194588
0.00282937
0.00321804
0.00420504
0.00491008
-3.54017e-05
-0.000289314
-0.000437261
-0.000321718
0.000441337
1.31721e-05
-0.000605792
-0.000792126
-0.000597889
-0.000362665
-0.000554335
0.000565469
0.000531687
0.00061037
0.00122189
0.00187621
0.00270531
0.00307666
0.00390503
0.00456847
-3.58064e-05
-0.000301396
-0.000425592
-0.000319571
0.000419015
-3.2944e-06
-0.000594257
-0.000795138
-0.000583561
-0.000342668
-0.000577042
0.000543488
0.000537629
0.000564346
0.00120426
0.00180431
0.00256467
0.00293001
0.00361007
0.00421889
-3.57587e-05
-0.000314296
-0.000414701
-0.000316502
0.000395317
-1.84273e-05
-0.000585044
-0.000796624
-0.000572587
-0.000321376
-0.000598529
0.00051696
0.00054581
0.000511963
0.00117896
0.00173244
0.00240811
0.00277485
0.00332437
0.0038628
-3.52112e-05
-0.000327989
-0.00040483
-0.000312294
0.000370078
-3.19903e-05
-0.000576668
-0.000796649
-0.000564769
-0.00029955
-0.000617931
0.000484726
0.000555905
0.000454181
0.0011429
0.00166178
0.00223812
0.002608
0.0030511
0.00350337
-3.41159e-05
-0.000342435
-0.000396259
-0.000306742
0.000343126
-4.38292e-05
-0.000569824
-0.000795505
-0.000559626
-0.000278152
-0.000634425
0.00044616
0.000567151
0.000392315
0.00109315
0.0015925
0.00205859
0.00242651
0.002792
0.00314599
-3.24287e-05
-0.000357584
-0.000389334
-0.00029957
0.000314357
-5.38393e-05
-0.000564456
-0.000793693
-0.000556431
-0.000258252
-0.000647673
0.000401037
0.00057824
0.000327913
0.00102756
0.00152398
0.00187388
0.00222781
0.00254679
0.00279856
-3.01211e-05
-0.000373328
-0.000384451
-0.000290566
0.000283745
-6.20061e-05
-0.0005603
-0.000791818
-0.000554394
-0.000240793
-0.000657751
0.000349562
0.000587413
0.000262419
0.000944725
0.00145457
0.00168893
0.00201046
0.00231232
0.00247053
-2.71862e-05
-0.000389473
-0.000382072
-0.000279655
0.000251394
-6.84839e-05
-0.000556739
-0.00079074
-0.000552804
-0.000226411
-0.000658396
0.000292511
0.000593015
0.000196967
0.000843943
0.00138174
0.00150926
0.0017751
0.00208192
0.00217023
-2.36395e-05
-0.000405775
-0.000382683
-0.000266776
0.000217513
-7.36051e-05
-0.00055288
-0.000791556
-0.000551468
-0.000215337
-0.000663353
0.000230537
0.000593473
0.000132573
0.000725686
0.00130234
0.00133972
0.00152542
0.00184589
0.00190126
-1.95252e-05
-0.00042194
-0.000386759
-0.00025192
0.000182489
-7.79677e-05
-0.000547629
-0.000795025
-0.000550796
-0.000207164
-0.000668345
0.000163484
0.000587285
7.03897e-05
0.000591504
0.00121301
0.00118321
0.00126802
0.00159443
0.00165858
-1.49534e-05
-0.000437518
-0.000394751
-0.000235315
0.000146973
-8.24892e-05
-0.000539762
-0.000801298
-0.000551694
-0.000201267
-0.000674347
9.06772e-05
0.000573322
1.16842e-05
0.00044348
0.00111059
0.00104024
0.00101099
0.00132255
0.0014301
-1.00611e-05
-0.000452019
-0.000407043
-0.000217355
0.000111797
-8.82418e-05
-0.000528467
-0.000810109
-0.000555421
-0.000197122
-0.000681688
1.1372e-05
0.000550476
-4.23309e-05
0.000284117
0.000992271
0.000909299
0.000761918
0.00103234
0.00120025
-5.02791e-06
-0.000464972
-0.000423841
-0.000198767
7.79884e-05
-9.63794e-05
-0.000513424
-0.000820683
-0.000563681
-0.000194551
-0.000690422
-7.52249e-05
0.000517526
-8.98332e-05
0.000116624
0.000855148
0.000787367
0.000526322
0.000730451
0.000956247
-9.94121e-08
-0.000475872
-0.000445117
-0.000180558
4.66377e-05
-0.000107712
-0.000494567
-0.000831911
-0.000578192
-0.000194036
-0.000699997
-0.000169693
0.000472854
-0.000128805
-5.47208e-05
0.000696442
0.000670394
0.000307866
0.000424161
0.000692583
4.46093e-06
-0.000484219
-0.000470624
-0.000163869
1.86721e-05
-0.000122535
-0.000472589
-0.000842285
-0.000600181
-0.000196793
-0.000709446
-0.000271743
0.000414592
-0.000158755
-0.00022482
0.000514585
0.000553404
0.000109319
0.000119754
0.000409735
8.33159e-06
-0.00048953
-0.00049972
-0.000150124
-5.38044e-06
-0.000140945
-0.000448549
-0.00085036
-0.000630641
-0.000204565
-0.000717378
-0.000380131
0.000340976
-0.000181049
-0.000388106
0.000309844
0.00042994
-6.74907e-05
-0.00017652
0.000110523
1.11393e-05
-0.000491347
-0.000531457
-0.000140838
-2.53646e-05
-0.000162612
-0.000423772
-0.000854881
-0.000670033
-0.000219491
-0.000722122
-0.000492434
0.000250121
-0.000198751
-0.000538937
8.4774e-05
0.000292349
-0.000222567
-0.000457052
-0.000201199
1.25265e-05
-0.000489351
-0.000564733
-0.00013735
-4.14154e-05
-0.000187038
-0.000392312
-0.000854788
-0.000717945
-0.000243936
-0.000722288
-0.000604969
0.000140469
-0.000216965
-0.000672561
-0.000155327
0.000133236
-0.000359181
-0.000713283
-0.000519571
1.21544e-05
-0.000483318
-0.00059822
-0.000140866
-5.39419e-05
-0.000214086
-0.000372471
-0.000849437
-0.000772894
-0.000280073
-0.000718212
-0.000712866
1.23394e-05
-0.000242485
-0.00078669
-0.000402636
-5.23655e-05
-0.000484777
-0.000938313
-0.00083521
9.71544e-06
-0.000473007
-0.000630521
-0.000152466
-6.35308e-05
-0.000243654
-0.000358328
-0.000838317
-0.000831798
-0.00032965
-0.000711969
-0.000811729
-0.000131937
-0.000281796
-0.000882304
-0.000648061
-0.000265319
-0.000610038
-0.00112969
-0.00113563
4.96811e-06
-0.000458316
-0.000660211
-0.000172807
-7.11398e-05
-0.00027516
-0.000352475
-0.000821681
-0.000890736
-0.000393227
-0.000707424
-0.000898973
-0.000288311
-0.00033902
-0.000962645
-0.000883803
-0.000502479
-0.000746024
-0.00129105
-0.00140873
-2.23795e-06
-0.000439253
-0.000685814
-0.000202054
-7.81577e-05
-0.00030745
-0.000357386
-0.000801307
-0.000945652
-0.000469971
-0.000709512
-0.000974112
-0.000451597
-0.000416251
-0.0010321
-0.00110405
-0.000757891
-0.000900882
-0.00143046
-0.00164617
-1.19986e-05
-0.000418042
-0.000706042
-0.000239973
-8.62126e-05
-0.00033912
-0.000374606
-0.000777566
-0.00099322
-0.00055757
-0.000722604
-0.00103828
-0.00061682
-0.000514367
-0.0010955
-0.00130413
-0.00102413
-0.00107907
-0.00155898
-0.00184573
-2.43942e-05
-0.000395275
-0.000719756
-0.000285729
-9.73587e-05
-0.000368404
-0.00040475
-0.000761894
-0.00103155
-0.000651513
-0.000748969
-0.00109416
-0.000779871
-0.00063256
-0.00115823
-0.00148079
-0.00129255
-0.00128177
-0.00168849
-0.00201158
-3.93559e-05
-0.000371519
-0.000725942
-0.000338252
-0.000114094
-0.00039406
-0.00044738
-0.000755398
-0.00105987
-0.000745892
-0.000788338
-0.00114583
-0.000938242
-0.000768499
-0.00122611
-0.00163374
-0.00155373
-0.00150617
-0.00182896
-0.00215297
-5.66336e-05
-0.000348113
-0.000723885
-0.000396356
-0.000139479
-0.000415358
-0.000498709
-0.00076192
-0.00108039
-0.000836417
-0.000839286
-0.00119624
-0.00109049
-0.000919377
-0.00130383
-0.0017657
-0.00179943
-0.00174552
-0.00198675
-0.00228244
-7.57894e-05
-0.000326512
-0.000713526
-0.000458706
-0.000176381
-0.000433023
-0.000552781
-0.000782959
-0.00109988
-0.000921738
-0.000899123
-0.00124658
-0.00123572
-0.00108276
-0.00139495
-0.00188071
-0.0020235
-0.00199056
-0.00216304
-0.00241259
-9.61917e-05
-0.000308059
-0.000695629
-0.000518485
-0.000226487
-0.00044957
-0.000605034
-0.000818269
-0.00112426
-0.00100189
-0.000964731
-0.00129755
-0.00137243
-0.0012556
-0.00150305
-0.00198474
-0.00222228
-0.0022323
-0.00235387
-0.00255211
-0.000117137
-0.000293865
-0.000671654
-0.000574957
-0.000290727
-0.000468782
-0.00065152
-0.000864941
-0.00115784
-0.00107885
-0.0010342
-0.00134894
-0.00149946
-0.00143311
-0.00163007
-0.00208558
-0.00239525
-0.00246304
-0.00255258
-0.00270299
-0.000137909
-0.000284635
-0.000643985
-0.000625652
-0.000368346
-0.000496092
-0.000691126
-0.000915916
-0.00120173
-0.00115763
-0.00110752
-0.00139994
-0.00161558
-0.00161033
-0.00177485
-0.00219128
-0.0025467
-0.00267672
-0.00275245
-0.00286101
-0.000157954
-0.000280676
-0.000615684
-0.000668487
-0.00045635
-0.000536818
-0.000724892
-0.000964563
-0.0012549
-0.00124326
-0.00118648
-0.00145094
-0.00171833
-0.00178239
-0.00193401
-0.00230797
-0.00268395
-0.00287055
-0.00294792
-0.00302061
-0.000176927
-0.000281921
-0.00058989
-0.000702238
-0.000550113
-0.000594327
-0.000757196
-0.00100722
-0.00131311
-0.00133686
-0.00127535
-0.00150448
-0.00180647
-0.00194323
-0.00210199
-0.00243818
-0.00281466
-0.00304524
-0.00313445
-0.00317787
-0.000194644
-0.000287942
-0.000569587
-0.000727302
-0.000643522
-0.000669069
-0.000796365
-0.00104365
-0.00136882
-0.00143665
-0.00137778
-0.00156501
-0.00188263
-0.0020864
-0.00227124
-0.00258139
-0.00294543
-0.00320518
-0.00331033
-0.00333069
-0.000211134
-0.000298072
-0.000556898
-0.000745988
-0.000731549
-0.000759159
-0.000848825
-0.00107555
-0.00141652
-0.00153886
-0.00149449
-0.00163891
-0.00195155
-0.00220865
-0.00243238
-0.0027326
-0.00308019
-0.00335561
-0.0034769
-0.00347857
-0.000226845
-0.000311622
-0.000552922
-0.00076141
-0.000810758
-0.000858753
-0.000917656
-0.00110966
-0.00145528
-0.00163481
-0.0016222
-0.00173147
-0.00202025
-0.00231318
-0.00257713
-0.00288399
-0.0032197
-0.00350006
-0.00363616
-0.003623
-0.000242549
-0.000327855
-0.000558228
-0.000774956
-0.000879729
-0.000960243
-0.00100266
-0.00115393
-0.00148735
-0.00171775
-0.00175486
-0.00184387
-0.00209777
-0.0024051
-0.00270272
-0.00302617
-0.00335988
-0.00364074
-0.00378855
-0.00376645
-0.000259135
-0.000346282
-0.000571566
-0.000794653
-0.00093918
-0.00105744
-0.00110182
-0.00121375
-0.00151753
-0.00178671
-0.00188206
-0.00197136
-0.0021913
-0.00249172
-0.00281211
-0.00315256
-0.00349362
-0.00377741
-0.0039334
-0.00390882
-0.000277469
-0.000366812
-0.000591507
-0.000819869
-0.000992023
-0.00114723
-0.00120961
-0.00129155
-0.00155311
-0.0018434
-0.00199641
-0.00210623
-0.00230234
-0.00258262
-0.00290962
-0.00326326
-0.00361372
-0.00390606
-0.00407006
-0.004047
-0.000298249
-0.000389455
-0.000616681
-0.000851697
-0.00104209
-0.00122857
-0.00131889
-0.0013856
-0.00160196
-0.00189116
-0.00209483
-0.00223805
-0.00242503
-0.00268448
-0.00300246
-0.00336137
-0.003718
-0.00402063
-0.00419616
-0.00417755
-0.000322038
-0.000414482
-0.000645636
-0.000890281
-0.00109301
-0.00130195
-0.00142437
-0.00149219
-0.00166799
-0.00193764
-0.00217731
-0.00235969
-0.0025523
-0.0027965
-0.00309798
-0.0034507
-0.00380937
-0.00411796
-0.0043073
-0.00429721
-0.000349224
-0.000442396
-0.000677444
-0.000934853
-0.00114788
-0.00136942
-0.00152292
-0.00160593
-0.00175039
-0.00199125
-0.00224729
-0.00246611
-0.00267591
-0.00291297
-0.00319919
-0.00353712
-0.00389084
-0.00420046
-0.00439988
-0.00440241
-0.000380045
-0.000473809
-0.000711826
-0.000983935
-0.00120794
-0.00143489
-0.00161355
-0.00172079
-0.00184673
-0.00205621
-0.00231104
-0.00255594
-0.00278868
-0.00302832
-0.00330279
-0.00362417
-0.00396582
-0.00427162
-0.004475
-0.00448988
-0.000414627
-0.000509293
-0.000748889
-0.00103615
-0.00127335
-0.00150231
-0.00169799
-0.00183099
-0.00195296
-0.00213384
-0.00237595
-0.00263339
-0.00288561
-0.00313539
-0.00340346
-0.00371011
-0.00403649
-0.00433349
-0.00453612
-0.00455911
-0.000452972
-0.000549313
-0.000789269
-0.0010901
-0.00134331
-0.00157431
-0.00177919
-0.00193454
-0.0020629
-0.00222282
-0.00244548
-0.00270311
-0.00296688
-0.00322792
-0.0034959
-0.00379037
-0.00410169
-0.00438606
-0.00458392
-0.00461107
-0.000495016
-0.00059404
-0.000833832
-0.00114538
-0.00141672
-0.0016517
-0.00186057
-0.00203315
-0.00217141
-0.00231961
-0.00252133
-0.00276897
-0.00303534
-0.00330265
-0.00357363
-0.00385963
-0.00415662
-0.00442692
-0.0046166
-0.00464543
-0.000540845
-0.000643357
-0.000883258
-0.00120245
-0.00149261
-0.00173493
-0.00194487
-0.0021288
-0.00227637
-0.00241964
-0.00260356
-0.00283379
-0.00309308
-0.00335984
-0.00363136
-0.00391157
-0.00419606
-0.00445294
-0.00463224
-0.00465992
-0.000590569
-0.000696928
-0.000937982
-0.00126231
-0.00156968
-0.00182353
-0.0020349
-0.00222448
-0.00237939
-0.00251965
-0.00268905
-0.00289868
-0.00314154
-0.00340023
-0.00366655
-0.00393988
-0.00421286
-0.00445734
-0.00462611
-0.00465031
-0.000644313
-0.000754275
-0.000997819
-0.00132647
-0.0016481
-0.00191597
-0.00213176
-0.00232327
-0.00248269
-0.00262051
-0.00277578
-0.00296319
-0.00318193
-0.00342321
-0.00367649
-0.00393714
-0.00419653
-0.00442809
-0.00458754
-0.00460828
-0.000702274
-0.000815188
-0.00106208
-0.00139559
-0.00172915
-0.00201198
-0.00223611
-0.00242797
-0.00258803
-0.00272357
-0.00286463
-0.00302726
-0.00321548
-0.00342827
-0.00365827
-0.0038963
-0.00413378
-0.00434742
-0.0044962
-0.00451459
-0.000764182
-0.000879765
-0.00113059
-0.00146999
-0.00181385
-0.00211101
-0.00234709
-0.00254262
-0.00270065
-0.00283214
-0.00295955
-0.00309383
-0.00324376
-0.0034144
-0.00360531
-0.0038082
-0.00401022
-0.00419364
-0.00432253
-0.00433394
-0.000829646
-0.000947827
-0.00120365
-0.00154978
-0.00190349
-0.00221425
-0.00246336
-0.00266676
-0.00282731
-0.00295434
-0.00306971
-0.00317537
-0.0032769
-0.0033864
-0.00351002
-0.0036479
-0.00379545
-0.00393823
-0.00404149
-0.00404198
-0.000895986
-0.00101947
-0.0012822
-0.00163529
-0.0019978
-0.0023225
-0.00258672
-0.00280011
-0.00296839
-0.00309668
-0.00320294
-0.00329151
-0.00335379
-0.00338878
-0.00339415
-0.00337619
-0.00336111
-0.00337533
-0.00343244
-0.0034919
-0.000962358
-0.0010945
-0.00136575
-0.00172689
-0.00209779
-0.00243571
-0.0027167
-0.002945
-0.00312501
-0.00326214
-0.0033648
-0.00344256
-0.00349636
-0.00352595
-0.00350701
-0.00337733
-0.00306157
-0.00253991
-0.00196125
-0.00152947
-0.00103332
-0.0011704
-0.0014487
-0.00182118
-0.00220448
-0.00255765
-0.00285479
-0.00310009
-0.00329756
-0.00345313
-0.00356393
-0.00361586
-0.00358477
-0.00342719
-0.00307455
-0.00251424
-0.00188335
-0.00134345
-0.00100632
-0.000940509
-0.00110911
-0.00124616
-0.00152892
-0.0019128
-0.00231653
-0.00269449
-0.00301497
-0.00326963
-0.00346361
-0.00359961
-0.00366919
-0.00361733
-0.00335707
-0.00291553
-0.00241785
-0.00195431
-0.00157201
-0.00128676
-0.00111596
-0.00110468
-0.00118372
-0.00132577
-0.00160995
-0.00199667
-0.00241364
-0.00282557
-0.003205
-0.00352359
-0.00373579
-0.0037621
-0.00355758
-0.00320003
-0.00277562
-0.00235213
-0.00196138
-0.00159954
-0.001274
-0.00101396
-0.000870587
-0.000908153
-0.00125303
-0.00140557
-0.00170417
-0.00210157
-0.00251177
-0.00288044
-0.00317451
-0.00337123
-0.00347767
-0.00351075
-0.0034852
-0.00343627
-0.00332917
-0.00308847
-0.0026665
-0.00206389
-0.00140566
-0.000858828
-0.000547162
-0.000538881
-0.0013157
-0.001464
-0.00175921
-0.00216681
-0.00261399
-0.00305831
-0.0034345
-0.00366185
-0.00368928
-0.00353275
-0.00323786
-0.00287632
-0.00250107
-0.00212504
-0.00176742
-0.00144566
-0.00117178
-0.000967973
-0.000875754
-0.000958982
-0.00137607
-0.0015414
-0.00184424
-0.00224684
-0.00266927
-0.00306719
-0.00339879
-0.00361009
-0.00367029
-0.00355835
-0.0032792
-0.00290861
-0.00255099
-0.00223901
-0.00195773
-0.00169598
-0.00145349
-0.00125024
-0.00113138
-0.00117044
0.0193267
0.0119851
0.00256317
-0.00428409
-0.00668219
-0.00623984
-0.0053665
-0.00501518
-0.00512144
-0.00530307
-0.0053168
-0.00523435
-0.00519411
-0.00515297
-0.0051556
-0.00533441
-0.00552868
-0.00555189
-0.00553772
-0.00561475
-0.00573357
-0.00585565
-0.00596045
-0.00602596
-0.00610928
-0.00626118
-0.00643283
-0.00656802
-0.00668906
-0.00682983
-0.00698046
-0.00711926
-0.00724212
-0.00735646
-0.00747258
-0.00759879
-0.00771745
-0.00781938
-0.00792459
-0.00804891
-0.00818498
-0.00833053
-0.00848399
-0.00863244
-0.00877753
-0.00892325
-0.00907197
-0.0092131
-0.00934863
-0.00948985
-0.00964243
-0.00979428
-0.00993584
-0.0100942
-0.0102631
-0.0104203
-0.0105685
-0.010727
-0.0108921
-0.0110521
-0.0112161
-0.0113794
-0.0115552
-0.0117356
-0.0119112
-0.0120868
-0.0122604
-0.0124514
-0.0126504
-0.0128481
-0.013051
-0.0132512
-0.0134568
-0.0136507
-0.0138557
-0.0140737
-0.0142921
-0.0145205
-0.0147342
-0.0149611
-0.0151946
-0.0154077
-0.0156543
-0.0158853
-0.0161031
-0.0163612
-0.0165922
-0.0168078
-0.0170603
-0.0172895
-0.0175226
-0.0177906
-0.0180158
-0.0182415
-0.018523
-0.0187669
-0.0189952
-0.0192482
-0.0194938
-0.0197335
0.0181115
0.011807
0.00264531
-0.00414395
-0.00659199
-0.00619468
-0.0053385
-0.00499666
-0.00510903
-0.00529421
-0.0053098
-0.0052283
-0.0051888
-0.00514799
-0.00515062
-0.00532996
-0.00552508
-0.00554863
-0.00553452
-0.00561179
-0.00573087
-0.00585319
-0.00595827
-0.00602392
-0.00610728
-0.00625932
-0.00643117
-0.00656649
-0.0066876
-0.00682845
-0.00697918
-0.00711807
-0.007241
-0.00735541
-0.00747159
-0.00759786
-0.0077166
-0.00781858
-0.00792381
-0.00804817
-0.00818428
-0.00832986
-0.00848336
-0.00863185
-0.00877696
-0.0089227
-0.00907145
-0.00921261
-0.00934816
-0.00948939
-0.00964199
-0.00979387
-0.00993544
-0.0100938
-0.0102627
-0.0104199
-0.0105682
-0.0107267
-0.0108918
-0.0110517
-0.0112158
-0.0113792
-0.0115549
-0.0117354
-0.0119109
-0.0120866
-0.0122602
-0.0124512
-0.0126502
-0.0128479
-0.0130508
-0.013251
-0.0134566
-0.0136506
-0.0138556
-0.0140736
-0.0142919
-0.0145204
-0.014734
-0.014961
-0.0151945
-0.0154076
-0.0156542
-0.0158852
-0.016103
-0.0163611
-0.0165921
-0.0168077
-0.0170602
-0.0172895
-0.0175226
-0.0177906
-0.0180157
-0.0182414
-0.0185229
-0.0187669
-0.0189952
-0.0192482
-0.0194938
-0.0197335
0.0171009
0.0116743
0.00283231
-0.00388005
-0.00644042
-0.00613775
-0.00530962
-0.00497399
-0.00509084
-0.00528031
-0.0052993
-0.00522043
-0.00518307
-0.00514342
-0.00514621
-0.00532579
-0.00552144
-0.00554531
-0.00553149
-0.00560912
-0.00572839
-0.00585087
-0.00595619
-0.006022
-0.00610544
-0.00625764
-0.00642967
-0.00656511
-0.00668629
-0.00682723
-0.00697805
-0.00711701
-0.00724001
-0.00735447
-0.0074707
-0.00759703
-0.00771584
-0.00781785
-0.00792311
-0.0080475
-0.00818366
-0.00832927
-0.00848281
-0.00863133
-0.00877647
-0.00892223
-0.00907101
-0.00921218
-0.00934775
-0.00948899
-0.0096416
-0.00979351
-0.00993508
-0.0100934
-0.0102624
-0.0104196
-0.0105679
-0.0107264
-0.0108915
-0.0110515
-0.0112155
-0.0113789
-0.0115547
-0.0117351
-0.0119107
-0.0120864
-0.01226
-0.012451
-0.01265
-0.0128477
-0.0130506
-0.0132508
-0.0134565
-0.0136504
-0.0138554
-0.0140734
-0.0142918
-0.0145202
-0.0147339
-0.0149609
-0.0151944
-0.0154075
-0.0156541
-0.0158851
-0.0161029
-0.016361
-0.016592
-0.0168076
-0.0170602
-0.0172894
-0.0175225
-0.0177905
-0.0180157
-0.0182414
-0.0185229
-0.0187669
-0.0189951
-0.0192482
-0.0194938
-0.0197335
0.0161828
0.0115259
0.00305674
-0.00355679
-0.00623902
-0.00605981
-0.00526846
-0.00493956
-0.00506162
-0.00525691
-0.00528142
-0.00520751
-0.00517446
-0.00513792
-0.00514176
-0.00532092
-0.00551627
-0.00554075
-0.00552806
-0.00560638
-0.00572562
-0.005848
-0.00595358
-0.00601974
-0.00610339
-0.00625571
-0.00642787
-0.00656346
-0.00668483
-0.00682593
-0.00697681
-0.00711582
-0.00723889
-0.00735345
-0.00746974
-0.00759613
-0.007715
-0.00781704
-0.00792234
-0.00804679
-0.00818299
-0.00832865
-0.00848223
-0.00863079
-0.00877595
-0.00892173
-0.00907054
-0.00921174
-0.00934732
-0.00948857
-0.00964121
-0.00979314
-0.00993471
-0.0100931
-0.0102621
-0.0104193
-0.0105676
-0.0107261
-0.0108912
-0.0110512
-0.0112152
-0.0113787
-0.0115544
-0.0117349
-0.0119105
-0.0120862
-0.0122597
-0.0124508
-0.0126498
-0.0128475
-0.0130505
-0.0132507
-0.0134563
-0.0136503
-0.0138553
-0.0140733
-0.0142916
-0.0145201
-0.0147338
-0.0149608
-0.0151943
-0.0154074
-0.015654
-0.015885
-0.0161028
-0.0163609
-0.016592
-0.0168075
-0.0170601
-0.0172893
-0.0175224
-0.0177905
-0.0180156
-0.0182413
-0.0185228
-0.0187668
-0.0189951
-0.0192481
-0.0194938
-0.0197335
0.015267
0.011324
0.00327761
-0.0032197
-0.00601918
-0.00597201
-0.00522131
-0.00489692
-0.00502223
-0.00522332
-0.00525483
-0.00518783
-0.00516119
-0.00513029
-0.00513679
-0.00531482
-0.00550862
-0.00553406
-0.00552375
-0.00560341
-0.00572245
-0.00584432
-0.00595011
-0.00601695
-0.00610101
-0.00625325
-0.00642533
-0.00656119
-0.00668299
-0.00682434
-0.00697525
-0.00711429
-0.0072375
-0.00735223
-0.0074686
-0.00759503
-0.00771393
-0.00781603
-0.00792139
-0.00804591
-0.00818218
-0.00832789
-0.00848155
-0.00863016
-0.00877535
-0.00892117
-0.00907001
-0.00921123
-0.00934682
-0.0094881
-0.00964075
-0.00979273
-0.0099343
-0.0100927
-0.0102617
-0.010419
-0.0105672
-0.0107258
-0.0108909
-0.0110509
-0.011215
-0.0113784
-0.0115542
-0.0117347
-0.0119102
-0.012086
-0.0122595
-0.0124505
-0.0126496
-0.0128473
-0.0130503
-0.0132505
-0.0134562
-0.0136501
-0.0138551
-0.0140731
-0.0142915
-0.01452
-0.0147337
-0.0149606
-0.0151942
-0.0154073
-0.0156539
-0.0158849
-0.0161027
-0.0163608
-0.0165919
-0.0168075
-0.01706
-0.0172893
-0.0175224
-0.0177904
-0.0180156
-0.0182413
-0.0185228
-0.0187668
-0.018995
-0.0192481
-0.0194937
-0.0197336
0.0143544
0.0110707
0.0034884
-0.00287869
-0.00578928
-0.00587954
-0.00517375
-0.0048518
-0.00497763
-0.00518344
-0.00522215
-0.00516279
-0.00514366
-0.00512033
-0.0051309
-0.00530721
-0.00549834
-0.00552508
-0.00551833
-0.00560002
-0.00571879
-0.00583976
-0.00594571
-0.0060137
-0.00609845
-0.00625029
-0.00642188
-0.00655805
-0.00668058
-0.0068223
-0.00697317
-0.0071122
-0.00723566
-0.00735072
-0.00746725
-0.00759368
-0.00771259
-0.00781476
-0.00792021
-0.00804482
-0.00818116
-0.00832695
-0.00848069
-0.00862938
-0.00877464
-0.0089205
-0.00906937
-0.00921063
-0.00934625
-0.00948754
-0.00964022
-0.00979223
-0.00993383
-0.0100922
-0.0102613
-0.0104185
-0.0105668
-0.0107255
-0.0108906
-0.0110506
-0.0112146
-0.0113781
-0.0115538
-0.0117344
-0.01191
-0.0120857
-0.0122593
-0.0124503
-0.0126494
-0.0128471
-0.0130501
-0.0132503
-0.013456
-0.0136499
-0.0138549
-0.014073
-0.0142913
-0.0145198
-0.0147335
-0.0149605
-0.015194
-0.0154071
-0.0156538
-0.0158848
-0.0161026
-0.0163607
-0.0165918
-0.0168073
-0.0170599
-0.0172892
-0.0175223
-0.0177903
-0.0180155
-0.0182412
-0.0185227
-0.0187667
-0.018995
-0.0192481
-0.0194937
-0.0197337
0.0134569
0.0107735
0.00368721
-0.0025353
-0.00554956
-0.00578216
-0.00512671
-0.00480621
-0.00493029
-0.00514002
-0.00518598
-0.00513453
-0.00512336
-0.00510853
-0.00512395
-0.00529817
-0.00548598
-0.00551431
-0.00551191
-0.00559608
-0.00571454
-0.00583435
-0.00594049
-0.00601017
-0.00609591
-0.00624699
-0.00641761
-0.00655405
-0.00667752
-0.00681968
-0.00697041
-0.00710935
-0.00723317
-0.00734878
-0.00746561
-0.00759206
-0.00771096
-0.00781324
-0.0079188
-0.00804348
-0.00817987
-0.00832573
-0.00847957
-0.00862838
-0.00877377
-0.00891968
-0.00906858
-0.0092099
-0.00934557
-0.00948688
-0.00963955
-0.00979162
-0.00993328
-0.0100917
-0.0102608
-0.0104181
-0.0105664
-0.0107251
-0.0108902
-0.0110502
-0.0112143
-0.0113777
-0.0115535
-0.011734
-0.0119096
-0.0120854
-0.012259
-0.01245
-0.0126491
-0.0128469
-0.0130499
-0.0132501
-0.0134557
-0.0136497
-0.0138547
-0.0140728
-0.0142911
-0.0145196
-0.0147333
-0.0149603
-0.0151939
-0.015407
-0.0156536
-0.0158847
-0.0161024
-0.0163606
-0.0165917
-0.0168072
-0.0170598
-0.0172891
-0.0175221
-0.0177902
-0.0180154
-0.0182411
-0.0185226
-0.0187667
-0.0189949
-0.019248
-0.0194937
-0.0197337
0.0125848
0.0104368
0.00386974
-0.00219148
-0.0052995
-0.00567838
-0.00507978
-0.00476076
-0.00488104
-0.00509401
-0.00514741
-0.00510418
-0.00510122
-0.00509528
-0.00511598
-0.00528804
-0.00547226
-0.00550237
-0.00550476
-0.00559161
-0.00570966
-0.00582815
-0.00593462
-0.00600644
-0.00609349
-0.00624359
-0.00641282
-0.00654944
-0.00667396
-0.00681655
-0.00696694
-0.00710567
-0.00722993
-0.00734627
-0.00746355
-0.00759006
-0.00770903
-0.00781152
-0.00791725
-0.00804195
-0.00817834
-0.00832422
-0.00847812
-0.00862708
-0.00877264
-0.00891865
-0.0090676
-0.009209
-0.00934477
-0.00948608
-0.00963873
-0.00979086
-0.00993261
-0.010091
-0.0102601
-0.0104174
-0.0105659
-0.0107246
-0.0108898
-0.0110497
-0.0112139
-0.0113773
-0.0115531
-0.0117337
-0.0119093
-0.0120851
-0.0122586
-0.0124496
-0.0126488
-0.0128466
-0.0130496
-0.0132498
-0.0134555
-0.0136494
-0.0138544
-0.0140725
-0.0142909
-0.0145194
-0.0147331
-0.0149601
-0.0151937
-0.0154068
-0.0156534
-0.0158845
-0.0161022
-0.0163604
-0.0165915
-0.016807
-0.0170596
-0.0172889
-0.017522
-0.0177901
-0.0180153
-0.018241
-0.0185226
-0.0187666
-0.0189948
-0.019248
-0.0194937
-0.0197338
0.0117463
0.0100634
0.00403007
-0.00184979
-0.00503831
-0.00556618
-0.00503225
-0.00471596
-0.00483041
-0.00504574
-0.00510683
-0.00507221
-0.00507763
-0.00508081
-0.00510716
-0.0052772
-0.00545771
-0.00548963
-0.00549703
-0.00558666
-0.00570425
-0.00582134
-0.00592822
-0.00600251
-0.00609112
-0.00624016
-0.00640781
-0.00654455
-0.00667016
-0.00681306
-0.00696291
-0.00710128
-0.00722596
-0.00734315
-0.00746096
-0.00758759
-0.00770674
-0.00780964
-0.00791565
-0.00804036
-0.00817668
-0.00832247
-0.00847635
-0.00862543
-0.0087712
-0.00891734
-0.00906636
-0.0092079