/*--------------------------------*- C++ -*----------------------------------*\
| =========                 |                                                 |
| \\      /  F ield         | OpenFOAM: The Open Source CFD Toolbox           |
|  \\    /   O peration     | Version:  v1906                                 |
|   \\  /    A nd           | Web:      www.OpenFOAM.com                      |
|    \\/     M anipulation  |                                                 |
\*---------------------------------------------------------------------------*/
FoamFile
{
    version     2.0;
    format      ascii;
    class       surfaceScalarField;
    location    "1.3";
    object      phi;
}
// * * * * * * * * * * * * * * * * * * * * * * * * * * * * * * * * * * * * * //

dimensions      [0 3 -1 0 0 0 0];
oriented        oriented;


internalField   nonuniform List<scalar> 
19000
(
1.18264e-06
2.83294e-07
1.14264e-06
-1.92811e-07
1.16245e-06
-3.6924e-07
1.18851e-06
1.53043e-07
1.15334e-06
3.53301e-07
1.12508e-06
-2.67579e-07
1.18048e-06
1.82821e-07
1.15536e-06
-3.50879e-07
1.1737e-06
-1.11226e-07
1.17097e-06
1.60977e-07
1.15693e-06
-1.19509e-07
1.15794e-06
1.51981e-07
1.15526e-06
1.05145e-07
1.15244e-06
2.98286e-07
1.15644e-06
1.42118e-08
1.14963e-06
7.09437e-08
1.15911e-06
-2.48316e-08
1.15194e-06
-7.66389e-08
1.15602e-06
6.9389e-09
-1.70682e-07
1.10984e-06
1.23584e-06
2.7172e-07
1.19768e-06
-1.54658e-07
1.21801e-06
-3.89572e-07
1.24621e-06
1.24845e-07
1.20805e-06
3.91464e-07
1.18149e-06
-2.41024e-07
1.23249e-06
1.31828e-07
1.21117e-06
-3.29557e-07
1.2266e-06
-1.26662e-07
1.23157e-06
1.56013e-07
1.21312e-06
-1.01068e-07
1.21917e-06
1.45938e-07
1.20891e-06
1.154e-07
1.2182e-06
2.89003e-07
1.20965e-06
2.27616e-08
1.21843e-06
6.21592e-08
1.20889e-06
-1.52859e-08
1.22185e-06
-8.96041e-08
1.20085e-06
2.7941e-08
-1.63359e-07
1.19353e-06
1.29026e-06
2.64246e-07
1.25823e-06
-1.22629e-07
1.27504e-06
-4.06385e-07
1.30528e-06
9.46061e-08
1.26697e-06
4.29774e-07
1.24415e-06
-2.18206e-07
1.28644e-06
8.95357e-08
1.27468e-06
-3.17793e-07
1.2811e-06
-1.33077e-07
1.29523e-06
1.41883e-07
1.27153e-06
-7.7372e-08
1.28e-06
1.3747e-07
1.26531e-06
1.30092e-07
1.27836e-06
2.75946e-07
1.26715e-06
3.39704e-08
1.27668e-06
5.26324e-08
1.26834e-06
-6.94609e-09
1.27536e-06
-9.66262e-08
1.26754e-06
3.57644e-08
-1.45983e-07
1.25016e-06
1.34724e-06
2.61114e-07
1.32402e-06
-9.94188e-08
1.3347e-06
-4.17059e-07
1.36415e-06
6.51578e-08
1.32998e-06
4.63943e-07
1.31241e-06
-2.00642e-07
1.34412e-06
5.78261e-08
1.34221e-06
-3.15878e-07
1.34035e-06
-1.31216e-07
1.35756e-06
1.2467e-07
1.33441e-06
-5.42261e-08
1.33812e-06
1.33762e-07
1.32705e-06
1.41166e-07
1.33681e-06
2.66186e-07
1.32985e-06
4.0927e-08
1.33596e-06
4.65261e-08
1.33142e-06
-2.40883e-09
1.33393e-06
-9.91386e-08
1.33085e-06
3.88507e-08
-1.26826e-07
1.31169e-06
1.40796e-06
2.61507e-07
1.39366e-06
-8.51208e-08
1.39788e-06
-4.21274e-07
1.42298e-06
4.00609e-08
1.39697e-06
4.89952e-07
1.38467e-06
-1.88342e-07
1.40652e-06
3.59697e-08
1.4104e-06
-3.19758e-07
1.40496e-06
-1.25772e-07
1.41937e-06
1.10255e-07
1.40137e-06
-3.62273e-08
1.39968e-06
1.35454e-07
1.39341e-06
1.47439e-07
1.40119e-06
2.58404e-07
1.39689e-06
4.52231e-08
1.40179e-06
4.16297e-08
1.39798e-06
1.40062e-09
1.39856e-06
-9.97212e-08
1.39645e-06
4.09595e-08
-1.07329e-07
1.37696e-06
1.4734e-06
2.63785e-07
1.46597e-06
-7.76932e-08
1.46526e-06
-4.20567e-07
1.48352e-06
2.18007e-08
1.46744e-06
5.06032e-07
1.45967e-06
-1.80563e-07
1.4738e-06
2.18384e-08
1.47876e-06
-3.24718e-07
1.47338e-06
-1.20401e-07
1.48324e-06
1.00404e-07
1.4706e-06
-2.35919e-08
1.46712e-06
1.38937e-07
1.4638e-06
1.50761e-07
1.47149e-06
2.50708e-07
1.46787e-06
4.88444e-08
1.47225e-06
3.72534e-08
1.46828e-06
5.36217e-09
1.46694e-06
-9.83748e-08
1.46564e-06
4.22583e-08
-8.71633e-08
1.44547e-06
1.54384e-06
2.66157e-07
1.54061e-06
-7.44552e-08
1.53696e-06
-4.16916e-07
1.54794e-06
1.08121e-08
1.54085e-06
5.13131e-07
1.53677e-06
-1.76488e-07
1.54541e-06
1.3197e-08
1.54844e-06
-3.27749e-07
1.544e-06
-1.15955e-07
1.55034e-06
9.40653e-08
1.54135e-06
-1.46106e-08
1.53901e-06
1.41284e-07
1.53755e-06
1.52217e-07
1.54554e-06
2.42715e-07
1.54185e-06
5.25412e-08
1.54559e-06
3.35093e-08
1.54152e-06
9.43526e-09
1.5381e-06
-9.49583e-08
1.53757e-06
4.27904e-08
-6.65411e-08
1.51695e-06
1.61888e-06
2.67402e-07
1.61774e-06
-7.33109e-08
1.61246e-06
-4.1164e-07
1.61758e-06
5.69522e-09
1.61704e-06
5.13671e-07
1.61578e-06
-1.75224e-07
1.62071e-06
8.26233e-09
1.62079e-06
-3.27825e-07
1.61658e-06
-1.11746e-07
1.62091e-06
8.97315e-08
1.61419e-06
-7.89008e-09
1.61386e-06
1.41619e-07
1.61389e-06
1.52185e-07
1.62212e-06
2.34481e-07
1.61824e-06
5.64276e-08
1.62128e-06
3.04644e-08
1.61734e-06
1.3373e-08
1.61196e-06
-8.95753e-08
1.61212e-06
4.26298e-08
-4.59171e-08
1.5915e-06
1.69785e-06
2.67131e-07
1.69764e-06
-7.31055e-08
1.6912e-06
-4.05204e-07
1.69267e-06
4.226e-09
1.69635e-06
5.09991e-07
1.69679e-06
-1.75661e-07
1.69929e-06
5.76137e-09
1.69668e-06
-3.25207e-07
1.69198e-06
-1.07051e-07
1.69527e-06
8.64424e-08
1.69006e-06
-2.67885e-09
1.69139e-06
1.40283e-07
1.69258e-06
1.50999e-07
1.70101e-06
2.26053e-07
1.69714e-06
6.02914e-08
1.69947e-06
2.81437e-08
1.69596e-06
1.68801e-08
1.68885e-06
-8.24639e-08
1.68957e-06
4.19021e-08
-2.58202e-08
1.66948e-06
1.78031e-06
2.65547e-07
1.78056e-06
-7.33615e-08
1.77296e-06
-3.97607e-07
1.77283e-06
4.3641e-09
1.77919e-06
5.03629e-07
1.78015e-06
-1.76623e-07
1.78107e-06
4.84001e-09
1.77654e-06
-3.20672e-07
1.77116e-06
-1.01674e-07
1.7739e-06
8.37017e-08
1.76978e-06
1.44242e-09
1.77208e-06
1.37977e-07
1.77405e-06
1.49033e-07
1.78257e-06
2.17537e-07
1.77904e-06
6.38167e-08
1.7806e-06
2.65898e-08
1.77772e-06
1.9759e-08
1.76919e-06
-7.39379e-08
1.77024e-06
4.08494e-08
-6.79001e-09
1.75121e-06
1.86624e-06
2.63052e-07
1.86679e-06
-7.39033e-08
1.85797e-06
-3.88788e-07
1.85758e-06
4.74677e-09
1.86579e-06
4.9542e-07
1.86633e-06
-1.77164e-07
1.86623e-06
4.94555e-09
1.86054e-06
-3.1498e-07
1.8547e-06
-9.58399e-08
1.85718e-06
8.12259e-08
1.8539e-06
4.72349e-09
1.85652e-06
1.35353e-07
1.85897e-06
1.46585e-07
1.86738e-06
2.0912e-07
1.86444e-06
6.67629e-08
1.86517e-06
2.58563e-08
1.86295e-06
2.19854e-08
1.85337e-06
-6.43606e-08
1.85438e-06
3.98352e-08
1.06657e-08
1.83693e-06
1.9559e-06
2.59988e-07
1.95664e-06
-7.46408e-08
1.94665e-06
-3.78795e-07
1.9467e-06
4.69791e-09
1.95629e-06
4.85823e-07
1.95587e-06
-1.76745e-07
1.9551e-06
5.71614e-09
1.94877e-06
-3.08651e-07
1.94287e-06
-8.99338e-08
1.94523e-06
7.88642e-08
1.94267e-06
7.27997e-09
1.94514e-06
1.32885e-07
1.94791e-06
1.43816e-07
1.95601e-06
2.01021e-07
1.95374e-06
6.90313e-08
1.95364e-06
2.59634e-08
1.95192e-06
2.37054e-08
1.94168e-06
-5.41283e-08
1.94226e-06
3.92586e-08
2.61642e-08
1.92676e-06
2.0496e-06
2.56573e-07
2.05047e-06
-7.55084e-08
2.03946e-06
-3.67782e-07
2.04013e-06
4.02583e-09
2.05081e-06
4.7514e-07
2.04928e-06
-1.75206e-07
2.0481e-06
6.89308e-09
2.04138e-06
-3.01931e-07
2.03577e-06
-8.43231e-08
2.03802e-06
7.66098e-08
2.03617e-06
9.13185e-09
2.0382e-06
1.30852e-07
2.04125e-06
1.40765e-07
2.04885e-06
1.93422e-07
2.04723e-06
7.06488e-08
2.04635e-06
2.68481e-08
2.04486e-06
2.51918e-08
2.03439e-06
-4.36567e-08
2.03423e-06
3.94202e-08
3.95369e-08
2.02086e-06
2.14765e-06
2.52928e-07
2.1486e-06
-7.64611e-08
2.13678e-06
-3.55962e-07
2.13799e-06
2.81132e-09
2.14953e-06
4.63602e-07
2.14695e-06
-1.72628e-07
2.14559e-06
8.26101e-09
2.13851e-06
-2.94861e-07
2.13347e-06
-7.92788e-08
2.1355e-06
7.4582e-08
2.13437e-06
1.02568e-08
2.13584e-06
1.2939e-07
2.13919e-06
1.3741e-07
2.1462e-06
1.86418e-07
2.14511e-06
7.17358e-08
2.14361e-06
2.83421e-08
2.14203e-06
2.67749e-08
2.13171e-06
-3.33326e-08
2.13068e-06
4.04471e-08
5.08356e-08
2.11938e-06
2.25029e-06
2.49124e-07
2.2513e-06
-7.74725e-08
2.2389e-06
-3.43552e-07
2.24046e-06
1.2509e-09
2.25267e-06
4.51387e-07
2.24923e-06
-1.6919e-07
2.24788e-06
9.61588e-09
2.24038e-06
-2.87359e-07
2.23606e-06
-7.49656e-08
2.23768e-06
7.29642e-08
2.23731e-06
1.06303e-08
2.23817e-06
1.28528e-07
2.24185e-06
1.33729e-07
2.24828e-06
1.79985e-07
2.24754e-06
7.24767e-08
2.24569e-06
3.0194e-08
2.24368e-06
2.87822e-08
2.23382e-06
-2.34692e-08
2.23199e-06
4.22786e-08
6.02966e-08
2.22253e-06
2.3578e-06
2.45198e-07
2.35885e-06
-7.85266e-08
2.34605e-06
-3.30751e-07
2.34775e-06
-4.4361e-10
2.36051e-06
4.38628e-07
2.35638e-06
-1.6506e-07
2.35523e-06
1.076e-08
2.34717e-06
-2.79297e-07
2.34367e-06
-7.14645e-08
2.3447e-06
7.1939e-08
2.34508e-06
1.02465e-08
2.34538e-06
1.28227e-07
2.34936e-06
1.29747e-07
2.35535e-06
1.73991e-07
2.35472e-06
7.31069e-08
2.3528e-06
3.21148e-08
2.35013e-06
3.14545e-08
2.3409e-06
-1.42405e-08
2.33846e-06
4.47226e-08
6.82488e-08
2.33051e-06
2.47042e-06
2.41174e-07
2.4715e-06
-7.96114e-08
2.45847e-06
-3.17717e-07
2.46012e-06
-2.09746e-09
2.47334e-06
4.25415e-07
2.46862e-06
-1.60347e-07
2.46787e-06
1.15139e-08
2.45912e-06
-2.70549e-07
2.45646e-06
-6.88062e-08
2.45676e-06
7.16455e-08
2.45787e-06
9.13049e-09
2.45771e-06
1.28386e-07
2.4619e-06
1.25563e-07
2.46768e-06
1.68215e-07
2.46688e-06
7.39013e-08
2.46516e-06
3.38375e-08
2.46176e-06
3.48498e-08
2.45311e-06
-5.58754e-09
2.45034e-06
4.74936e-08
7.50157e-08
2.44357e-06
2.58841e-06
2.3706e-07
2.58951e-06
-8.07167e-08
2.57636e-06
-3.04563e-07
2.57785e-06
-3.58629e-09
2.59147e-06
4.11789e-07
2.58622e-06
-1.55088e-07
2.586e-06
1.17311e-08
2.57646e-06
-2.61011e-07
2.57465e-06
-6.69985e-08
2.57414e-06
7.21614e-08
2.57592e-06
7.34773e-09
2.57546e-06
1.28848e-07
2.57967e-06
1.21353e-07
2.58551e-06
1.62377e-07
2.58427e-06
7.51356e-08
2.58292e-06
3.51905e-08
2.57895e-06
3.88216e-08
2.5706e-06
2.75976e-09
2.56783e-06
5.02573e-08
8.08492e-08
2.562e-06
2.71203e-06
2.32858e-07
2.71315e-06
-8.18334e-08
2.69995e-06
-2.91368e-07
2.70119e-06
-4.8243e-09
2.71523e-06
3.97752e-07
2.70941e-06
-1.49265e-07
2.70983e-06
1.1305e-08
2.69944e-06
-2.50618e-07
2.69848e-06
-6.60351e-08
2.69714e-06
7.34936e-08
2.69948e-06
5.01554e-09
2.69892e-06
1.29401e-07
2.7029e-06
1.17375e-07
2.70909e-06
1.56186e-07
2.70719e-06
7.70406e-08
2.70623e-06
3.61473e-08
2.70199e-06
4.30638e-08
2.69361e-06
1.11393e-08
2.69112e-06
5.27487e-08
8.58729e-08
2.68609e-06
2.84156e-06
2.28564e-07
2.84268e-06
-8.29518e-08
2.8295e-06
-2.78191e-07
2.83042e-06
-5.74456e-09
2.8449e-06
3.83275e-07
2.83847e-06
-1.42834e-07
2.83961e-06
1.01682e-08
2.82833e-06
-2.39339e-07
2.82818e-06
-6.58895e-08
2.8261e-06
7.55749e-08
2.82881e-06
2.30612e-09
2.82843e-06
1.29783e-07
2.83188e-06
1.13925e-07
2.83865e-06
1.49411e-07
2.83599e-06
7.96991e-08
2.83525e-06
3.68865e-08
2.83113e-06
4.71848e-08
2.82249e-06
1.97805e-08
2.82034e-06
5.49023e-08
9.00624e-08
2.81615e-06
2.97728e-06
2.24175e-07
2.97839e-06
-8.40596e-08
2.96529e-06
-2.65085e-07
2.96582e-06
-6.28276e-09
2.98079e-06
3.6831e-07
2.9737e-06
-1.35739e-07
2.97558e-06
8.28743e-09
2.96342e-06
-2.27182e-07
2.96403e-06
-6.64996e-08
2.96134e-06
7.82622e-08
2.96419e-06
-5.44693e-10
2.96428e-06
1.29692e-07
2.96691e-06
1.113e-07
2.97439e-06
1.41933e-07
2.97108e-06
8.30027e-08
2.97018e-06
3.77851e-08
2.96659e-06
5.07771e-08
2.95765e-06
2.87193e-08
2.95568e-06
5.68779e-08
9.32874e-08
2.95245e-06
3.1195e-06
2.19684e-07
3.12058e-06
-8.51379e-08
3.1076e-06
-2.52112e-07
3.10769e-06
-6.36701e-09
3.12319e-06
3.52805e-07
3.11539e-06
-1.27938e-07
3.11802e-06
5.65933e-09
3.10503e-06
-2.14197e-07
3.10629e-06
-6.77536e-08
3.10321e-06
8.13398e-08
3.10591e-06
-3.24431e-09
3.10679e-06
1.28814e-07
3.10835e-06
1.0974e-07
3.11649e-06
1.33787e-07
3.11281e-06
8.66903e-08
3.11131e-06
3.92847e-08
3.10851e-06
5.35719e-08
3.0995e-06
3.77341e-08
3.09736e-06
5.90172e-08
9.5398e-08
3.09525e-06
3.26851e-06
2.15082e-07
3.26953e-06
-8.61586e-08
3.25677e-06
-2.39348e-07
3.25632e-06
-5.91362e-09
3.27241e-06
3.3671e-07
3.26388e-06
-1.19405e-07
3.26722e-06
2.31345e-09
3.25351e-06
-2.00487e-07
3.25524e-06
-6.94767e-08
3.25205e-06
8.45267e-08
3.25427e-06
-5.46427e-09
3.25621e-06
1.26874e-07
3.25659e-06
1.09362e-07
3.2652e-06
1.25178e-07
3.26151e-06
9.03772e-08
3.259e-06
4.17939e-08
3.25709e-06
5.5476e-08
3.24836e-06
4.64668e-08
3.24571e-06
6.16687e-08
9.63529e-08
3.24476e-06
3.42466e-06
2.10357e-07
3.42558e-06
-8.70816e-08
3.41312e-06
-2.26888e-07
3.41203e-06
-4.82777e-09
3.42875e-06
3.19991e-07
3.41949e-06
-1.10145e-07
3.42349e-06
-1.68059e-09
3.40922e-06
-1.86219e-07
3.41117e-06
-7.14277e-08
3.4082e-06
8.74952e-08
3.40962e-06
-6.88039e-09
3.4128e-06
1.23696e-07
3.41202e-06
1.10135e-07
3.42076e-06
1.1644e-07
3.41747e-06
9.36746e-08
3.41374e-06
4.552e-08
3.41257e-06
5.66453e-08
3.40454e-06
5.44931e-08
3.40115e-06
6.50646e-08
9.63027e-08
3.4012e-06
3.58827e-06
2.05493e-07
3.58905e-06
-8.78524e-08
3.57701e-06
-2.14851e-07
3.57519e-06
-3.00662e-09
3.59255e-06
3.02627e-07
3.5826e-06
-1.00198e-07
3.58713e-06
-6.20536e-09
3.57254e-06
-1.71628e-07
3.57442e-06
-7.33086e-08
3.57201e-06
8.99014e-08
3.57235e-06
-7.22057e-09
3.5768e-06
1.19251e-07
3.57507e-06
1.11858e-07
3.58351e-06
1.08006e-07
3.58095e-06
9.62354e-08
3.576e-06
5.04697e-08
3.57523e-06
5.741e-08
3.56831e-06
6.14188e-08
3.56414e-06
6.92352e-08
9.56112e-08
3.56483e-06
3.75973e-06
2.00471e-07
3.76027e-06
-8.83997e-08
3.7488e-06
-2.03376e-07
3.74614e-06
-3.4634e-10
3.76414e-06
2.84628e-07
3.75359e-06
-8.96453e-08
3.75846e-06
-1.10837e-08
3.74386e-06
-1.57022e-07
3.74533e-06
-7.4776e-08
3.7438e-06
9.14239e-08
3.7429e-06
-6.31779e-09
3.74847e-06
1.13684e-07
3.74613e-06
1.14201e-07
3.75378e-06
1.00351e-07
3.75222e-06
9.77915e-08
3.7462e-06
5.64926e-08
3.74547e-06
5.81425e-08
3.7399e-06
6.69883e-08
3.73515e-06
7.39835e-08
9.47941e-08
3.73597e-06
3.93939e-06
1.95266e-07
3.93963e-06
-8.86359e-08
3.92888e-06
-1.92626e-07
3.92529e-06
3.24623e-09
3.94387e-06
2.66045e-07
3.93285e-06
-7.86236e-08
3.93783e-06
-1.60696e-08
3.92359e-06
-1.42779e-07
3.92429e-06
-7.54759e-08
3.92389e-06
9.18247e-08
3.92174e-06
-4.16336e-09
3.92812e-06
1.07298e-07
3.92553e-06
1.16792e-07
3.93202e-06
9.38591e-08
3.93154e-06
9.82719e-08
3.92477e-06
6.3263e-08
3.92372e-06
5.91955e-08
3.91959e-06
7.11174e-08
3.91464e-06
7.89305e-08
9.43879e-08
3.91505e-06
4.12767e-06
1.89847e-07
4.12749e-06
-8.8457e-08
4.11764e-06
-1.82776e-07
4.11304e-06
7.84221e-09
4.13211e-06
2.46981e-07
4.12082e-06
-6.73344e-08
4.1256e-06
-2.08508e-08
4.11213e-06
-1.29306e-07
4.11176e-06
-7.51045e-08
4.11256e-06
9.10187e-08
4.10933e-06
-9.3086e-10
4.11612e-06
1.00505e-07
4.11362e-06
1.19297e-07
4.1187e-06
8.87766e-08
4.11922e-06
9.77514e-08
4.1121e-06
7.03845e-08
4.11044e-06
6.08527e-08
4.10769e-06
7.38666e-08
4.103e-06
8.36216e-08
9.478e-08
4.10261e-06
4.32497e-06
1.84182e-07
4.32426e-06
-8.77491e-08
4.31548e-06
-1.74001e-07
4.30985e-06
1.34733e-08
4.32923e-06
2.27609e-07
4.31795e-06
-5.60592e-08
4.32214e-06
-2.50444e-08
4.30987e-06
-1.17034e-07
4.30822e-06
-7.34493e-08
4.31012e-06
8.91125e-08
4.30612e-06
3.06752e-09
4.31289e-06
9.37351e-08
4.3107e-06
1.21489e-07
4.31427e-06
8.5208e-08
4.31563e-06
9.6389e-08
4.30858e-06
7.74355e-08
4.30614e-06
6.32985e-08
4.30455e-06
7.54502e-08
4.30057e-06
8.76084e-08
9.6082e-08
4.29926e-06
4.53172e-06
1.78235e-07
4.53036e-06
-8.63909e-08
4.52281e-06
-1.66453e-07
4.51619e-06
2.00983e-08
4.53562e-06
2.08181e-07
4.5247e-06
-4.51435e-08
4.5279e-06
-2.82433e-08
4.51718e-06
-1.06314e-07
4.51421e-06
-7.04816e-08
4.51692e-06
8.64045e-08
4.51252e-06
7.47231e-09
4.51891e-06
8.73414e-08
4.51709e-06
1.23312e-07
4.51918e-06
8.31144e-08
4.52121e-06
9.43611e-08
4.51463e-06
8.4018e-08
4.51135e-06
6.6578e-08
4.51057e-06
7.62243e-08
4.50765e-06
9.05273e-08
9.80914e-08
4.50564e-06
4.74838e-06
1.71971e-07
4.74625e-06
-8.42593e-08
4.74003e-06
-1.60238e-07
4.73255e-06
2.75798e-08
4.7517e-06
1.89035e-07
4.74154e-06
-3.4989e-08
4.74334e-06
-3.00372e-08
4.73436e-06
-9.73397e-08
4.73028e-06
-6.6396e-08
4.73337e-06
8.33072e-08
4.72886e-06
1.1989e-08
4.73466e-06
8.15393e-08
4.73314e-06
1.24827e-07
4.73386e-06
8.24018e-08
4.73643e-06
9.1788e-08
4.73064e-06
8.98116e-08
4.72663e-06
7.05857e-08
4.72623e-06
7.6627e-08
4.72456e-06
9.21979e-08
1.00346e-07
4.7223e-06
4.97541e-06
1.65357e-07
4.97239e-06
-8.12397e-08
4.96755e-06
-1.554e-07
4.95947e-06
3.56604e-08
4.97792e-06
1.70585e-07
4.96894e-06
-2.60069e-08
4.96899e-06
-3.00882e-08
4.96174e-06
-9.00888e-08
4.95692e-06
-6.15782e-08
4.95995e-06
8.02756e-08
4.9555e-06
1.64478e-08
4.9606e-06
7.64387e-08
4.95934e-06
1.26088e-07
4.95879e-06
8.2946e-08
4.96183e-06
8.87533e-08
4.95707e-06
9.45709e-08
4.9525e-06
7.51563e-08
4.9521e-06
7.70235e-08
4.95159e-06
9.2709e-08
1.02266e-07
4.94967e-06
5.21331e-06
1.58366e-07
5.2093e-06
-7.7236e-08
5.20581e-06
-1.51905e-07
5.19751e-06
4.39641e-08
5.21481e-06
1.53279e-07
5.20736e-06
-1.85503e-08
5.20553e-06
-2.82627e-08
5.1997e-06
-8.42625e-08
5.19462e-06
-5.64983e-08
5.19719e-06
7.77104e-08
5.19279e-06
2.08482e-08
5.19719e-06
7.20384e-08
5.19619e-06
1.27087e-07
5.19459e-06
8.45421e-08
5.19792e-06
8.54314e-08
5.1944e-06
9.80921e-08
5.18944e-06
8.01101e-08
5.18882e-06
7.76478e-08
5.18917e-06
9.23605e-08
1.0337e-07
5.18806e-06
5.46258e-06
1.5098e-07
5.45752e-06
-7.21837e-08
5.45526e-06
-1.49641e-07
5.44722e-06
5.19986e-08
5.46293e-06
1.37577e-07
5.45723e-06
-1.2857e-08
5.45362e-06
-2.46532e-08
5.44868e-06
-7.93223e-08
5.44381e-06
-5.16301e-08
5.44565e-06
7.58729e-08
5.44117e-06
2.53338e-08
5.44497e-06
6.82368e-08
5.44438e-06
1.27672e-07
5.44188e-06
8.7047e-08
5.44524e-06
8.20683e-08
5.44311e-06
1.00221e-07
5.43797e-06
8.52479e-08
5.43698e-06
7.86411e-08
5.43785e-06
9.14938e-08
1.03461e-07
5.43776e-06
5.72375e-06
1.43192e-07
5.71762e-06
-6.60624e-08
5.71642e-06
-1.48432e-07
5.7092e-06
5.92101e-08
5.72288e-06
1.23902e-07
5.719e-06
-8.98087e-09
5.71388e-06
-1.95306e-08
5.70921e-06
-7.46525e-08
5.70487e-06
-4.7294e-08
5.70588e-06
7.48642e-08
5.70113e-06
3.00843e-08
5.70452e-06
6.48489e-08
5.70456e-06
1.2763e-07
5.70127e-06
9.03381e-08
5.70435e-06
7.89876e-08
5.70371e-06
1.00866e-07
5.69863e-06
9.03217e-08
5.69716e-06
8.01106e-08
5.6983e-06
9.03611e-08
1.02628e-07
5.69913e-06
5.99737e-06
1.35011e-07
5.99022e-06
-5.89035e-08
5.98983e-06
-1.48046e-07
5.98399e-06
6.50456e-08
5.99532e-06
1.12572e-07
5.99308e-06
-6.73745e-09
5.98688e-06
-1.3327e-08
5.9819e-06
-6.96731e-08
5.97816e-06
-4.35537e-08
5.97841e-06
7.46101e-08
5.97326e-06
3.52407e-08
5.97638e-06
6.17281e-08
5.97732e-06
1.26687e-07
5.9734e-06
9.42597e-08
5.97586e-06
7.6522e-08
5.97667e-06
1.00056e-07
5.97199e-06
9.50029e-08
5.96995e-06
8.21479e-08
5.97119e-06
8.91248e-08
1.01107e-07
5.97271e-06
6.28404e-06
1.26458e-07
6.27593e-06
-5.07971e-08
6.27608e-06
-1.48191e-07
6.27204e-06
6.90828e-08
6.28093e-06
1.03683e-07
6.28001e-06
-5.8182e-09
6.27318e-06
-6.49242e-09
6.26738e-06
-6.38789e-08
6.26415e-06
-4.03234e-08
6.26382e-06
7.49468e-08
6.25816e-06
4.08954e-08
6.26113e-06
5.87578e-08
6.26319e-06
1.24632e-07
6.25891e-06
9.85357e-08
6.26044e-06
7.4992e-08
6.26252e-06
9.79754e-08
6.25862e-06
9.8903e-08
6.25599e-06
8.47778e-08
6.25717e-06
8.79452e-08
9.91056e-08
6.25917e-06
6.58435e-06
1.17576e-07
6.57544e-06
-4.18866e-08
6.57579e-06
-1.48537e-07
6.57382e-06
7.10522e-08
6.58037e-06
9.71266e-08
6.58045e-06
-5.89426e-09
6.57335e-06
6.09043e-10
6.56641e-06
-5.69363e-08
6.56349e-06
-3.74098e-08
6.56291e-06
7.55323e-08
6.55676e-06
4.70389e-08
6.55946e-06
5.6061e-08
6.56273e-06
1.21367e-07
6.55845e-06
1.02808e-07
6.55881e-06
7.46354e-08
6.56181e-06
9.49727e-08
6.55908e-06
1.0164e-07
6.55596e-06
8.78905e-08
6.55687e-06
8.70378e-08
9.67556e-08
6.55922e-06
6.89894e-06
1.08424e-07
6.88942e-06
-3.2368e-08
6.88961e-06
-1.48722e-07
6.88988e-06
7.07845e-08
6.89435e-06
9.26539e-08
6.89513e-06
-6.6711e-09
6.88806e-06
7.67177e-09
6.87973e-06
-4.86063e-08
6.87698e-06
-3.46558e-08
6.87662e-06
7.58949e-08
6.87007e-06
5.35852e-08
6.87211e-06
5.40217e-08
6.87653e-06
1.16949e-07
6.87265e-06
1.0669e-07
6.87174e-06
7.55415e-08
6.87521e-06
9.1502e-08
6.87388e-06
1.02971e-07
6.87057e-06
9.11948e-08
6.87098e-06
8.66279e-08
9.41963e-08
6.87354e-06
7.22848e-06
9.90804e-08
7.21859e-06
-2.24785e-08
7.21824e-06
-1.48368e-07
7.22079e-06
6.82308e-08
7.2236e-06
8.98433e-08
7.22475e-06
-7.81971e-09
7.21804e-06
1.43853e-08
7.20814e-06
-3.87113e-08
7.20533e-06
-3.18436e-08
7.20561e-06
7.56124e-08
7.19881e-06
6.03823e-08
7.19985e-06
5.29805e-08
7.20521e-06
1.11593e-07
7.20208e-06
1.09818e-07
7.20003e-06
7.75961e-08
7.20346e-06
8.80674e-08
7.20359e-06
1.02844e-07
7.2005e-06
9.42869e-08
7.20029e-06
8.68316e-08
9.16518e-08
7.20284e-06
7.57366e-06
8.96473e-08
7.56366e-06
-1.24833e-08
7.56239e-06
-1.47091e-07
7.5672e-06
6.34172e-08
7.56878e-06
8.82613e-08
7.56999e-06
-9.03154e-09
7.56397e-06
2.04104e-08
7.55249e-06
-2.72347e-08
7.54928e-06
-2.86288e-08
7.55047e-06
7.44153e-08
7.54373e-06
6.71298e-08
7.54352e-06
5.31881e-08
7.54945e-06
1.0566e-07
7.5474e-06
1.11868e-07
7.54447e-06
8.05287e-08
7.54739e-06
8.5145e-08
7.54884e-06
1.01397e-07
7.54637e-06
9.67589e-08
7.54561e-06
8.7587e-08
8.93977e-08
7.54787e-06
7.93521e-06
8.02466e-08
7.92541e-06
-2.68224e-09
7.9228e-06
-1.44481e-07
7.92977e-06
5.64535e-08
7.93048e-06
8.75456e-08
7.93143e-06
-9.97627e-09
7.92653e-06
2.53107e-08
7.91377e-06
-1.44809e-08
7.90956e-06
-2.44183e-08
7.9118e-06
7.2176e-08
7.90551e-06
7.34176e-08
7.90396e-06
5.47442e-08
7.91003e-06
9.95839e-08
7.90926e-06
1.12645e-07
7.9058e-06
8.39886e-08
7.90791e-06
8.30271e-08
7.91036e-06
9.89534e-08
7.90881e-06
9.83032e-08
7.90773e-06
8.86668e-08
8.76549e-08
7.90948e-06
8.31391e-06
7.10166e-08
8.30462e-06
6.60715e-09
8.30033e-06
-1.40191e-07
8.30918e-06
4.76068e-08
8.30942e-06
8.73024e-08
8.30968e-06
-1.02337e-08
8.30628e-06
2.87099e-08
8.29283e-06
-1.03163e-09
8.28712e-06
-1.87027e-08
8.2902e-06
6.90958e-08
8.28484e-06
7.87759e-08
8.28206e-06
5.75258e-08
8.28781e-06
9.38279e-08
8.28834e-06
1.12118e-07
8.28475e-06
8.75745e-08
8.28593e-06
8.1848e-08
8.28898e-06
9.59049e-08
8.2885e-06
9.87831e-08
8.28741e-06
8.97555e-08
8.64888e-08
8.28858e-06
8.71057e-06
6.21104e-08
8.70213e-06
1.50406e-08
8.69591e-06
-1.33971e-07
8.70621e-06
3.73071e-08
8.70641e-06
8.71106e-08
8.70545e-06
-9.27931e-09
8.7037e-06
3.04617e-08
8.69044e-06
1.22282e-08
8.68299e-06
-1.12517e-08
8.68643e-06
6.56502e-08
8.68237e-06
8.28359e-08
8.67867e-06
6.12255e-08
8.68372e-06
8.87874e-08
8.68542e-06
1.10418e-07
8.68212e-06
9.08752e-08
8.68234e-06
8.16269e-08
8.68561e-06
9.26272e-08
8.68618e-06
9.82202e-08
8.68538e-06
9.05516e-08
8.57928e-08
8.68608e-06
9.12604e-06
5.36906e-08
9.11881e-06
2.22672e-08
9.1105e-06
-1.2566e-07
9.12181e-06
2.59984e-08
9.12218e-06
8.6741e-08
9.11957e-06
-6.667e-09
9.11933e-06
3.06998e-08
9.10722e-06
2.43371e-08
9.09825e-06
-2.27984e-09
9.10144e-06
6.24594e-08
9.09883e-06
8.54465e-08
9.09466e-06
6.53915e-08
9.09871e-06
8.47419e-08
9.10134e-06
1.0779e-07
9.09865e-06
9.35563e-08
9.09805e-06
8.2232e-08
9.1012e-06
8.94748e-08
9.1027e-06
9.67256e-08
9.10241e-06
9.08423e-08
8.53477e-08
9.10285e-06
9.56123e-06
4.59208e-08
9.55556e-06
2.79351e-08
9.54508e-06
-1.15178e-07
9.55688e-06
1.41937e-08
9.55768e-06
8.59429e-08
9.55304e-06
-2.0264e-09
9.55387e-06
2.98684e-08
9.54384e-06
3.43704e-08
9.53391e-06
7.65235e-09
9.53625e-06
6.0117e-08
9.53503e-06
8.66673e-08
9.53082e-06
6.96025e-08
9.53378e-06
8.17775e-08
9.53703e-06
1.0454e-07
9.53518e-06
9.54103e-08
9.534e-06
8.34141e-08
9.53673e-06
8.67413e-08
9.53896e-06
9.44927e-08
9.5393e-06
9.05111e-08
8.48913e-08
9.53975e-06
1.00171e-05
3.89473e-08
1.00133e-05
3.17746e-08
1.00008e-05
-1.02694e-07
1.00124e-05
2.62734e-09
1.00142e-05
8.41113e-08
1.00074e-05
4.75115e-09
1.00086e-05
2.86859e-08
1.00011e-05
4.18541e-08
9.99088e-06
1.78728e-08
9.99205e-06
5.89474e-08
9.99187e-06
8.68504e-08
9.98796e-06
7.35173e-08
9.98995e-06
7.97811e-08
9.99348e-06
1.01009e-07
9.99259e-06
9.63049e-08
9.99112e-06
8.48826e-08
9.99326e-06
8.46009e-08
9.99597e-06
9.17847e-08
9.99694e-06
8.9542e-08
8.41847e-08
9.99764e-06
1.04947e-05
3.28799e-08
1.04928e-05
3.36413e-08
1.04788e-05
-8.86528e-08
1.04892e-05
-7.76529e-09
1.04926e-05
8.06539e-08
1.04843e-05
1.30956e-08
1.04848e-05
2.8233e-08
1.04798e-05
4.68064e-08
1.04701e-05
2.75808e-08
1.047e-05
5.90536e-08
1.04704e-05
8.64633e-08
1.0467e-05
7.68852e-08
1.04682e-05
7.86166e-08
1.04717e-05
9.74501e-08
1.04718e-05
9.62513e-08
1.04704e-05
8.63162e-08
1.04719e-05
8.3104e-08
1.04748e-05
8.8867e-08
1.04763e-05
8.8021e-08
8.30783e-08
1.04774e-05
1.09951e-05
2.77849e-08
1.09952e-05
3.35798e-08
1.09802e-05
-7.37144e-08
1.09885e-05
-1.60742e-08
1.09939e-05
7.52741e-08
1.09849e-05
2.21488e-08
1.09837e-05
2.93618e-08
1.09809e-05
4.96565e-08
1.09724e-05
3.6081e-08
1.09712e-05
6.02793e-08
1.09717e-05
8.58806e-08
1.09689e-05
7.96933e-08
1.09695e-05
7.80891e-08
1.09729e-05
9.4021e-08
1.09738e-05
9.53686e-08
1.09727e-05
8.74157e-08
1.09736e-05
8.21972e-08
1.09765e-05
8.59594e-08
1.09784e-05
8.60841e-08
8.15871e-08
1.09799e-05
1.15195e-05
2.3673e-08
1.15212e-05
3.18286e-08
1.15062e-05
-5.86424e-08
1.15117e-05
-2.15759e-08
1.15189e-05
6.80714e-08
1.15102e-05
3.08134e-08
1.1507e-05
3.25241e-08
1.15055e-05
5.12164e-08
1.14986e-05
4.29547e-08
1.14967e-05
6.21824e-08
1.14972e-05
8.5377e-08
1.14948e-05
8.20692e-08
1.14949e-05
7.80063e-08
1.14981e-05
9.0859e-08
1.14997e-05
9.3785e-08
1.14991e-05
8.79828e-08
1.14996e-05
8.16978e-08
1.15023e-05
8.32593e-08
1.15046e-05
8.38151e-08
7.98559e-08
1.15063e-05
1.2069e-05
2.04944e-08
1.20721e-05
2.87768e-08
1.20576e-05
-4.4202e-08
1.20599e-05
-2.38961e-08
1.20685e-05
5.95089e-08
1.20611e-05
3.81909e-08
1.20561e-05
3.75089e-08
1.20548e-05
5.25684e-08
1.20496e-05
4.81232e-08
1.20477e-05
6.41264e-08
1.20479e-05
8.51136e-08
1.20459e-05
8.40987e-08
1.20456e-05
7.82961e-08
1.20484e-05
8.80459e-08
1.20505e-05
9.16607e-08
1.20506e-05
8.79289e-08
1.2051e-05
8.13443e-08
1.20533e-05
8.09251e-08
1.20558e-05
8.1275e-08
7.80084e-08
1.20577e-05
1.26449e-05
1.81496e-08
1.26488e-05
2.49163e-08
1.26357e-05
-3.10575e-08
1.26348e-05
-2.30168e-08
1.26437e-05
5.05746e-08
1.26385e-05
4.33669e-08
1.26323e-05
4.37776e-08
1.26302e-05
5.45845e-08
1.26265e-05
5.18339e-08
1.2625e-05
6.56433e-08
1.26252e-05
8.49492e-08
1.26234e-05
8.58425e-08
1.26228e-05
7.89554e-08
1.26252e-05
8.56197e-08
1.26277e-05
8.91889e-08
1.26284e-05
8.71984e-08
1.26288e-05
8.0919e-08
1.26308e-05
7.89775e-08
1.26335e-05
7.85933e-08
7.60463e-08
1.26354e-05
1.32486e-05
1.65041e-08
1.32528e-05
2.07114e-08
1.32413e-05
-1.96026e-08
1.32376e-05
-1.93165e-08
1.32457e-05
4.24753e-08
1.32432e-05
4.58953e-08
1.32366e-05
5.03706e-08
1.32335e-05
5.7698e-08
1.32306e-05
5.47661e-08
1.32298e-05
6.64413e-08
1.32302e-05
8.4485e-08
1.32287e-05
8.73608e-08
1.32278e-05
7.99131e-08
1.32297e-05
8.36707e-08
1.32323e-05
8.65721e-08
1.32337e-05
8.58357e-08
1.32344e-05
8.02374e-08
1.3236e-05
7.73173e-08
1.32387e-05
7.5933e-08
7.39111e-08
1.32408e-05
1.38813e-05
1.53906e-08
1.38853e-05
1.66713e-08
1.38758e-05
-1.00672e-08
1.387e-05
-1.34995e-08
1.3876e-05
3.63915e-08
1.3876e-05
4.59943e-08
1.38703e-05
5.60672e-08
1.38661e-05
6.18404e-08
1.38631e-05
5.77447e-08
1.38631e-05
6.6518e-08
1.38641e-05
8.33969e-08
1.3863e-05
8.84797e-08
1.38619e-05
8.10372e-08
1.38633e-05
8.22905e-08
1.38659e-05
8.39712e-08
1.38677e-05
8.39809e-08
1.38688e-05
7.91739e-08
1.38703e-05
7.57875e-08
1.38729e-05
7.34052e-08
7.16231e-08
1.38751e-05
1.45444e-05
1.46419e-08
1.45477e-05
1.33732e-08
1.45402e-05
-2.53365e-09
1.45331e-05
-6.45499e-09
1.45365e-05
3.30161e-08
1.45381e-05
4.44393e-08
1.45342e-05
5.99457e-08
1.45296e-05
6.64515e-08
1.45261e-05
6.12263e-08
1.45263e-05
6.6339e-08
1.45281e-05
8.15923e-08
1.45277e-05
8.88089e-08
1.45265e-05
8.22581e-08
1.45274e-05
8.14256e-08
1.45298e-05
8.15692e-08
1.45319e-05
8.18276e-08
1.45335e-05
7.76584e-08
1.4535e-05
7.42569e-08
1.45374e-05
7.09941e-08
6.92412e-08
1.45398e-05
1.52394e-05
1.41143e-08
1.52416e-05
1.11359e-08
1.52358e-05
3.29591e-09
1.52286e-05
8.07343e-10
1.52292e-05
3.23523e-08
1.52312e-05
4.24472e-08
1.52295e-05
6.16807e-08
1.52253e-05
7.06602e-08
1.52212e-05
6.5279e-08
1.52209e-05
6.66172e-08
1.52234e-05
7.91759e-08
1.52241e-05
8.80806e-08
1.52231e-05
8.32789e-08
1.52235e-05
8.09495e-08
1.52256e-05
7.95395e-08
1.52279e-05
7.95066e-08
1.52298e-05
7.57826e-08
1.52314e-05
7.2599e-08
1.52337e-05
6.86937e-08
6.67716e-08
1.52362e-05
1.59677e-05
1.37114e-08
1.59688e-05
1.00247e-08
1.59643e-05
7.86903e-09
1.59576e-05
7.49682e-09
1.59561e-05
3.38061e-08
1.59574e-05
4.11542e-08
1.59575e-05
6.1581e-08
1.59545e-05
7.37067e-08
1.59501e-05
6.96634e-08
1.5949e-05
6.77118e-08
1.59515e-05
7.66449e-08
1.59533e-05
8.63454e-08
1.5953e-05
8.35829e-08
1.59531e-05
8.08267e-08
1.59548e-05
7.78124e-08
1.59571e-05
7.72476e-08
1.59592e-05
7.36334e-08
1.59611e-05
7.07239e-08
1.59633e-05
6.65015e-08
6.41983e-08
1.59659e-05
1.67309e-05
1.33748e-08
1.6731e-05
9.94053e-09
1.67273e-05
1.16237e-08
1.67216e-05
1.32114e-08
1.67188e-05
3.65579e-08
1.67188e-05
4.11989e-08
1.672e-05
6.03735e-08
1.67185e-05
7.52196e-08
1.67142e-05
7.38685e-08
1.67124e-05
6.96082e-08
1.67143e-05
7.46535e-08
1.67168e-05
8.38437e-08
1.67175e-05
8.29087e-08
1.67177e-05
8.06911e-08
1.6719e-05
7.64195e-08
1.67212e-05
7.51067e-08
1.67234e-05
7.13827e-08
1.67256e-05
6.86021e-08
1.67277e-05
6.43537e-08
6.16094e-08
1.67303e-05
1.75307e-05
1.30757e-08
1.75301e-05
1.05432e-08
1.75268e-05
1.49243e-08
1.7522e-05
1.79324e-08
1.75186e-05
3.99699e-08
1.75172e-05
4.25941e-08
1.75186e-05
5.89804e-08
1.75186e-05
7.52695e-08
1.75152e-05
7.72031e-08
1.75127e-05
7.2147e-08
1.75138e-05
7.35389e-08
1.75166e-05
8.1034e-08
1.75181e-05
8.13968e-08
1.75188e-05
8.00101e-08
1.75199e-05
7.53733e-08
1.75219e-05
7.30435e-08
1.75241e-05
6.91702e-08
1.75264e-05
6.62957e-08
1.75287e-05
6.21259e-08
5.9117e-08
1.75312e-05
1.83686e-05
1.28204e-08
1.83676e-05
1.15854e-08
1.83645e-05
1.79908e-08
1.83607e-05
2.176e-08
1.83572e-05
4.34406e-08
1.83546e-05
4.51437e-08
1.83555e-05
5.81178e-08
1.83565e-05
7.42451e-08
1.83545e-05
7.92462e-08
1.83517e-05
7.49281e-08
1.83519e-05
7.33207e-08
1.83545e-05
7.84704e-08
1.83566e-05
7.92793e-08
1.8358e-05
7.8645e-08
1.83591e-05
7.42583e-08
1.83609e-05
7.12452e-08
1.83631e-05
6.69117e-08
1.83654e-05
6.39902e-08
1.83678e-05
5.97271e-08
5.67037e-08
1.83703e-05
1.92466e-05
1.2645e-08
1.92453e-05
1.28305e-08
1.92423e-05
2.10466e-08
1.92392e-05
2.48303e-08
1.92361e-05
4.6524e-08
1.92328e-05
4.84694e-08
1.92327e-05
5.81899e-08
1.92343e-05
7.2666e-08
1.92335e-05
8.00252e-08
1.92311e-05
7.73474e-08
1.92306e-05