/*--------------------------------*- C++ -*----------------------------------*\
| =========                 |                                                 |
| \\      /  F ield         | OpenFOAM: The Open Source CFD Toolbox           |
|  \\    /   O peration     | Version:  v1812                                 |
|   \\  /    A nd           | Web:      www.OpenFOAM.com                      |
|    \\/     M anipulation  |                                                 |
\*---------------------------------------------------------------------------*/
FoamFile
{
    version     2.0;
    format      ascii;
    class       surfaceScalarField;
    location    "6.6";
    object      phi;
}
// * * * * * * * * * * * * * * * * * * * * * * * * * * * * * * * * * * * * * //

dimensions      [0 3 -1 0 0 0 0];
oriented        oriented;


internalField   nonuniform List<scalar> 
19000
(
1.15719e-06
1.88177e-08
1.12416e-06
-1.84533e-07
1.27707e-06
-1.38043e-06
1.21995e-06
1.22642e-06
1.07126e-06
4.15359e-07
1.11638e-06
-3.10947e-07
1.17611e-06
-7.30495e-07
1.16385e-06
3.76958e-08
1.17478e-06
2.76153e-07
1.16639e-06
6.27161e-07
1.17265e-06
5.22707e-07
1.17772e-06
5.03322e-07
1.16225e-06
2.22483e-07
1.15326e-06
1.90981e-07
1.16046e-06
6.39976e-08
1.15299e-06
3.97649e-08
1.16021e-06
1.30113e-08
1.1631e-06
1.16838e-07
1.16398e-06
1.34642e-07
1.96969e-07
1.14784e-06
1.21258e-06
3.05001e-08
1.17409e-06
-1.46041e-07
1.33782e-06
-1.54415e-06
1.30067e-06
1.26356e-06
1.14474e-06
5.71294e-07
1.17841e-06
-3.44617e-07
1.2404e-06
-7.92489e-07
1.22558e-06
5.2517e-08
1.23553e-06
2.66204e-07
1.23186e-06
6.30826e-07
1.22968e-06
5.24893e-07
1.24671e-06
4.86288e-07
1.22376e-06
2.4543e-07
1.22439e-06
1.90351e-07
1.2197e-06
6.86902e-08
1.22609e-06
3.33763e-08
1.2128e-06
2.62946e-08
1.23796e-06
9.16805e-08
1.20879e-06
1.63819e-07
1.73135e-07
1.23262e-06
1.27012e-06
4.31671e-08
1.22573e-06
-1.01657e-07
1.39494e-06
-1.71336e-06
1.4028e-06
1.2557e-06
1.23726e-06
7.36831e-07
1.24966e-06
-3.57018e-07
1.31148e-06
-8.54307e-07
1.30337e-06
6.06295e-08
1.30167e-06
2.67903e-07
1.31048e-06
6.22012e-07
1.29359e-06
5.4179e-07
1.32556e-06
4.54316e-07
1.29457e-06
2.7642e-07
1.30178e-06
1.83143e-07
1.28787e-06
8.25984e-08
1.29887e-06
2.23714e-08
1.28021e-06
4.49558e-08
1.29683e-06
7.50597e-08
1.28224e-06
1.7841e-07
1.77964e-07
1.27741e-06
1.33016e-06
5.71103e-08
1.27957e-06
-5.10719e-08
1.45e-06
-1.88379e-06
1.51661e-06
1.18909e-06
1.34404e-06
9.09406e-07
1.32938e-06
-3.42359e-07
1.38381e-06
-9.08738e-07
1.39015e-06
5.42929e-08
1.37464e-06
2.83408e-07
1.39281e-06
6.03845e-07
1.36726e-06
5.67339e-07
1.40168e-06
4.19898e-07
1.3744e-06
3.03692e-07
1.37657e-06
1.80975e-07
1.3629e-06
9.62686e-08
1.36793e-06
1.73433e-08
1.35507e-06
5.7815e-08
1.35909e-06
7.10405e-08
1.3555e-06
1.81996e-07
1.89899e-07
1.34357e-06
1.39289e-06
7.25759e-08
1.33782e-06
3.99258e-09
1.50212e-06
-2.04809e-06
1.62871e-06
1.0625e-06
1.45966e-06
1.07846e-06
1.41537e-06
-2.98066e-07
1.45294e-06
-9.46308e-07
1.47519e-06
3.20453e-08
1.45255e-06
3.06045e-07
1.47121e-06
5.85181e-07
1.4489e-06
5.89655e-07
1.47486e-06
3.93935e-07
1.45799e-06
3.20558e-07
1.45221e-06
1.86765e-07
1.43929e-06
1.09184e-07
1.43805e-06
1.85789e-08
1.42933e-06
6.65362e-08
1.42777e-06
7.26071e-08
1.42709e-06
1.82667e-07
2.00671e-07
1.41632e-06
1.45906e-06
8.91969e-08
1.40232e-06
6.07229e-08
1.55107e-06
-2.19683e-06
1.72494e-06
8.88631e-07
1.57672e-06
1.22667e-06
1.50385e-06
-2.25194e-07
1.51715e-06
-9.59602e-07
1.55086e-06
-1.66897e-09
1.53284e-06
3.24063e-07
1.54663e-06
5.71397e-07
1.53419e-06
6.02087e-07
1.54934e-06
3.78786e-07
1.54048e-06
3.29423e-07
1.5298e-06
1.97442e-07
1.51484e-06
1.24144e-07
1.50861e-06
2.48061e-08
1.5013e-06
7.38496e-08
1.49792e-06
7.59858e-08
1.49888e-06
1.81712e-07
2.09363e-07
1.49019e-06
1.52993e-06
1.05487e-07
1.4739e-06
1.16751e-07
1.59809e-06
-2.32102e-06
1.79784e-06
6.88879e-07
1.68728e-06
1.33723e-06
1.59169e-06
-1.29605e-07
1.57824e-06
-9.46154e-07
1.61686e-06
-4.02867e-08
1.61243e-06
3.28493e-07
1.62279e-06
5.61034e-07
1.61947e-06
6.05413e-07
1.62644e-06
3.71808e-07
1.6205e-06
3.35362e-07
1.60773e-06
2.10216e-07
1.58992e-06
1.41952e-07
1.5791e-06
3.56275e-08
1.57169e-06
8.12613e-08
1.56736e-06
8.03102e-08
1.5701e-06
1.78976e-07
2.15644e-07
1.56382e-06
1.60674e-06
1.18874e-07
1.55303e-06
1.70466e-07
1.64611e-06
-2.4141e-06
1.84925e-06
4.85736e-07
1.78533e-06
1.40115e-06
1.67789e-06
-2.21641e-08
1.64005e-06
-9.08313e-07
1.67711e-06
-7.73443e-08
1.68825e-06
3.17347e-07
1.70025e-06
5.49031e-07
1.70283e-06
6.02838e-07
1.70477e-06
3.6987e-07
1.69863e-06
3.41502e-07
1.68492e-06
2.23923e-07
1.66524e-06
1.61632e-07
1.65052e-06
5.03488e-08
1.64223e-06
8.9548e-08
1.63665e-06
8.58926e-08
1.64067e-06
1.74955e-07
2.19535e-07
1.63678e-06
1.68982e-06
1.26625e-07
1.64027e-06
2.20021e-07
1.69883e-06
-2.47266e-06
1.88714e-06
2.97427e-07
1.86855e-06
1.41974e-06
1.76274e-06
8.36507e-08
1.70624e-06
-8.51811e-07
1.73614e-06
-1.07249e-07
1.75886e-06
2.94632e-07
1.77651e-06
5.31376e-07
1.78311e-06
5.96238e-07
1.78242e-06
3.70561e-07
1.77544e-06
3.48485e-07
1.76152e-06
2.37844e-07
1.74157e-06
1.81582e-07
1.72423e-06
6.76861e-08
1.71501e-06
9.87708e-08
1.70769e-06
9.32123e-08
1.71192e-06
1.70719e-07
2.21584e-07
1.70987e-06
1.77811e-06
1.27232e-07
1.73545e-06
2.62681e-07
1.75938e-06
-2.49658e-06
1.92105e-06
1.35757e-07
1.93884e-06
1.40195e-06
1.84653e-06
1.75956e-07
1.77906e-06
-7.84342e-07
1.79812e-06
-1.2631e-07
1.82559e-06
2.67167e-07
1.84944e-06
5.07517e-07
1.8596e-06
5.86078e-07
1.85838e-06
3.71786e-07
1.85155e-06
3.55319e-07
1.83846e-06
2.50932e-07
1.81995e-06
2.00092e-07
1.80146e-06
8.61695e-08
1.7917e-06
1.08534e-07
1.78249e-06
1.02423e-07
1.78577e-06
1.67445e-07
2.22611e-07
1.78474e-06
1.86977e-06
1.2121e-07
1.8369e-06
2.9555e-07
1.82954e-06
-2.48922e-06
1.95935e-06
5.94739e-09
2.00143e-06
1.35987e-06
1.9295e-06
2.47887e-07
1.85914e-06
-7.13984e-07
1.86672e-06
-1.33886e-07
1.8924e-06
2.41487e-07
1.9199e-06
4.8001e-07
1.93319e-06
5.72788e-07
1.9332e-06
3.71783e-07
1.92813e-06
3.60384e-07
1.91712e-06
2.61938e-07
1.90157e-06
2.15644e-07
1.88327e-06
1.04469e-07
1.87343e-06
1.18373e-07
1.86252e-06
1.13337e-07
1.86388e-06
1.6608e-07
2.23414e-07
1.86308e-06
1.96339e-06
1.10656e-07
1.94202e-06
3.16925e-07
1.90964e-06
-2.45684e-06
2.00792e-06
-9.23314e-08
2.06287e-06
1.30492e-06
2.01242e-06
2.98341e-07
1.94586e-06
-6.47423e-07
1.94438e-06
-1.32403e-07
1.9642e-06
2.21668e-07
1.99164e-06
4.52571e-07
2.00688e-06
5.5754e-07
2.00901e-06
3.6966e-07
2.00697e-06
3.62423e-07
1.99894e-06
2.69971e-07
1.98734e-06
2.27242e-07
1.97027e-06
1.21542e-07
1.96074e-06
1.27901e-07
1.94856e-06
1.25511e-07
1.94749e-06
1.67148e-07
2.24553e-07
1.94636e-06
2.05873e-06
9.81136e-08
2.04868e-06
3.26973e-07
1.99895e-06
-2.40711e-06
2.06973e-06
-1.63113e-07
2.12881e-06
1.24583e-06
2.09688e-06
3.30274e-07
2.03814e-06
-5.88687e-07
2.03166e-06
-1.25925e-07
2.04472e-06
2.08611e-07
2.06922e-06
4.2807e-07
2.0848e-06
5.41961e-07
2.08879e-06
3.65672e-07
2.09004e-06
3.61171e-07
2.08507e-06
2.74938e-07
2.07766e-06
2.34648e-07
2.0625e-06
1.36711e-07
2.05362e-06
1.36775e-07
2.04089e-06
1.38241e-07
2.03743e-06
1.70606e-07
2.26206e-07
2.03578e-06
2.15651e-06
8.56069e-08
2.15613e-06
3.27349e-07
2.09613e-06
-2.34711e-06
2.14507e-06
-2.12049e-07
2.20278e-06
1.18813e-06
2.18487e-06
3.48179e-07
2.13517e-06
-5.3899e-07
2.1275e-06
-1.18253e-07
2.13527e-06
2.00845e-07
2.15579e-06
4.07545e-07
2.17039e-06
5.27362e-07
2.17517e-06
3.60889e-07
2.17902e-06
3.5733e-07
2.1764e-06
2.77558e-07
2.17265e-06
2.38391e-07
2.15966e-06
1.49707e-07
2.15172e-06
1.44711e-07
2.13936e-06
1.50598e-07
2.13412e-06
1.75846e-07
2.28109e-07
2.13222e-06
2.25779e-06
7.43007e-08
2.26484e-06
3.20301e-07
2.19984e-06
-2.28211e-06
2.23257e-06
-2.44772e-07
2.28625e-06
1.13444e-06
2.27822e-06
3.56215e-07
2.23677e-06
-4.97548e-07
2.23025e-06
-1.11727e-07
2.23504e-06
1.96057e-07
2.25211e-06
3.90475e-07
2.26523e-06
5.1424e-07
2.26962e-06
3.56499e-07
2.27492e-06
3.52032e-07
2.27353e-06
2.78941e-07
2.27243e-06
2.39496e-07
2.26151e-06
1.60623e-07
2.25463e-06
1.51597e-07
2.24358e-06
1.6165e-07
2.2375e-06
1.81926e-07
2.29724e-07
2.23588e-06
2.36356e-06
6.46165e-08
2.37591e-06
3.07955e-07
2.30906e-06
-2.21526e-06
2.33036e-06
-2.66065e-07
2.37937e-06
1.08542e-06
2.37813e-06
3.57457e-07
2.34326e-06
-4.62678e-07
2.33861e-06
-1.07075e-07
2.3423e-06
1.92364e-07
2.35707e-06
3.75704e-07
2.36899e-06
5.02327e-07
2.37223e-06
3.53252e-07
2.37802e-06
3.46251e-07
2.37689e-06
2.80061e-07
2.37729e-06
2.39096e-07
2.36816e-06
1.69755e-07
2.3622e-06
1.57556e-07
2.35312e-06
1.70729e-07
2.34713e-06
1.87922e-07
2.3055e-07
2.3463e-06
2.4745e-06
5.65128e-08
2.49045e-06
2.92e-07
2.42327e-06
-2.14808e-06
2.43687e-06
-2.79667e-07
2.48169e-06
1.0406e-06
2.48517e-06
3.53974e-07
2.45514e-06
-4.32643e-07
2.452e-06
-1.03939e-07
2.45557e-06
1.88793e-07
2.46903e-06
3.62244e-07
2.48035e-06
4.91009e-07
2.48229e-06
3.51311e-07
2.48804e-06
3.40498e-07
2.48668e-06
2.81427e-07
2.48767e-06
2.38106e-07
2.48e-06
1.77418e-07
2.47469e-06
1.62872e-07
2.4678e-06
1.77614e-07
2.46256e-06
1.93169e-07
2.30391e-07
2.46272e-06
2.59108e-06
4.97284e-08
2.6094e-06
2.73681e-07
2.54235e-06
-2.08103e-06
2.55106e-06
-2.88382e-07
2.5926e-06
9.99063e-07
2.5994e-06
3.47171e-07
2.57282e-06
-4.06062e-07
2.57043e-06
-1.01542e-07
2.57408e-06
1.85135e-07
2.58673e-06
3.49596e-07
2.59801e-06
4.79731e-07
2.59891e-06
3.50415e-07
2.60453e-06
3.3487e-07
2.60291e-06
2.83047e-07
2.60394e-06
2.37081e-07
2.59755e-06
1.83811e-07
2.5926e-06
1.67813e-07
2.58772e-06
1.82502e-07
2.58358e-06
1.97306e-07
2.29381e-07
2.58459e-06
2.71363e-06
4.39305e-08
2.73339e-06
2.53918e-07
2.66646e-06
-2.01409e-06
2.67231e-06
-2.94231e-07
2.71157e-06
9.59799e-07
2.72069e-06
3.38048e-07
2.69659e-06
-3.81958e-07
2.69418e-06
-9.91331e-08
2.69775e-06
1.81561e-07
2.70969e-06
3.37659e-07
2.72123e-06
4.68187e-07
2.72151e-06
3.50135e-07
2.72714e-06
3.29246e-07
2.72558e-06
2.84602e-07
2.72641e-06
2.36253e-07
2.72122e-06
1.89006e-07
2.7165e-06
1.72527e-07
2.71317e-06
1.85831e-07
2.71028e-06
2.00195e-07
2.27839e-07
2.71183e-06
2.84242e-06
3.87839e-08
2.86293e-06
2.33406e-07
2.7959e-06
-1.94706e-06
2.80027e-06
-2.98601e-07
2.83821e-06
9.21863e-07
2.84891e-06
3.27339e-07
2.82661e-06
-3.59652e-07
2.82362e-06
-9.61459e-08
2.82687e-06
1.78316e-07
2.83804e-06
3.26484e-07
2.84993e-06
4.56293e-07
2.85003e-06
3.50035e-07
2.8558e-06
3.2348e-07
2.85473e-06
2.85674e-07
2.85533e-06
2.3565e-07
2.8513e-06
1.93034e-07
2.84679e-06
1.77035e-07
2.84452e-06
1.88106e-07
2.84287e-06
2.01842e-07
2.26078e-07
2.84463e-06
2.97769e-06
3.39851e-08
2.99843e-06
2.12671e-07
2.93109e-06
-1.87972e-06
2.93486e-06
-3.02373e-07
2.97228e-06
8.84444e-07
2.98404e-06
3.15584e-07
2.96303e-06
-3.38644e-07
2.95909e-06
-9.22063e-08
2.96183e-06
1.75576e-07
2.97224e-06
3.1607e-07
2.98446e-06
4.44071e-07
2.98476e-06
3.49739e-07
2.99075e-06
3.17493e-07
2.9905e-06
2.85921e-07
2.99092e-06
2.35232e-07
2.98796e-06
1.9599e-07
2.98371e-06
1.81288e-07
2.98202e-06
1.89796e-07
2.98149e-06
2.02371e-07
2.24274e-07
2.9833e-06
3.1197e-06
2.929e-08
3.14029e-06
1.9208e-07
3.07253e-06
-1.81196e-06
3.0762e-06
-3.06038e-07
3.11369e-06
8.46952e-07
3.12609e-06
3.03186e-07
3.10602e-06
-3.18578e-07
3.10094e-06
-8.71272e-08
3.10309e-06
1.73432e-07
3.11286e-06
3.06291e-07
3.12536e-06
4.31572e-07
3.12614e-06
3.48958e-07
3.13235e-06
3.11291e-07
3.13313e-06
2.85141e-07
3.13338e-06
2.34977e-07
3.13132e-06
1.9805e-07
3.12739e-06
1.85218e-07
3.12588e-06
1.91306e-07
3.12623e-06
2.02024e-07
2.2242e-07
3.12808e-06
3.26866e-06
2.45375e-08
3.28888e-06
1.71862e-07
3.22076e-06
-1.74384e-06
3.22451e-06
-3.09793e-07
3.26239e-06
8.09073e-07
3.27512e-06
2.90453e-07
3.25579e-06
-2.99245e-07
3.24958e-06
-8.09206e-08
3.25111e-06
1.71909e-07
3.26046e-06
2.96936e-07
3.27318e-06
4.18852e-07
3.2746e-06
3.47536e-07
3.28094e-06
3.04957e-07
3.28282e-06
2.83265e-07
3.2829e-06
2.34891e-07
3.28151e-06
1.99437e-07
3.27798e-06
1.88751e-07
3.27636e-06
1.92928e-07
3.27725e-06
2.01139e-07
2.20368e-07
3.2793e-06
3.42481e-06
1.96547e-08
3.44452e-06
1.52155e-07
3.37626e-06
-1.67557e-06
3.3801e-06
-3.13638e-07
3.41843e-06
7.70745e-07
3.43126e-06
2.77617e-07
3.41258e-06
-2.80564e-07
3.40545e-06
-7.37867e-08
3.40636e-06
1.70993e-07
3.41552e-06
2.8778e-07
3.4284e-06
4.05971e-07
3.43048e-06
3.45461e-07
3.43682e-06
2.98613e-07
3.43975e-06
2.80335e-07
3.43967e-06
2.34975e-07
3.43874e-06
2.00365e-07
3.43568e-06
1.91811e-07
3.43382e-06
1.94786e-07
3.43487e-06
2.0009e-07
2.17917e-07
3.43732e-06
3.58843e-06
1.4639e-08
3.60752e-06
1.33059e-07
3.53944e-06
-1.60749e-06
3.54326e-06
-3.17459e-07
3.58195e-06
7.32052e-07
3.59473e-06
2.64838e-07
3.57671e-06
-2.62538e-07
3.56896e-06
-6.60378e-08
3.5693e-06
1.70656e-07
3.57842e-06
2.78655e-07
3.59142e-06
3.92968e-07
3.59404e-06
3.42843e-07
3.60026e-06
2.92396e-07
3.60413e-06
2.76465e-07
3.6039e-06
2.35208e-07
3.60324e-06
2.01017e-07
3.60074e-06
1.94312e-07
3.59869e-06
1.96839e-07
3.59958e-06
1.99201e-07
2.14956e-07
3.60254e-06
3.75982e-06
9.52668e-09
3.7782e-06
1.14671e-07
3.71065e-06
-1.53993e-06
3.7143e-06
-3.21116e-07
3.75324e-06
6.93115e-07
3.76587e-06
2.52205e-07
3.74851e-06
-2.45179e-07
3.74051e-06
-5.80294e-08
3.7403e-06
1.70864e-07
3.74947e-06
2.69486e-07
3.7626e-06
3.79838e-07
3.76559e-06
3.39851e-07
3.77155e-06
2.86438e-07
3.77621e-06
2.71806e-07
3.77589e-06
2.35527e-07
3.77535e-06
2.01559e-07
3.77347e-06
1.96191e-07
3.77141e-06
1.98897e-07
3.77191e-06
1.98697e-07
2.11552e-07
3.77532e-06
3.93935e-06
4.36257e-09
3.95693e-06
9.70943e-08
3.8902e-06
-1.4732e-06
3.89354e-06
-3.24459e-07
3.93264e-06
6.54018e-07
3.9451e-06
2.39742e-07
3.92839e-06
-2.28466e-07
3.92044e-06
-5.00769e-08
3.91974e-06
1.71559e-07
3.92893e-06
2.60301e-07
3.94222e-06
3.66539e-07
3.94545e-06
3.36627e-07
3.95102e-06
2.80868e-07
3.95631e-06
2.66515e-07
3.95598e-06
2.35853e-07
3.9554e-06
2.02141e-07
3.95418e-06
1.97413e-07
3.95235e-06
2.00722e-07
3.95237e-06
1.98677e-07
2.07932e-07
3.95599e-06
4.12743e-06
-8.19366e-10
4.14411e-06
8.04208e-08
4.07844e-06
-1.40753e-06
4.08131e-06
-3.27337e-07
4.12053e-06
6.14799e-07
4.13285e-06
2.27421e-07
4.11672e-06
-2.12335e-07
4.10909e-06
-4.24428e-08
4.108e-06
1.72655e-07
4.1171e-06
2.51201e-07
4.13062e-06
3.53012e-07
4.134e-06
3.33251e-07
4.13905e-06
2.75818e-07
4.14483e-06
2.60733e-07
4.14457e-06
2.36109e-07
4.14382e-06
2.02894e-07
4.14323e-06
1.98003e-07
4.14185e-06
2.02108e-07
4.14149e-06
1.99033e-07
2.0449e-07
4.14493e-06
4.32449e-06
-6.00527e-09
4.34018e-06
6.47285e-08
4.27573e-06
-1.34308e-06
4.278e-06
-3.29608e-07
4.3173e-06
5.75497e-07
4.32957e-06
2.15154e-07
4.31393e-06
-1.96694e-07
4.3068e-06
-3.53179e-08
4.30545e-06
1.74009e-07
4.31432e-06
2.4233e-07
4.32812e-06
3.39212e-07
4.33165e-06
3.29722e-07
4.33605e-06
2.71416e-07
4.34219e-06
2.54596e-07
4.34208e-06
2.36213e-07
4.34104e-06
2.03938e-07
4.34097e-06
1.98067e-07
4.34022e-06
2.02865e-07
4.33969e-06
1.99561e-07
2.01573e-07
4.34261e-06
4.53096e-06
-1.11927e-08
4.54563e-06
5.00607e-08
4.48249e-06
-1.27994e-06
4.48404e-06
-3.3116e-07
4.52333e-06
5.36206e-07
4.53568e-06
2.02808e-07
4.52042e-06
-1.81439e-07
4.51392e-06
-2.88132e-08
4.5125e-06
1.75425e-07
4.52099e-06
2.33843e-07
4.53507e-06
3.2513e-07
4.53881e-06
3.2598e-07
4.54246e-06
2.67768e-07
4.54882e-06
2.4824e-07
4.54895e-06
2.36079e-07
4.54751e-06
2.05383e-07
4.5478e-06
1.97773e-07
4.54779e-06
2.02879e-07
4.54736e-06
1.99994e-07
1.99296e-07
4.54963e-06
4.7473e-06
-1.63824e-08
4.76094e-06
3.64272e-08
4.69915e-06
-1.21815e-06
4.69996e-06
-3.31971e-07
4.73905e-06
4.97121e-07
4.75163e-06
1.90228e-07
4.73669e-06
-1.66501e-07
4.73083e-06
-2.29515e-08
4.72958e-06
1.76675e-07
4.73755e-06
2.25875e-07
4.75188e-06
3.10794e-07
4.75594e-06
3.21921e-07
4.75876e-06
2.64953e-07
4.7652e-06
2.418e-07
4.76571e-06
2.35567e-07
4.7637e-06
2.07393e-07
4.7642e-06
1.9727e-07
4.76498e-06
2.02102e-07
4.76488e-06
2.00096e-07
1.97549e-07
4.76662e-06
4.97398e-06
-2.1562e-08
4.98661e-06
2.37962e-08
4.92615e-06
-1.15769e-06
4.92631e-06
-3.32129e-07
4.96491e-06
4.5852e-07
4.97787e-06
1.7727e-07
4.96325e-06
-1.51885e-07
4.95794e-06
-1.7646e-08
4.95709e-06
1.77526e-07
4.96445e-06
2.18516e-07
4.97898e-06
2.96266e-07
4.98348e-06
3.17421e-07
4.98542e-06
2.63007e-07
4.99181e-06
2.3541e-07
4.99286e-06
2.34521e-07
4.99032e-06
2.09934e-07
4.9908e-06
1.96793e-07
4.99229e-06
2.00611e-07
4.99266e-06
1.99719e-07
1.96065e-07
4.99415e-06
5.21145e-06
-2.66933e-08
5.22316e-06
1.2085e-08
5.16392e-06
-1.09846e-06
5.16367e-06
-3.3188e-07
5.20144e-06
4.20753e-07
5.2149e-06
1.63811e-07
5.20066e-06
-1.37652e-07
5.19576e-06
-1.27381e-08
5.19548e-06
1.77803e-07
5.2022e-06
2.11796e-07
5.21683e-06
2.81641e-07
5.22191e-06
3.12341e-07
5.22298e-06
2.61934e-07
5.22916e-06
2.29224e-07
5.23096e-06
2.32728e-07
5.22803e-06
2.12866e-07
5.22818e-06
1.9664e-07
5.23033e-06
1.98461e-07
5.23119e-06
1.98856e-07
1.94649e-07
5.23261e-06
5.46021e-06
-3.17099e-08
5.47114e-06
1.14838e-09
5.41292e-06
-1.04024e-06
5.41264e-06
-3.316e-07
5.44919e-06
3.84204e-07
5.46321e-06
1.49789e-07
5.44952e-06
-1.23964e-07
5.4448e-06
-8.01633e-09
5.44519e-06
1.77411e-07
5.45131e-06
2.0568e-07
5.46591e-06
2.67037e-07
5.47172e-06
3.06536e-07
5.47199e-06
2.61661e-07
5.47772e-06
2.23493e-07
5.48052e-06
2.29928e-07
5.47748e-06
2.15909e-07
5.47695e-06
1.97172e-07
5.47962e-06
1.95787e-07
5.48105e-06
1.97431e-07
1.93257e-07
5.48244e-06
5.72077e-06
-3.65179e-08
5.73114e-06
-9.23026e-09
5.67363e-06
-9.82726e-07
5.67379e-06
-3.31758e-07
5.70876e-06
3.49232e-07
5.72325e-06
1.35307e-07
5.7104e-06
-1.11116e-07
5.70567e-06
-3.29073e-09
5.70674e-06
1.76349e-07
5.71233e-06
2.00087e-07
5.72675e-06
2.52613e-07
5.73345e-06
2.99843e-07
5.73304e-06
2.62066e-07
5.73807e-06
2.18459e-07
5.74202e-06
2.25985e-07
5.73926e-06
2.18664e-07
5.73776e-06
1.98674e-07
5.74064e-06
1.92904e-07
5.74286e-06
1.95219e-07
1.91911e-07
5.7442e-06
5.99368e-06
-4.10042e-08
6.00378e-06
-1.93343e-08
5.94662e-06
-9.25567e-07
5.94769e-06
-3.32827e-07
5.98084e-06
3.1609e-07
5.99547e-06
1.20676e-07
5.98385e-06
-9.95028e-08
5.97899e-06
1.57353e-09
5.98065e-06
1.74685e-07
5.9858e-06
1.9494e-07
5.99989e-06
2.38527e-07
6.00762e-06
2.92111e-07
6.00673e-06
2.62951e-07
6.01083e-06
2.14362e-07
6.0159e-06
2.20919e-07
6.01389e-06
2.20673e-07
6.01136e-06
2.01203e-07
6.01398e-06
1.90279e-07
6.01706e-06
1.92143e-07
1.90408e-07
6.01856e-06
6.27953e-06
-4.50453e-08
6.2897e-06
-2.95095e-08
6.23255e-06
-8.68409e-07
6.23486e-06
-3.35144e-07
6.26612e-06
2.84834e-07
6.28041e-06
1.06382e-07
6.2704e-06
-8.94871e-08
6.26543e-06
6.54499e-09
6.26753e-06
1.72578e-07
6.27231e-06
1.90166e-07
6.28589e-06
2.24942e-07
6.29479e-06
2.83217e-07
6.29368e-06
2.64062e-07
6.29664e-06
2.11398e-07
6.30262e-06
2.1494e-07
6.30182e-06
2.21475e-07
6.29851e-06
2.04511e-07
6.30031e-06
1.88477e-07
6.30416e-06
1.88291e-07
1.88415e-07
6.30615e-06
6.57894e-06
-4.85187e-08
6.58956e-06
-4.01223e-08
6.53219e-06
-8.11043e-07
6.53575e-06
-3.387e-07
6.56536e-06
2.55216e-07
6.57875e-06
9.29983e-08
6.57053e-06
-8.1269e-08
6.56568e-06
1.13957e-08
6.56801e-06
1.70247e-07
6.57244e-06
1.85731e-07
6.5854e-06
2.11988e-07
6.59547e-06
2.73147e-07
6.59451e-06
2.65023e-07
6.59614e-06
2.09762e-07
6.6027e-06
2.08378e-07
6.60354e-06
2.20638e-07
6.59984e-06
2.08208e-07
6.60044e-06
1.87886e-07
6.60471e-06
1.84012e-07
1.85592e-07
6.60754e-06
6.89258e-06
-5.13112e-08
6.90399e-06
-5.15325e-08
6.84642e-06
-7.53471e-07
6.85076e-06
-3.43034e-07
6.8793e-06
2.26676e-07
6.89121e-06
8.10843e-08
6.88478e-06
-7.48406e-08
6.8804e-06
1.57796e-08
6.88279e-06
1.67858e-07
6.88685e-06
1.81667e-07
6.89904e-06
1.99795e-07
6.91024e-06
2.61948e-07
6.90982e-06
2.65446e-07
6.91008e-06
2.09497e-07
6.91672e-06
2.01742e-07
6.91945e-06
2.17904e-07
6.91596e-06
2.11706e-07
6.9152e-06
1.88646e-07
6.91935e-06
1.79858e-07
1.81729e-07
6.92321e-06
7.22116e-06
-5.33361e-08
7.23361e-06
-6.39796e-08
7.1761e-06
-6.95959e-07
7.18036e-06
-3.47296e-07
7.20859e-06
1.98443e-07
7.21864e-06
7.10322e-08
7.21375e-06
-6.99489e-08
7.21021e-06
1.93157e-08
7.21259e-06
1.65482e-07
7.21621e-06
1.78043e-07
7.22748e-06
1.88533e-07
7.2397e-06
2.49721e-07
7.24023e-06
2.64918e-07
7.23918e-06
2.10553e-07
7.2453e-06
1.9562e-07
7.24997e-06
2.13235e-07
7.24738e-06
2.14296e-07
7.24539e-06
1.90632e-07
7.24879e-06
1.76454e-07
1.76836e-07
7.25369e-06
7.56543e-06
-5.45446e-08
7.57895e-06
-7.7495e-08
7.52205e-06
-6.39059e-07
7.52512e-06
-3.50362e-07
7.55386e-06
1.69695e-07
7.56194e-06
6.29567e-08
7.55808e-06
-6.60887e-08
7.55575e-06
2.16447e-08
7.55817e-06
1.63066e-07
7.56124e-06
1.74965e-07
7.57141e-06
1.78365e-07
7.58449e-06
2.3664e-07
7.58627e-06
2.6314e-07
7.58416e-06
2.12666e-07
7.58921e-06
1.9057e-07
7.5956e-06
2.06842e-07
7.59448e-06
2.15418e-07
7.59177e-06
1.93339e-07
7.59396e-06
1.7427e-07
1.71316e-07
7.59948e-06
7.9262e-06
-5.49296e-08
7.94057e-06
-9.18645e-08
7.8851e-06
-5.83595e-07
7.88571e-06
-3.50972e-07
7.91567e-06
1.39732e-07
7.92202e-06
5.66139e-08
7.91846e-06
-6.25327e-08
7.91761e-06
2.24947e-08
7.92022e-06
1.60454e-07
7.92271e-06
1.72483e-07
7.9316e-06
1.69469e-07
7.94523e-06
2.23015e-07
7.94849e-06
2.59878e-07
7.94574e-06
2.15416e-07
7.94934e-06
1.86968e-07
7.95689e-06
1.99288e-07
7.95775e-06
2.14562e-07
7.95497e-06
1.96122e-07
7.95578e-06
1.73452e-07
1.65875e-07
7.96123e-06
8.30428e-06
-5.45313e-08
8.31915e-06
-1.06729e-07
8.26606e-06
-5.30505e-07
8.26304e-06
-3.47955e-07
8.29452e-06
1.08248e-07
8.29975e-06
5.13861e-08
8.29576e-06
-5.85453e-08
8.29642e-06
2.18368e-08
8.29945e-06
1.57424e-07
8.30139e-06
1.70548e-07
8.30879e-06
1.6207e-07
8.32253e-06
2.09268e-07
8.32738e-06
2.55031e-07
8.32457e-06
2.18228e-07
8.32664e-06
1.84899e-07
8.33464e-06
1.91291e-07
8.33768e-06
2.1152e-07
8.3355e-06
1.98298e-07
8.3352e-06
1.73752e-07
1.61264e-07
8.33981e-06
8.70057e-06
-5.34411e-08
8.71547e-06
-1.21624e-07
8.66571e-06
-4.80749e-07
8.65824e-06
-3.40488e-07
8.6909e-06
7.55967e-08
8.69604e-06
4.62394e-08
8.69093e-06
-5.34362e-08
8.69281e-06
1.99618e-08
8.69653e-06
1.53707e-07
8.698e-06
1.69078e-07
8.70369e-06
1.5638e-07
8.7171e-06
1.95855e-07
8.72347e-06
2.48662e-07
8.72128e-06
2.20419e-07
8.72197e-06
1.84209e-07
8.72974e-06
1.83517e-07
8.7349e-06
2.06363e-07
8.73388e-06
1.99313e-07
8.73306e-06
1.74577e-07
1.5797e-07
8.73635e-06
9.11597e-06
-5.17934e-08
9.1304e-06
-1.36056e-07
9.0849e-06
-4.35251e-07
9.07269e-06
-3.28277e-07
9.10537e-06
4.29228e-08
9.1116e-06
4.00053e-08
9.10502e-06
-4.68538e-08
9.10742e-06
1.75561e-08
9.11205e-06
1.49081e-07
9.11321e-06
1.67921e-07
9.11707e-06
1.52517e-07
9.12968e-06
1.83244e-07
9.13751e-06
2.40838e-07
9.13655e-06
2.21374e-07
9.1363e-06
1.84461e-07
9.14324e-06
1.76579e-07
9.15023e-06
1.99369e-07
9.15078e-06
1.98766e-07
9.14997e-06
1.75388e-07
1.55903e-07
9.15203e-06
9.55144e-06
-4.97763e-08
9.56487e-06
-1.49482e-07
9.5245e-06
-3.94885e-07
9.50782e-06
-3.11593e-07
9.53883e-06
1.19086e-08
9.54698e-06
3.1861e-08
9.53896e-06
-3.8838e-08
9.54105e-06
1.5466e-08
9.54654e-06
1.43591e-07
9.54787e-06
1.66589e-07
9.55015e-06
1.50243e-07
9.56154e-06
1.71853e-07
9.57073e-06
2.31648e-07
9.57127e-06
2.2083e-07
9.57064e-06
1.85094e-07
9.57637e-06
1.70847e-07
9.58465e-06
1.91087e-07
9.587e-06
1.9642e-07
9.58657e-06
1.75819e-07
1.5457e-07
9.5879e-06
1.0008e-05
-4.76197e-08
1.00198e-05
-1.6132e-07
9.98527e-06
-3.60335e-07
9.96475e-06
-2.91074e-07
9.99226e-06
-1.56044e-08
1.00027e-05
2.14379e-08
9.99363e-06
-2.9789e-08
9.99466e-06
1.4441e-08
1.0001e-05
1.37217e-07
1.00031e-05
1.64494e-07
1.00042e-05
1.49123e-07
1.00141e-05
1.62037e-07
1.00244e-05
2.2131e-07
1.00266e-05
2.18664e-07
1.0026e-05
1.85649e-07
1.00304e-05
1.6643e-07
1.00392e-05
1.82285e-07
1.00435e-05
1.92122e-07
1.00436e-05
1.75711e-07
1.53456e-07
1.00448e-05
1.04866e-05
-4.55706e-08
1.04963e-05
-1.71009e-07
1.04677e-05
-3.31754e-07
1.04445e-05
-2.67896e-07
1.0467e-05
-3.81297e-08
1.04797e-05
8.74989e-09
1.04705e-05
-2.05556e-08
1.04697e-05
1.52214e-08
1.04768e-05
1.30158e-07
1.04802e-05
1.61089e-07
1.04806e-05
1.48725e-07
1.04887e-05
1.53955e-07
1.04997e-05
2.10315e-07
1.05035e-05
2.14861e-07
1.05033e-05
1.8577e-07
1.05066e-05
1.63143e-07
1.05152e-05
1.73738e-07
1.05213e-05
1.85991e-07
1.05222e-05
1.74775e-07
1.52358e-07
1.05233e-05
1.09883e-05
-4.38844e-08
1.09953e-05
-1.78012e-07
1.09724e-05
-3.08865e-07
1.09482e-05
-2.43625e-07
1.09649e-05
-5.48441e-08
1.09794e-05
-5.7699e-09
1.09713e-05
-1.24598e-08
1.09681e-05
1.84026e-08
1.0975e-05
1.23333e-07
1.09798e-05
1.56212e-07
1.09804e-05
1.48208e-07
1.09868e-05
1.47522e-07
1.09978e-05
1.99273e-07
1.1003e-05
2.09669e-07
1.10035e-05
1.85268e-07
1.1006e-05
1.60629e-07
1.10138e-05
1.65994e-07
1.10213e-05
1.78443e-07
1.10234e-05
1.72654e-07
1.51205e-07
1.10246e-05
1.15143e-05
-4.28099e-08
1.15181e-05
-1.81866e-07
1.15005e-05
-2.91207e-07
1.14767e-05
-2.19858e-07
1.14873e-05
-6.54297e-08
1.15024e-05
-2.08222e-08
1.14972e-05
-7.28885e-09
1.14917e-05
2.38496e-08
1.1497e-05
1.18043e-07
1.1503e-05
1.50195e-07
1.15043e-05
1.46943e-07
1.15095e-05
1.42327e-07
1.15201e-05
1.88661e-07
1.15264e-05
2.03369e-07
1.15276e-05
1.8406e-07
1.15297e-05
1.58531e-07
1.15364e-05
1.59271e-07
1.15448e-05
1.70114e-07
1.15483e-05
1.69109e-07
1.49849e-07
1.15497e-05
1.20656e-05
-4.25449e-08
1.2066e-05
-1.82307e-07
1.20528e-05
-2.78028e-07
1.20312e-05
-1.98224e-07
1.20358e-05
-7.00127e-08
1.20497e-05
-3.47673e-08
1.20484e-05
-5.96709e-09
1.2042e-05
3.02816e-08
1.20448e-05
1.15202e-07
1.2051e-05
1.4395e-07
1.20532e-05
1.44748e-07
1.20578e-05
1.37743e-07
1.20677e-05
1.78757e-07
1.20749e-05
1.96235e-07
1.20768e-05
1.82094e-07
1.20788e-05
1.56603e-07
1.20845e-05
1.53553e-07
1.2093e-05
1.61613e-07
1.20979e-05
1.64167e-07
1.47983e-07
1.20998e-05
1.26432e-05
-4.31988e-08
1.26403e-05
-1.79391e-07
1.26306e-05
-2.68281e-07
1.26126e-05
-1.80212e-07
1.26117e-05
-6.91785e-08
1.2623e-05
-4.60058e-08
1.26253e-05
-8.31166e-09
1.26198e-05
3.58507e-08
1.262e-05
1.15002e-07
1.26253e-05
1.38616e-07
1.26283e-05
1.4173e-07
1.26327e-05
1.33344e-07
1.2642e-05
1.69504e-07
1.26496e-05
1.88566e-07
1.26523e-05
1.79371e-07
1.26543e-05
1.54642e-07
1.26591e-05
1.48729e-07
1.26673e-05
1.53396e-07
1.26734e-05
1.58071e-07
1.45325e-07
1.26761e-05
1.32485e-05
-4.47741e-08
1.32426e-05
-1.73488e-07
1.32351e-05
-2.60786e-07
1.32216e-05
-1.66742e-07
1.32165e-05
-6.40695e-08
1.32236e-05
-5.31039e-08
1.32288e-05
-1.3493e-08
1.32256e-05
3.90385e-08
1.32237e-05
1.16921e-07
1.32274e-05
1.34908e-07
1.32308e-05
1.38329e-07
1.32352e-05
1.28961e-07
1.3244e-05
1.60724e-07
1.3252e-05
1.80497e-07
1.32554e-05
1.7599e-07
1.32576e-05
1.52455e-07
1.32617e-05
1.44599e-07
1.32694e-05
1.45784e-07
1.32762e-05
1.51181e-07
1.417e-07
1.32799e-05
1.38826e-05
-4.71688e-08
1.38745e-05
-1.65382e-07
1.38679e-05
-2.54203e-07
1.38591e-05
-1.58004e-07
1.38512e-05
-5.61669e-08
1.38534e-05
-5.52296e-08
1.38598e-05
-1.98888e-08
1.38599e-05
3.88536e-08
1.38572e-05
1.19696e-07
1.38591e-05
1.32989e-07
1.38622e-05
1.35188e-07
1.38666e-05
1.24574e-07
1.3875e-05
1.52322e-07
1.38835e-05
1.72055e-07
1.38874e-05
1.72026e-07
1.38899e-05
1.49964e-07
1.38936e-05
1.40901e-07
1.39005e-05
1.38934e-07
1.39077e-05
1.43962e-07
1.37079e-07
1.39123e-05
1.45467e-05
-5.01547e-08
1.45371e-05
-1.55828e-07
1.45304e-05
-2.47493e-07
1.45259e-05
-1.53539e-07
1.45168e-05
-4.69984e-08
1.45137e-05
-5.21677e-08
1.45191e-05
-2.53239e-08
1.45232e-05
3.47709e-08
1.45214e-05
1.21524e-07
1.45217e-05
1.32669e-07
1.45241e-05
1.32746e-07
1.45284e-05
1.20338e-07
1.45364e-05
1.44351e-07
1.45452e-05
1.63201e-07
1.45498e-05
1.67418e-07
1.45525e-05
1.47251e-07
1.45561e-05
1.37374e-07
1.45622e-05
1.32823e-07
1.45693e-05
1.36843e-07
1.3166e-07
1.45747e-05
1.52421e-05
-5.34074e-08
1.52322e-05
-1.45887e-07
1.52246e-05
-2.39884e-07
1.52225e-05
-1.51498e-07
1.52136e-05
-3.80079e-08
1.52059e-05
-4.45346e-08
1.52083e-05
-2.769e-08
1.52162e-05
2.68185e-08
1.52173e-05
1.2044e-07
1.52167e-05
1.33328e-07
1.52182e-05
1.31207e-07
1.5222e-05
1.16543e-07
1.52295e-05
1.36874e-07
1.52386e-05
1.54044e-07
1.5244e-05
1.62036e-07
1.5247e-05
1.44296e-07
1.52504e-05
1.33977e-07
1.5256e-05
1.27212e-07
1.52627e-05
1.30096e-07
1.25773e-07
1.52686e-05
1.59705e-05
-5.65533e-08
1.59626e-05
-1.37965e-07
1.59512e-05
-2.28536e-07
1.59493e-05
-1.4955e-07
1.59425e-05
-3.12644e-08
1.59322e-05
-3.42346e-08
1.59302e-05
-2.57027e-08
1.59402e-05
1.68301e-08
1.59457e-05
1.14922e-07
1.59455e-05
1.3358e-07
1.59459e-05
1.30747e-07
1.59491e-05
1.13359e-07
1.5956e-05
1.29974e-07
1.59652e-05
1.44879e-07
1.59715e-05
1.55771e-07
1.59748e-05
1.40942e-07
1.5978e-05
1.30783e-07
1.59832e-05
1.21981e-07
1.59897e-05
1.23648e-07
1.19801e-07
1.59957e-05
1.6733e-05
-5.89307e-08
1.67196e-05
-1.24575e-07
1.67065e-05
-2.15397e-07
1.67084e-05
-1.51467e-07
1.67057e-05
-2.85754e-08
1.66954e-05
-2.39515e-08
1.66893e-05
-1.95698e-08
1.66978e-05
8.33628e-09
1.67075e-05
1.05153e-07
1.67094e-05
1.31739e-07
1.67089e-05
1.31191e-07
1.67114e-05
1.10897e-07
1.67176e-05
1.23748e-07
1.67266e-05
1.35884e-07
1.67336e-05
1.48797e-07
1.67376e-05
1.36911e-07
1.67407e-05
1.27694e-07
1.67455e-05
1.17229e-07
1.67517e-05
1.17378e-07
1.13865e-07
1.67577e-05
1.7532e-05
-6.05234e-08
1.7523e-05
-1.1558e-07
1.7505e-05
-1.97413e-07
1.75046e-05
-1.51048e-07
1.7505e-05
-2.90145e-08
1.74962e-05
-1.51335e-08
1.74875e-05
-1.08599e-08
1.74924e-05
3.40921e-09
1.75045e-05
9.30917e-08
1.75092e-05
1.2695e-07
1.75088e-05
1.31617e-07
1.75105e-05
1.09252e-07
1.75158e-05
1.18388e-07
1.75245e-05
1.27174e-07
1.7532e-05
1.41341e-07
1.75367e-05
1.32184e-07
1.75401e-05
1.2435e-07
1.75442e-05
1.13087e-07
1.75502e-05
1.11369e-07
1.07916e-07
1.75562e-05
1.83688e-05
-6.10153e-08
1.83602e-05
-1.06938e-07
1.83417e-05
-1.78888e-07
1.83393e-05
-1.48705e-07
1.83421e-05
-3.17448e-08
1.83354e-05
-8.43428e-09
1.83256e-05
-1.12746e-09
1.83267e-05
2.35557e-09
1.83389e-05
8.0899e-08
1.83464e-05
1.19428e-07
1.8347e-05
1.30974e-07
1.8348e-05
1.08253e-07
1.83525e-05
1.13939e-07
1.83606e-05
1.19015e-07
1.83685e-05
1.33488e-07
1.83738e-05
1.269e-07
1.83777e-05
1.20478e-07
1.83815e-05
1.09285e-07
1.83869e-05
1.05919e-07
1.01928e-07
1.83929e-05
1.92458e-05
-6.04714e-08
1.9239e-05
-1.0014e-07
1.92201e-05
-1.59901e-07
1.92149e-05
-1.43561e-07
1.92186e-05
-3.54598e-08
1.92142e-05
-4.04098e-09
1.92048e-05
8.35446e-09
1.92027e-05
4.45226e-09
1.92131e-05
7.0444e-08
1.92228e-05
1.09777e-07
1.92251e-05
1.28684e-07