/*--------------------------------*- C++ -*----------------------------------*\
| =========                 |                                                 |
| \\      /  F ield         | OpenFOAM: The Open Source CFD Toolbox           |
|  \\    /   O peration     | Version:  v1906                                 |
|   \\  /    A nd           | Web:      www.OpenFOAM.com                      |
|    \\/     M anipulation  |                                                 |
\*---------------------------------------------------------------------------*/
FoamFile
{
    version     2.0;
    format      ascii;
    class       volScalarField;
    location    "7.4";
    object      p;
}
// * * * * * * * * * * * * * * * * * * * * * * * * * * * * * * * * * * * * * //

dimensions      [0 2 -2 0 0 0 0];


internalField   nonuniform List<scalar> 
9600
(
1.28326e-10
-0.00203689
0.000844824
-0.000591971
-0.00151543
0.00161759
-0.00505346
-0.00665604
-0.0072858
-0.00542543
-0.00623242
-0.00823564
-0.00857824
-0.00841383
-0.00930156
-0.0102816
-0.0105854
-0.0113156
-0.0111004
-0.010386
6.95852e-06
-0.00204576
0.000784434
-0.00058987
-0.00149264
0.00156401
-0.00504064
-0.00664765
-0.00728417
-0.00539664
-0.00624562
-0.00824499
-0.00857773
-0.00842252
-0.00929383
-0.0103082
-0.010575
-0.0113663
-0.0110707
-0.0105678
1.52435e-05
-0.00205251
0.000736916
-0.000584649
-0.0014698
0.00149322
-0.00501833
-0.00663599
-0.00727623
-0.00535296
-0.006275
-0.00825128
-0.00857702
-0.00843682
-0.00928452
-0.0103544
-0.0105637
-0.0114214
-0.0110392
-0.010821
2.03775e-05
-0.00205758
0.000684765
-0.00058644
-0.00146471
0.00140419
-0.00498654
-0.00662004
-0.0072602
-0.00531978
-0.00631287
-0.00825323
-0.00857961
-0.00845471
-0.00927815
-0.0104092
-0.0105592
-0.011463
-0.0110331
-0.011051
2.24023e-05
-0.00206212
0.000628844
-0.000595015
-0.00147365
0.00130027
-0.00494013
-0.00660104
-0.00723736
-0.00530305
-0.00635728
-0.00825776
-0.00858734
-0.00847612
-0.00927258
-0.0104692
-0.0105528
-0.0115007
-0.0110509
-0.0112349
2.21994e-05
-0.00206673
0.000568989
-0.000608386
-0.00149299
0.0011838
-0.00487716
-0.00658604
-0.0072118
-0.00530175
-0.00640795
-0.00826699
-0.00859924
-0.00849964
-0.00926771
-0.0105296
-0.0105432
-0.0115425
-0.0110833
-0.0113871
2.02489e-05
-0.00207225
0.000505417
-0.000625517
-0.00152178
0.00107126
-0.00480037
-0.00658137
-0.00718792
-0.00531164
-0.00646172
-0.00827906
-0.00861335
-0.00852423
-0.00926377
-0.0105869
-0.0105353
-0.0115856
-0.0111291
-0.0115211
1.68334e-05
-0.00207924
0.000439067
-0.000645914
-0.00155912
0.000961079
-0.00471531
-0.00658829
-0.00716713
-0.00532652
-0.00651533
-0.00829283
-0.00862791
-0.0085497
-0.00926071
-0.0106417
-0.010532
-0.0116265
-0.0111929
-0.0116413
1.22234e-05
-0.00208787
0.000371128
-0.000669221
-0.00160372
0.000851411
-0.00462701
-0.0066044
-0.00714899
-0.00534135
-0.00656822
-0.00830846
-0.00864167
-0.00857644
-0.00925927
-0.0106955
-0.0105351
-0.0116633
-0.0112763
-0.0117493
6.67769e-06
-0.00209801
0.000302573
-0.000695438
-0.00165412
0.000739955
-0.00453846
-0.0066259
-0.00713292
-0.00535421
-0.00662107
-0.00832652
-0.0086543
-0.00860508
-0.00926022
-0.0107493
-0.0105465
-0.0116941
-0.0113788
-0.0118477
4.40879e-07
-0.00210939
0.000233712
-0.000724879
-0.00170885
0.000625111
-0.00445108
-0.00664978
-0.00711903
-0.0053652
-0.00667451
-0.00834785
-0.00866583
-0.00863572
-0.00926408
-0.0108033
-0.0105677
-0.0117173
-0.0114985
-0.0119405
-6.27059e-06
-0.00212183
0.000164211
-0.000757924
-0.00176655
0.000506253
-0.00436539
-0.00667418
-0.00710801
-0.00537504
-0.00672899
-0.00837317
-0.00867612
-0.00866812
-0.00927133
-0.0108568
-0.0105999
-0.0117324
-0.0116324
-0.0120325
-1.33045e-05
-0.00213532
9.34465e-05
-0.000794763
-0.00182612
0.000383333
-0.00428148
-0.00669802
-0.00710062
-0.00538434
-0.00678477
-0.00840277
-0.00868513
-0.00870188
-0.0092823
-0.0109089
-0.0106443
-0.0117403
-0.011777
-0.0121281
-2.05818e-05
-0.00214997
2.08386e-05
-0.000835316
-0.00188676
0.000256458
-0.00419926
-0.00672068
-0.00709751
-0.00539335
-0.00684176
-0.00843672
-0.0086932
-0.00873634
-0.00929728
-0.0109592
-0.0107009
-0.011743
-0.0119279
-0.0122307
-2.80851e-05
-0.00216592
-5.40218e-05
-0.000879364
-0.00194791
0.000125697
-0.004119
-0.00674182
-0.00709921
-0.00540198
-0.00689964
-0.00847507
-0.0087008
-0.00877092
-0.00931672
-0.0110079
-0.0107694
-0.0117427
-0.0120814
-0.0123428
-3.58552e-05
-0.0021833
-0.000131407
-0.000926677
-0.00200926
-8.8873e-06
-0.00404106
-0.00676114
-0.00710611
-0.00540993
-0.006958
-0.0085178
-0.00870827
-0.00880546
-0.0093409
-0.0110552
-0.0108488
-0.011742
-0.0122342
-0.0124657
-4.39854e-05
-0.00220223
-0.000211517
-0.000977065
-0.00207068
-0.000147172
-0.00396599
-0.00677831
-0.00711852
-0.00541691
-0.00701645
-0.00856492
-0.00871607
-0.00884018
-0.00936935
-0.0111018
-0.0109389
-0.0117425
-0.0123837
-0.0126004
-5.26076e-05
-0.00222279
-0.000294534
-0.00103037
-0.00213217
-0.000288961
-0.00389444
-0.00679287
-0.00713661
-0.00542276
-0.0070746
-0.00861649
-0.00872455
-0.00887552
-0.00940108
-0.0111479
-0.0110398
-0.0117448
-0.0125271
-0.012748
-6.189e-05
-0.00224504
-0.000380644
-0.00108642
-0.00219381
-0.000433989
-0.0038271
-0.00680438
-0.0071605
-0.00542741
-0.00713199
-0.00867276
-0.00873378
-0.00891196
-0.00943547
-0.0111939
-0.0111517
-0.0117491
-0.0126615
-0.0129107
-7.20312e-05
-0.00226891
-0.000470039
-0.00114506
-0.00225563
-0.000581917
-0.00376466
-0.00681246
-0.00719027
-0.00543094
-0.00718803
-0.00873407
-0.00874344
-0.00895019
-0.00947269
-0.0112387
-0.0112749
-0.0117571
-0.0127832
-0.0130892
-8.32577e-05
-0.0022943
-0.000562929
-0.00120614
-0.00231777
-0.000732342
-0.00370785
-0.0068167
-0.00722601
-0.00543375
-0.00724194
-0.00880098
-0.00875305
-0.00899084
-0.00951361
-0.0112802
-0.0114102
-0.0117723
-0.0128866
-0.0132822
-9.58244e-05
-0.002321
-0.000659535
-0.00126954
-0.00238042
-0.000884765
-0.00365741
-0.00681681
-0.00726771
-0.00543653
-0.00729264
-0.00887433
-0.00876228
-0.00903384
-0.00956008
-0.0113159
-0.0115572
-0.011799
-0.0129661
-0.0134859
-0.000110019
-0.00234876
-0.000760124
-0.00133516
-0.00244378
-0.00103865
-0.00361409
-0.00681263
-0.00731525
-0.00544028
-0.00733883
-0.00895512
-0.00877097
-0.0090783
-0.00961494
-0.0113436
-0.0117136
-0.0118433
-0.0130178
-0.0136925
-0.00012619
-0.00237724
-0.000865005
-0.0014029
-0.00250808
-0.00119349
-0.00357859
-0.00680411
-0.00736831
-0.00544638
-0.00737897
-0.00904419
-0.00877953
-0.00912229
-0.00968131
-0.0113625
-0.0118746
-0.0119123
-0.0130421
-0.0138897
-0.000144717
-0.0024061
-0.000974493
-0.00147266
-0.00257361
-0.0013488
-0.0035515
-0.00679154
-0.00742625
-0.00545642
-0.00741157
-0.00914219
-0.00878922
-0.0091631
-0.00976223
-0.0113736
-0.0120333
-0.0120125
-0.0130451
-0.0140621
-0.000166016
-0.00243492
-0.00108893
-0.00154435
-0.00264058
-0.00150429
-0.00353323
-0.0067753
-0.00748825
-0.00547215
-0.00743553
-0.00924921
-0.00880167
-0.00919776
-0.00986015
-0.0113803
-0.0121802
-0.0121459
-0.0130385
-0.0141943
-0.000190563
-0.00246323
-0.00120867
-0.00161794
-0.00270917
-0.00165976
-0.00352397
-0.00675592
-0.00755326
-0.00549541
-0.0074502
-0.00936459
-0.00881924
-0.00922331
-0.00997569
-0.0113879
-0.0123059
-0.0123094
-0.0130397
-0.0142755
-0.00021888
-0.00249056
-0.00133402
-0.00169343
-0.00277954
-0.00181508
-0.00352366
-0.00673426
-0.00762021
-0.00552779
-0.00745506
-0.00948696
-0.00884547
-0.00923683
-0.010107
-0.0114045
-0.0124026
-0.012494
-0.0130686
-0.0143065
-0.000251544
-0.00251638
-0.00146528
-0.00177085
-0.00285177
-0.00197049
-0.00353177
-0.00671135
-0.00768819
-0.0055705
-0.00744986
-0.00961437
-0.00888433
-0.00923588
-0.0102505
-0.0114393
-0.0124671
-0.0126853
-0.0131409
-0.0143026
-0.000289186
-0.00254013
-0.00160268
-0.00185032
-0.00292571
-0.0021264
-0.00354771
-0.00668841
-0.00775656
-0.00562445
-0.00743484
-0.00974433
-0.00893988
-0.00921935
-0.0104006
-0.0115018
-0.0125015
-0.0128652
-0.0132613
-0.0142889
-0.000332493
-0.0025612
-0.0017464
-0.0019322
-0.00300082
-0.00228342
-0.00357073
-0.00666632
-0.0078251
-0.00569055
-0.00741093
-0.00987407
-0.00901599
-0.0091877
-0.0105499
-0.0115988
-0.0125137
-0.0130155
-0.0134217
-0.0142969
-0.000382179
-0.00257907
-0.00189644
-0.00201684
-0.00307662
-0.00244269
-0.00359948
-0.00664534
-0.00789414
-0.00576923
-0.00737959
-0.0100006
-0.00911583
-0.00914314
-0.0106889
-0.0117342
-0.0125158
-0.0131222
-0.0136037
-0.0143535
-0.000439006
-0.00259326
-0.00205254
-0.00210482
-0.00315251
-0.00260541
-0.00363306
-0.00662549
-0.00796416
-0.00586058
-0.00734222
-0.0101205
-0.00924255
-0.00909051
-0.0108077
-0.0119079
-0.0125233
-0.013179
-0.0137839
-0.0144683
-0.000503753
-0.00260327
-0.00221434
-0.00219716
-0.00322717
-0.00277273
-0.00367149
-0.00660609
-0.00803603
-0.00596496
-0.00730001
-0.0102301
-0.00939893
-0.00903706
-0.010896
-0.0121151
-0.0125528
-0.0131886
-0.0139379
-0.0146296
-0.000577155
-0.00260884
-0.00238114
-0.00229501
-0.00329899
-0.00294575
-0.00371531
-0.00658594
-0.00811078
-0.00608327
-0.0072544
-0.0103252
-0.00958559
-0.00899149
-0.0109451
-0.0123467
-0.0126196
-0.0131615
-0.0140469
-0.0148132
-0.000659949
-0.00260995
-0.00255164
-0.00239973
-0.00336635
-0.00312502
-0.0037661
-0.00656332
-0.00818853
-0.0062168
-0.00720762
-0.0104017
-0.00980092
-0.00896391
-0.0109491
-0.0125898
-0.0127364
-0.0131115
-0.0141013
-0.0149948
-0.000752794
-0.00260672
-0.00272432
-0.00251324
-0.00342737
-0.00331013
-0.00382654
-0.0065363
-0.00826804
-0.00636741
-0.00716248
-0.0104552
-0.0100418
-0.00896605
-0.0109063
-0.0128271
-0.0129122
-0.0130568
-0.0140969
-0.0151541
-0.000856276
-0.00259962
-0.00289707
-0.00263775
-0.00348101
-0.0034996
-0.00390006
-0.00650359
-0.00834722
-0.00653744
-0.00712292
-0.0104813
-0.0103024
-0.00901024
-0.010822
-0.0130371
-0.0131488
-0.0130217
-0.0140312
-0.0152736
-0.000970881
-0.0025897
-0.00306668
-0.00277539
-0.00352764
-0.00369023
-0.00399078
-0.0064652
-0.0084229
-0.00672865
-0.00709423
-0.0104762
-0.0105736
-0.00910741
-0.0107088
-0.0131963
-0.0134361
-0.0130367
-0.0139116
-0.0153316
-0.00109681
-0.00257869
-0.00322917
-0.0029278
-0.00356907
-0.00387774
-0.00410298
-0.0064229
-0.00849015
-0.00694084
-0.00708271
-0.0104384
-0.0108449
-0.00926476
-0.0105846
-0.0132855
-0.0137508
-0.0131293
-0.0137625
-0.0153053
-0.00123413
-0.00256866
-0.00338035
-0.00309624
-0.00360845
-0.00405685
-0.00424
-0.00638029
-0.00854279
-0.0071719
-0.00709625
-0.0103692
-0.011104
-0.00948327
-0.0104702
-0.0132961
-0.0140637
-0.0133097
-0.0136236
-0.0151864
-0.00138261
-0.00256182
-0.00351658
-0.00328126
-0.00365011
-0.0042219
-0.00440275
-0.00634293
-0.00857503
-0.00741705
-0.00714327
-0.010274
-0.0113391
-0.00975764
-0.0103866
-0.0132319
-0.0143435
-0.0135668
-0.013538
-0.0149946
-0.00154176
-0.00256081
-0.00363466
-0.00348193
-0.00369945
-0.00436822
-0.00458914
-0.0063188
-0.00858329
-0.00766908
-0.00723052
-0.0101625
-0.0115387
-0.0100769
-0.0103529
-0.0131062
-0.0145631
-0.0138762
-0.0135344
-0.0147686
-0.00171091
-0.00256818
-0.00373264
-0.00369628
-0.00376237
-0.0044924
-0.00479496
-0.00631804
-0.00856815
-0.00791794
-0.00736122
-0.0100463
-0.0116937
-0.0104255
-0.010384
-0.0129393
-0.0147036
-0.0142105
-0.0136207
-0.0145531
-0.00188892
-0.00258633
-0.00380999
-0.00392054
-0.00384536
-0.00459354
-0.00501286
-0.00635018
-0.00853408
-0.00815207
-0.00753359
-0.0099385
-0.0117997
-0.0107849
-0.0104863
-0.0127569
-0.0147554
-0.01454
-0.0137909
-0.014385
-0.00207434
-0.00261764
-0.00386744
-0.00414938
-0.00395482
-0.00467377
-0.00523178
-0.00642084
-0.00848891
-0.00836191
-0.00774117
-0.00985194
-0.0118579
-0.0111358
-0.0106554
-0.0125877
-0.0147221
-0.0148336
-0.0140308
-0.0142864
-0.00226549
-0.00266423
-0.00390733
-0.00437682
-0.00409519
-0.00473802
-0.00543904
-0.00652948
-0.00844619
-0.00854323
-0.00797288
-0.00979633
-0.0118748
-0.0114615
-0.010879
-0.0124566
-0.0146215
-0.0150638
-0.0143176
-0.0142699
-0.00246024
-0.00272839
-0.00393333
-0.0045962
-0.0042683
-0.00479573
-0.00562458
-0.00667054
-0.00842039
-0.00869702
-0.00821527
-0.00977616
-0.011861
-0.011751
-0.0111412
-0.0123778
-0.0144782
-0.0152155
-0.0146213
-0.0143396
-0.00265616
-0.0028121
-0.00395058
-0.00480012
-0.00447309
-0.00485967
-0.00578298
-0.00683354
-0.00842168
-0.00882832
-0.00845672
-0.00979068
-0.0118279
-0.0119979
-0.0114258
-0.0123565
-0.0143188
-0.0152899
-0.0149093
-0.0144869
-0.00285101
-0.00291642
-0.00396581
-0.00498165
-0.00470579
-0.00494331
-0.00591478
-0.00700498
-0.00845317
-0.00894435
-0.00868993
-0.00983622
-0.0117862
-0.0121999
-0.0117178
-0.0123924
-0.0141665
-0.0152988
-0.015154
-0.0146879
-0.00304307
-0.00304173
-0.00398574
-0.00513658
-0.00495983
-0.00505712
-0.00602451
-0.00717215
-0.00851231
-0.0090532
-0.00891131
-0.0099074
-0.0117448
-0.0123593
-0.012003
-0.0124787
-0.0140386
-0.0152594
-0.015341
-0.0149114
-0.00323111
-0.00318718
-0.00401712
-0.00526354
-0.00522536
-0.0052075
-0.00612083
-0.00732593
-0.00859419
-0.00916223
-0.0091201
-0.00999748
-0.0117096
-0.0124822
-0.0122714
-0.0126035
-0.0139442
-0.0151899
-0.0154695
-0.0151287
-0.00341452
-0.00335016
-0.00406601
-0.00536401
-0.0054906
-0.00539679
-0.0062179
-0.00746191
-0.00869004
-0.00927522
-0.0093172
-0.0101008
-0.0116839
-0.0125752
-0.012518
-0.0127556
-0.0138847
-0.0151045
-0.0155456
-0.0153202
-0.00359325
-0.00352736
-0.00413577
-0.00544232
-0.00574506
-0.00562259
-0.00633154
-0.00758157
-0.00879042
-0.00939302
-0.00950408
-0.0102129
-0.0116704
-0.0126436
-0.0127386
-0.0129265
-0.0138601
-0.0150136
-0.0155772
-0.015476
-0.00376744
-0.00371557
-0.00422853
-0.00550606
-0.00598175
-0.00587836
-0.00647027
-0.00768884
-0.00888945
-0.00951462
-0.00968253
-0.0103301
-0.0116704
-0.0126941
-0.0129295
-0.0131061
-0.0138717
-0.0149272
-0.0155713
-0.0155918
-0.00393773
-0.00391093
-0.00434522
-0.00556494
-0.00619804
-0.00615337
-0.006636
-0.00779018
-0.00898403
-0.00963725
-0.00985342
-0.01045
-0.0116818
-0.0127332
-0.0130929
-0.0132842
-0.0139164
-0.0148567
-0.0155362
-0.0156661
-0.00410447
-0.00410914
-0.00448568
-0.00563194
-0.00639393
-0.00643538
-0.00682766
-0.00789279
-0.00907267
-0.00975897
-0.0100185
-0.0105714
-0.011701
-0.0127622
-0.0132334
-0.0134563
-0.0139852
-0.0148097
-0.0154845
-0.0157001
-0.00426887
-0.00430286
-0.00464905
-0.00571784
-0.00657162
-0.0067119
-0.00703857
-0.00800156
-0.00915556
-0.00987884
-0.0101807
-0.0106949
-0.0117279
-0.0127807
-0.0133513
-0.0136222
-0.0140716
-0.0147867
-0.01543
-0.0156997
-0.00443501
-0.00450162
-0.0048288
-0.00581782
-0.00673303
-0.00697788
-0.00726404
-0.00812039
-0.00923484
-0.00999515
-0.0103413
-0.0108214
-0.0117626
-0.0127914
-0.013442
-0.0137774
-0.0141744
-0.0147861
-0.0153823
-0.0156766
-0.00460362
-0.00470096
-0.00502355
-0.00593261
-0.00688033
-0.0072288
-0.00749879
-0.00825118
-0.00931305
-0.0101074
-0.0105015
-0.0109532
-0.0118054
-0.0127984
-0.013507
-0.0139119
-0.01429
-0.0148093
-0.0153466
-0.0156448
-0.00477625
-0.00490182
-0.00522736
-0.00606142
-0.00701836
-0.00746331
-0.00773979
-0.00839744
-0.00939402
-0.0102142
-0.0106594
-0.0110919
-0.0118567
-0.0128014
-0.0135506
-0.0140195
-0.0144064
-0.0148578
-0.0153273
-0.0156145
-0.00495439
-0.00510301
-0.00543689
-0.00620501
-0.00715294
-0.00768303
-0.00798348
-0.00855913
-0.00947865
-0.0103106
-0.0108088
-0.0112364
-0.0119198
-0.0128012
-0.0135743
-0.0141007
-0.0145101
-0.0149246
-0.0153283
-0.0155905
-0.00513796
-0.00530524
-0.0056506
-0.00636366
-0.0072875
-0.00788698
-0.00822304
-0.00873314
-0.0095701
-0.0103963
-0.0109449
-0.0113829
-0.0119992
-0.0128068
-0.0135796
-0.0141562
-0.0145937
-0.0149946
-0.0153483
-0.0155739
-0.00532701
-0.00550721
-0.00586755
-0.00653508
-0.00742439
-0.00807619
-0.00845558
-0.00891768
-0.00967199
-0.0104744
-0.0110643
-0.0115242
-0.0120926
-0.0128274
-0.0135761
-0.0141869
-0.0146554
-0.0150557
-0.0153787
-0.015563
-0.00552186
-0.0057113
-0.00608438
-0.00671809
-0.00756732
-0.00825308
-0.00867776
-0.00910914
-0.00978481
-0.0105483
-0.0111653
-0.0116524
-0.0121895
-0.0128614
-0.0135739
-0.0141991
-0.014697
-0.0151058
-0.0154167
-0.0155661
-0.00572215
-0.00591534
-0.00630167
-0.00691086
-0.00771782
-0.00841954
-0.0088858
-0.00930288
-0.00990925
-0.0106233
-0.0112516
-0.0117652
-0.0122831
-0.0128993
-0.0135716
-0.0141953
-0.0147141
-0.0151386
-0.015453
-0.0155871
-0.00592793
-0.00612366
-0.006517
-0.0071098
-0.00787693
-0.0085802
-0.00907982
-0.00949353
-0.0100421
-0.0107008
-0.0113255
-0.0118608
-0.0123722
-0.0129414
-0.0135682
-0.0141809
-0.014708
-0.015144
-0.0154699
-0.015608
-0.00613796
-0.00633234
-0.0067313
-0.00731351
-0.00804484
-0.00873812
-0.00926086
-0.009678
-0.0101806
-0.0107822
-0.0113887
-0.0119346
-0.0124473
-0.0129853
-0.0135635
-0.0141572
-0.014687
-0.015126
-0.0154602
-0.0156113
-0.0063526
-0.00654416
-0.00694392
-0.00751899
-0.00822088
-0.00889621
-0.0094305
-0.0098536
-0.010321
-0.0108674
-0.0114462
-0.0119878
-0.0124964
-0.0130181
-0.0135549
-0.0141169
-0.0146471
-0.0150881
-0.0154273
-0.0155928
-0.00657136
-0.00676249
-0.00715497
-0.00772371
-0.00840322
-0.0090574
-0.0095929
-0.0100188
-0.0104585
-0.0109552
-0.0114995
-0.012027
-0.0125196
-0.0130261
-0.0135362
-0.0140589
-0.0145792
-0.0150224
-0.0153634
-0.0155429
-0.00679163
-0.006978
-0.00736722
-0.00792849
-0.00858878
-0.00922104
-0.00975191
-0.0101771
-0.0105933
-0.0110462
-0.0115479
-0.0120504
-0.0125201
-0.0130007
-0.0134938
-0.0139817
-0.0144783
-0.014923
-0.0152636
-0.0154513
-0.0070146
-0.00719903
-0.00758043
-0.00813064
-0.00877433
-0.00938596
-0.00990726
-0.0103301
-0.0107265
-0.0111397
-0.0115943
-0.012055
-0.0124931
-0.0129372
-0.0134083
-0.0138715
-0.0143387
-0.0147823
-0.0151266
-0.0153196
-0.00724135
-0.00742332
-0.00779493
-0.00833173
-0.00896025
-0.00955138
-0.0100601
-0.0104792
-0.0108637
-0.0112407
-0.0116403
-0.012041
-0.012426
-0.0128158
-0.0132475
-0.0136943
-0.0141401
-0.0145847
-0.0149467
-0.0151599
-0.00746754
-0.00764652
-0.00801209
-0.00853445
-0.00914622
-0.00971667
-0.0102119
-0.010629
-0.011013
-0.0113747
-0.0117112
-0.0120135
-0.0123038
-0.0125939
-0.0129252
-0.0133034
-0.0137034
-0.0141381
-0.0145727
-0.0149253
-0.00769132
-0.00786932
-0.00823043
-0.00873729
-0.00932991
-0.00988388
-0.0103685
-0.0107763
-0.0111736
-0.0115905
-0.0119495
-0.0121653
-0.0123194
-0.0124857
-0.0126882
-0.0128951
-0.0130358
-0.0130919
-0.0130912
-0.0131023
-0.00793384
-0.00808511
-0.00841874
-0.00889235
-0.00946537
-0.01004
-0.0105491
-0.010914
-0.011177
-0.0114329
-0.0117028
-0.0119586
-0.0121965
-0.0124037
-0.012573
-0.0127027
-0.0127854
-0.0128573
-0.0129683
-0.0131715
-0.00822724
-0.00840861
-0.00865462
-0.00902363
-0.00951887
-0.010014
-0.0104562
-0.0108098
-0.0111287
-0.0114532
-0.011772
-0.0120661
-0.0123369
-0.0125532
-0.0127099
-0.0128069
-0.0128285
-0.0127859
-0.012727
-0.0127432
-0.00837698
-0.00848022
-0.00873477
-0.0091139
-0.00957845
-0.0100386
-0.010466
-0.0108314
-0.0111676
-0.0114985
-0.0118039
-0.0120384
-0.0122425
-0.0124321
-0.0126334
-0.0129067
-0.0132833
-0.0137578
-0.014283
-0.014779
-0.00862812
-0.00876324
-0.00893556
-0.00921143
-0.00960994
-0.0100436
-0.0104663
-0.0108446
-0.0112062
-0.0115433
-0.011858
-0.0121197
-0.012323
-0.0124912
-0.012596
-0.0126345
-0.012614
-0.0125629
-0.0125388
-0.012626
-0.00879258
-0.00890045
-0.00903321
-0.00926732
-0.00963154
-0.010047
-0.0104703
-0.0108541
-0.0112305
-0.0115844
-0.0119034
-0.0121695
-0.0123582
-0.0124943
-0.0125859
-0.0126457
-0.0127089
-0.012801
-0.0129625
-0.0132459
-0.00928937
-0.0120187
-0.0178011
-0.0225566
-0.023804
-0.0226286
-0.0210388
-0.0200384
-0.0197625
-0.0199042
-0.0201467
-0.0203033
-0.0202064
-0.0198543
-0.0195365
-0.0194546
-0.0194899
-0.0194867
-0.0194193
-0.0192965
-0.019129
-0.018975
-0.0188849
-0.018866
-0.0188623
-0.0188218
-0.0187941
-0.0188289
-0.0188731
-0.0188862
-0.0189232
-0.0190448
-0.0192074
-0.0193285
-0.0194261
-0.0195884
-0.0198095
-0.0199664
-0.0200253
-0.0200836
-0.0201953
-0.0203119
-0.0204033
-0.0204522
-0.0204975
-0.0205693
-0.0206497
-0.0207753
-0.0210121
-0.0212811
-0.0214648
-0.0215501
-0.0216089
-0.0216756
-0.0217679
-0.0219074
-0.0220877
-0.0222735
-0.0224297
-0.0225664
-0.0227005
-0.0228536
-0.0229954
-0.0231226
-0.0232823
-0.0234349
-0.0235716
-0.0237114
-0.0238846
-0.0240456
-0.0242001
-0.0243473
-0.0244711
-0.0245997
-0.0247421
-0.0249055
-0.0250563
-0.0252171
-0.0253753
-0.0255743
-0.0257551
-0.025934
-0.0260764
-0.0262347
-0.0264108
-0.0266147
-0.0268287
-0.0270206
-0.0272219
-0.027394
-0.0276241
-0.0278001
-0.0280048
-0.0282271
-0.0284123
-0.0286172
-0.0288131
-0.0289265
-0.0289321
-0.0290241
-0.00972161
-0.0121136
-0.0177024
-0.0224248
-0.0237224
-0.0225856
-0.0210094
-0.0200166
-0.0197467
-0.0198927
-0.0201383
-0.0202973
-0.0202023
-0.0198508
-0.0195329
-0.0194512
-0.0194868
-0.019484
-0.0194168
-0.0192943
-0.0191268
-0.0189728
-0.0188829
-0.0188641
-0.0188606
-0.0188202
-0.0187925
-0.0188274
-0.0188717
-0.0188848
-0.0189217
-0.0190434
-0.0192062
-0.0193273
-0.0194249
-0.0195872
-0.0198085
-0.0199655
-0.0200245
-0.0200827
-0.0201945
-0.0203111
-0.0204026
-0.0204515
-0.0204969
-0.0205687
-0.0206491
-0.0207747
-0.0210115
-0.0212807
-0.0214644
-0.0215497
-0.0216086
-0.0216752
-0.0217675
-0.021907
-0.0220873
-0.0222732
-0.0224294
-0.0225662
-0.0227002
-0.0228534
-0.0229952
-0.0231224
-0.0232821
-0.0234347
-0.0235714
-0.0237111
-0.0238844
-0.0240454
-0.0241999
-0.0243471
-0.0244709
-0.0245995
-0.024742
-0.0249053
-0.0250562
-0.025217
-0.0253751
-0.0255741
-0.0257549
-0.0259339
-0.0260763
-0.0262346
-0.0264107
-0.0266146
-0.0268286
-0.0270205
-0.0272218
-0.0273939
-0.027624
-0.0278
-0.0280047
-0.028227
-0.0284122
-0.0286171
-0.028813
-0.0289264
-0.0289319
-0.0290239
-0.0101922
-0.012189
-0.0174863
-0.0221696
-0.0235847
-0.0225351
-0.0209854
-0.0199968
-0.019729
-0.0198774
-0.0201252
-0.0202869
-0.0201948
-0.0198456
-0.0195291
-0.0194482
-0.0194841
-0.0194814
-0.0194145
-0.0192922
-0.0191248
-0.0189709
-0.0188809
-0.0188624
-0.0188591
-0.0188187
-0.018791
-0.018826
-0.0188705
-0.0188836
-0.0189205
-0.0190423
-0.0192052
-0.0193263
-0.0194239
-0.0195862
-0.0198076
-0.0199648
-0.0200237
-0.0200819
-0.0201937
-0.0203104
-0.020402
-0.0204509
-0.0204963
-0.0205681
-0.0206486
-0.0207741
-0.021011
-0.0212803
-0.0214641
-0.0215494
-0.0216082
-0.0216749
-0.0217672
-0.0219067
-0.022087
-0.0222729
-0.0224292
-0.0225659
-0.0227
-0.0228532
-0.0229949
-0.0231222
-0.0232819
-0.0234345
-0.0235712
-0.0237109
-0.0238842
-0.0240452
-0.0241998
-0.0243469
-0.0244707
-0.0245993
-0.0247418
-0.0249052
-0.025056
-0.0252168
-0.025375
-0.025574
-0.0257548
-0.0259338
-0.0260762
-0.0262345
-0.0264106
-0.0266145
-0.0268285
-0.0270205
-0.0272217
-0.0273938
-0.0276239
-0.0278
-0.0280047
-0.0282269
-0.0284121
-0.028617
-0.0288129
-0.0289263
-0.0289318
-0.0290236
-0.010612
-0.0122404
-0.0172179
-0.0218549
-0.023405
-0.0224711
-0.0209565
-0.0199717
-0.0197053
-0.0198562
-0.0201052
-0.0202677
-0.0201788
-0.0198348
-0.019523
-0.0194443
-0.0194807
-0.0194779
-0.0194114
-0.0192896
-0.0191226
-0.0189686
-0.0188788
-0.0188604
-0.0188575
-0.0188173
-0.0187896
-0.0188246
-0.0188692
-0.0188823
-0.0189193
-0.019041
-0.019204
-0.0193253
-0.0194228
-0.0195852
-0.0198068
-0.0199641
-0.0200229
-0.0200811
-0.0201929
-0.0203097
-0.0204014
-0.0204503
-0.0204957
-0.0205675
-0.020648
-0.0207735
-0.0210105
-0.02128
-0.0214638
-0.0215491
-0.0216079
-0.0216745
-0.0217668
-0.0219063
-0.0220867
-0.0222727
-0.022429
-0.0225657
-0.0226997
-0.0228529
-0.0229947
-0.023122
-0.0232817
-0.0234343
-0.023571
-0.0237107
-0.023884
-0.0240451
-0.0241996
-0.0243468
-0.0244706
-0.0245992
-0.0247416
-0.024905
-0.0250559
-0.0252167
-0.0253748
-0.0255739
-0.0257547
-0.0259337
-0.0260761
-0.0262344
-0.0264105
-0.0266144
-0.0268284
-0.0270204
-0.0272216
-0.0273937
-0.0276239
-0.0277999
-0.0280046
-0.0282268
-0.0284121
-0.0286169
-0.0288128
-0.0289263
-0.0289318
-0.0290233
-0.0110095
-0.0123149
-0.0169515
-0.0215263
-0.0232102
-0.0224015
-0.0209263
-0.0199431
-0.0196762
-0.0198291
-0.0200776
-0.0202385
-0.0201522
-0.0198165
-0.0195129
-0.0194381
-0.0194751
-0.0194724
-0.0194066
-0.0192859
-0.0191197
-0.0189661
-0.0188761
-0.0188579
-0.0188556
-0.018816
-0.0187883
-0.018823
-0.0188675
-0.018881
-0.0189182
-0.0190398
-0.0192026
-0.0193239
-0.0194217
-0.0195842
-0.0198058
-0.0199631
-0.020022
-0.0200802
-0.0201921
-0.0203088
-0.0204006
-0.0204496
-0.020495
-0.0205668
-0.0206472
-0.0207727
-0.0210098
-0.0212796
-0.0214635
-0.0215487
-0.0216074
-0.021674
-0.0217664
-0.0219059
-0.0220864
-0.0222724
-0.0224287
-0.0225654
-0.0226994
-0.0228527
-0.0229945
-0.0231217
-0.0232814
-0.0234341
-0.0235708
-0.0237105
-0.0238838
-0.0240449
-0.0241994
-0.0243466
-0.0244704
-0.024599
-0.0247415
-0.0249049
-0.0250557
-0.0252165
-0.0253746
-0.0255737
-0.0257546
-0.0259336
-0.026076
-0.0262342
-0.0264104
-0.0266143
-0.0268283
-0.0270203
-0.0272215
-0.0273936
-0.0276238
-0.0277998
-0.0280045
-0.0282268
-0.028412
-0.0286169
-0.0288128
-0.0289263
-0.0289318
-0.029023
-0.0114042
-0.0124274
-0.0166942
-0.0211884
-0.0230037
-0.0223277
-0.0208966
-0.0199136
-0.0196441
-0.0197981
-0.0200452
-0.0202021
-0.0201176
-0.0197918
-0.0194989
-0.0194291
-0.0194666
-0.019464
-0.0193993
-0.0192805
-0.0191159
-0.018963
-0.0188729
-0.0188547
-0.0188533
-0.0188149
-0.0187874
-0.0188214
-0.0188657
-0.0188798
-0.0189174
-0.0190385
-0.0192008
-0.0193223
-0.0194205
-0.0195831
-0.0198045
-0.0199618
-0.0200209
-0.0200793
-0.0201911
-0.0203078
-0.0203996
-0.0204487
-0.0204941
-0.0205658
-0.0206461
-0.0207717
-0.0210091
-0.021279
-0.0214631
-0.0215483
-0.0216069
-0.0216735
-0.0217658
-0.0219055
-0.0220859
-0.022272
-0.0224284
-0.0225651
-0.0226991
-0.0228523
-0.0229942
-0.0231214
-0.0232812
-0.0234339
-0.0235706
-0.0237103
-0.0238836
-0.0240447
-0.0241992
-0.0243465
-0.0244702
-0.0245988
-0.0247413
-0.0249047
-0.0250556
-0.0252164
-0.0253745
-0.0255736
-0.0257544
-0.0259335
-0.0260758
-0.0262341
-0.0264102
-0.0266141
-0.0268282
-0.0270202
-0.0272214
-0.0273935
-0.0276237
-0.0277997
-0.0280044
-0.0282267
-0.0284119
-0.0286168
-0.0288127
-0.0289264
-0.028932
-0.0290226
-0.0117945
-0.0125696
-0.0164414
-0.0208393
-0.0227844
-0.0222488
-0.0208674
-0.0198838
-0.0196094
-0.0197642
-0.0200098
-0.0201621
-0.0200787
-0.0197635
-0.0194825
-0.0194177
-0.0194551
-0.0194524
-0.0193894
-0.0192733
-0.0191111
-0.0189595
-0.0188692
-0.0188507
-0.0188504
-0.0188138
-0.0187869
-0.01882
-0.0188639
-0.0188788
-0.018917
-0.0190374
-0.0191986
-0.0193203
-0.0194193
-0.0195819
-0.0198027
-0.0199598
-0.0200194
-0.0200782
-0.02019
-0.0203064
-0.0203984
-0.0204479
-0.0204932
-0.0205647
-0.0206449
-0.0207705
-0.0210081
-0.0212783
-0.0214626
-0.0215478
-0.0216062
-0.0216728
-0.0217652
-0.0219049
-0.0220854
-0.0222715
-0.022428
-0.0225647
-0.0226987
-0.0228519
-0.0229939
-0.0231211
-0.0232809
-0.0234336
-0.0235703
-0.02371
-0.0238834
-0.0240445
-0.024199
-0.0243463
-0.02447
-0.0245986
-0.0247411
-0.0249045
-0.0250554
-0.0252162
-0.0253743
-0.0255734
-0.0257543
-0.0259333
-0.0260757
-0.0262339
-0.02641
-0.026614
-0.026828
-0.02702
-0.0272213
-0.0273934
-0.0276236
-0.0277996
-0.0280043
-0.0282266
-0.0284119
-0.0286168
-0.0288127
-0.0289265
-0.0289322
-0.0290221
-0.0121704
-0.0127348
-0.0161956
-0.0204811
-0.0225517
-0.0221632
-0.0208382
-0.0198539
-0.0195723
-0.0197276
-0.0199724
-0.0201202
-0.0200376
-0.0197333
-0.0194647
-0.0194049
-0.0194416
-0.0194383
-0.0193771
-0.0192643
-0.0191053
-0.0189553
-0.018865
-0.0188461
-0.0188469
-0.0188125
-0.0187866
-0.0188188
-0.0188622
-0.0188783
-0.0189173
-0.0190364
-0.0191962
-0.0193181
-0.0194183
-0.0195808
-0.0198004
-0.019957
-0.0200173
-0.0200767
-0.0201884
-0.0203047
-0.020397
-0.0204471
-0.0204924
-0.0205635
-0.0206435
-0.0207693
-0.0210069
-0.0212772
-0.0214618
-0.021547
-0.0216054
-0.0216719
-0.0217644
-0.0219042
-0.0220847
-0.0222709
-0.0224275
-0.0225642
-0.0226982
-0.0228514
-0.0229934
-0.0231207
-0.0232806
-0.0234333
-0.02357
-0.0237098
-0.0238831
-0.0240443
-0.0241988
-0.0243461
-0.0244698
-0.0245983
-0.0247409
-0.0249044
-0.0250552
-0.025216
-0.0253741
-0.0255732
-0.0257541
-0.0259332
-0.0260755
-0.0262337
-0.0264099
-0.0266138
-0.0268279
-0.0270199
-0.0272211
-0.0273932
-0.0276235
-0.0277995
-0.0280041
-0.0282265
-0.0284118
-0.0286167
-0.0288127
-0.0289267
-0.0289327
-0.0290217
-0.0125238
-0.0129222
-0.0159641
-0.0201164
-0.0223041
-0.0220684
-0.020808
-0.0198241
-0.0195331
-0.0196882
-0.019933
-0.0200767
-0.0199948
-0.0197015
-0.0194457
-0.0193912
-0.0194268
-0.0194225
-0.0193632
-0.0192539
-0.0190986
-0.0189507
-0.0188605
-0.0188412
-0.0188431
-0.018811
-0.0187861
-0.0188175
-0.0188607
-0.0188784
-0.0189182
-0.0190357
-0.0191935
-0.0193159
-0.0194176
-0.01958
-0.0197979
-0.0199536
-0.0200146
-0.0200747
-0.0201863
-0.0203022
-0.0203951
-0.0204462
-0.0204918
-0.0205625
-0.0206424
-0.0207681
-0.0210056
-0.0212758
-0.0214607
-0.0215461
-0.0216044
-0.0216708
-0.0217635
-0.0219034
-0.0220839
-0.0222701
-0.0224268
-0.0225636
-0.0226975
-0.0228507
-0.0229929
-0.0231202
-0.0232801
-0.0234328
-0.0235696
-0.0237094
-0.0238828
-0.024044
-0.0241986
-0.0243459
-0.0244696
-0.0245981
-0.0247406
-0.0249041
-0.025055
-0.0252158
-0.0253739
-0.0255731
-0.025754
-0.025933
-0.0260754
-0.0262335
-0.0264097
-0.0266137
-0.0268278
-0.0270197
-0.027221
-0.0273931
-0.0276233
-0.0277994
-0.028004
-0.0282264
-0.0284117
-0.0286168
-0.0288126
-0.028927
-0.0289333
-0.0290212
-0.0128494
-0.0131313
-0.0157532
-0.019747
-0.0220402
-0.0219625
-0.0207759
-0.0197951
-0.0194922
-0.019646
-0.0198917
-0.0200318
-0.0199504
-0.0196681
-0.0194257
-0.0193768
-0.0194112
-0.0194056
-0.0193478
-0.0192423
-0.019091
-0.0189455
-0.0188557
-0.0188361
-0.018839
-0.0188092
-0.0187854
-0.018816
-0.0188593
-0.0188789
-0.0189196
-0.0190352
-0.0191907
-0.0193135
-0.0194173
-0.0195796
-0.0197953
-0.0199498
-0.0200114
-0.0200722
-0.0201834
-0.0202989
-0.0203925
-0.020445
-0.0204914
-0.0205618
-0.0206416
-0.0207674
-0.0210045
-0.0212743
-0.0214592
-0.0215449
-0.0216031
-0.0216696
-0.0217625
-0.0219025
-0.0220828
-0.0222691
-0.0224259
-0.0225628
-0.0226967
-0.0228498
-0.0229921
-0.0231196
-0.0232795
-0.0234322
-0.0235691
-0.0237089
-0.0238824
-0.0240436
-0.0241983
-0.0243457
-0.0244693
-0.0245978
-0.0247403
-0.0249039
-0.0250548
-0.0252156
-0.0253737
-0.0255729
-0.0257538
-0.0259328
-0.0260752
-0.0262333