/*--------------------------------*- C++ -*----------------------------------*\
| =========                 |                                                 |
| \\      /  F ield         | OpenFOAM: The Open Source CFD Toolbox           |
|  \\    /   O peration     | Version:  v1812                                 |
|   \\  /    A nd           | Web:      www.OpenFOAM.com                      |
|    \\/     M anipulation  |                                                 |
\*---------------------------------------------------------------------------*/
FoamFile
{
    version     2.0;
    format      ascii;
    class       volVectorField;
    location    "7.4";
    object      U;
}
// * * * * * * * * * * * * * * * * * * * * * * * * * * * * * * * * * * * * * //

dimensions      [0 1 -1 0 0 0 0];


internalField   nonuniform List<vector> 
9600
(
(0.815063 0.00878678 0)
(1.26362 0.00043159 0)
(0.794212 -0.000662829 0)
(1.07729 0.00510686 0)
(0.907377 0.026539 0)
(1.23142 -0.0128717 0)
(0.599593 -0.00320848 0)
(1.28098 0.0116144 0)
(0.6621 0.000155514 0)
(1.23492 0.0212318 0)
(0.809099 0.00991992 0)
(1.13271 0.017634 0)
(0.837434 0.00644701 0)
(1.10141 0.00875483 0)
(0.848327 0.011026 0)
(1.09915 0.00796415 0)
(0.835732 0.021044 0)
(1.09934 0.00865357 0)
(0.814607 0.0139588 0)
(1.1035 0.0110369 0)
(0.819292 0.0082086 0)
(1.25454 0.00100587 0)
(0.799895 0.000851677 0)
(1.07254 0.00462021 0)
(0.909657 0.0249173 0)
(1.22436 -0.00897676 0)
(0.606309 -0.00423004 0)
(1.27319 0.0113519 0)
(0.676407 0.000196894 0)
(1.22633 0.0199062 0)
(0.834515 0.0109157 0)
(1.1192 0.0177895 0)
(0.870568 0.00669774 0)
(1.07864 0.00888991 0)
(0.890808 0.0109482 0)
(1.0587 0.0084061 0)
(0.897081 0.0210936 0)
(1.02845 0.00880912 0)
(0.913039 0.0148542 0)
(0.987249 0.00908962 0)
(0.829078 0.00754832 0)
(1.23667 0.00139069 0)
(0.81559 0.00180961 0)
(1.05935 0.00371297 0)
(0.914619 0.023273 0)
(1.21119 -0.00595739 0)
(0.629354 -0.00535092 0)
(1.25195 0.0110338 0)
(0.717453 0.000237197 0)
(1.19597 0.0180253 0)
(0.886528 0.012381 0)
(1.08828 0.0175008 0)
(0.921802 0.00725634 0)
(1.04027 0.00863335 0)
(0.944003 0.0112358 0)
(1.01541 0.00857279 0)
(0.951361 0.0213262 0)
(0.990797 0.00908065 0)
(0.959331 0.0150611 0)
(0.969237 0.00943003 0)
(0.844734 0.00700536 0)
(1.21012 0.00170562 0)
(0.843349 0.00293202 0)
(1.03734 0.0030244 0)
(0.922327 0.0217562 0)
(1.19013 -0.00307856 0)
(0.675637 -0.0061 0)
(1.21113 0.0104196 0)
(0.785391 0.000558934 0)
(1.1425 0.0160289 0)
(0.943435 0.0137513 0)
(1.05289 0.0170981 0)
(0.961537 0.00798981 0)
(1.00754 0.00822255 0)
(0.973513 0.0116411 0)
(0.992106 0.00848979 0)
(0.973854 0.0216726 0)
(0.982263 0.00915376 0)
(0.970993 0.0152725 0)
(0.972064 0.0101188 0)
(0.865583 0.00656605 0)
(1.17604 0.00188742 0)
(0.880299 0.0041176 0)
(1.01054 0.00258139 0)
(0.932706 0.0202084 0)
(1.16145 -0.000647581 0)
(0.743143 -0.00645007 0)
(1.15373 0.0093654 0)
(0.861708 0.00125528 0)
(1.08063 0.014076 0)
(0.982736 0.0147203 0)
(1.02694 0.0170332 0)
(0.981205 0.00872309 0)
(0.98865 0.00803668 0)
(0.980466 0.0118785 0)
(0.981559 0.00858402 0)
(0.977146 0.0217401 0)
(0.979133 0.0093814 0)
(0.971829 0.0154871 0)
(0.971766 0.0106334 0)
(0.889822 0.00622202 0)
(1.13752 0.00189911 0)
(0.91984 0.00533927 0)
(0.986212 0.00233207 0)
(0.944645 0.0186478 0)
(1.1285 0.00116995 0)
(0.818952 -0.00633096 0)
(1.09279 0.00807313 0)
(0.924183 0.00206883 0)
(1.02921 0.0125649 0)
(0.999012 0.0152124 0)
(1.01285 0.0172543 0)
(0.988875 0.00942263 0)
(0.980657 0.00811924 0)
(0.978018 0.0120621 0)
(0.975647 0.00878705 0)
(0.973642 0.0215971 0)
(0.976316 0.00978602 0)
(0.970454 0.0154435 0)
(0.971082 0.0111224 0)
(0.914779 0.00598661 0)
(1.09929 0.00175302 0)
(0.954825 0.00649765 0)
(0.97131 0.00228107 0)
(0.955958 0.0171863 0)
(1.09679 0.00227052 0)
(0.887197 -0.00578819 0)
(1.04264 0.00689191 0)
(0.962475 0.00277021 0)
(0.996976 0.0116854 0)
(0.999985 0.0152686 0)
(1.00605 0.0174916 0)
(0.992708 0.0100859 0)
(0.979426 0.00839415 0)
(0.975063 0.0122843 0)
(0.972458 0.00898344 0)
(0.970015 0.0213816 0)
(0.974915 0.0101379 0)
(0.970467 0.0151983 0)
(0.972338 0.011597 0)
(0.937702 0.00585769 0)
(1.06604 0.00149701 0)
(0.980614 0.00748875 0)
(0.96843 0.00242431 0)
(0.964926 0.0159167 0)
(1.07116 0.00273578 0)
(0.937984 -0.00497356 0)
(1.00995 0.0060852 0)
(0.979437 0.00329206 0)
(0.98108 0.0112701 0)
(0.995292 0.0150166 0)
(1.00233 0.0175771 0)
(0.995603 0.010665 0)
(0.981861 0.00877196 0)
(0.974887 0.0125718 0)
(0.972116 0.00919614 0)
(0.969043 0.021087 0)
(0.975663 0.0103977 0)
(0.972838 0.0148148 0)
(0.975675 0.0120234 0)
(0.956657 0.00581043 0)
(1.04062 0.00120008 0)
(0.996279 0.00824145 0)
(0.974821 0.00271164 0)
(0.971653 0.0148882 0)
(1.05328 0.00274133 0)
(0.969644 -0.00402072 0)
(0.99301 0.00570404 0)
(0.984155 0.00365744 0)
(0.974743 0.0110674 0)
(0.990579 0.0146137 0)
(0.999796 0.0174796 0)
(0.997706 0.0111146 0)
(0.985593 0.00918114 0)
(0.977482 0.0129237 0)
(0.974505 0.00945642 0)
(0.971164 0.0207187 0)
(0.97854 0.0106149 0)
(0.977133 0.0143076 0)
(0.980441 0.0123717 0)
(0.970957 0.00581211 0)
(1.02337 0.00092167 0)
(1.0038 0.00873074 0)
(0.985026 0.00306871 0)
(0.977602 0.014103 0)
(1.04175 0.00248769 0)
(0.98598 -0.00303131 0)
(0.9866 0.00563116 0)
(0.985095 0.00392031 0)
(0.973281 0.0109385 0)
(0.987798 0.014165 0)
(0.998091 0.017238 0)
(0.999014 0.0114375 0)
(0.989262 0.00956417 0)
(0.981685 0.0132941 0)
(0.97895 0.00975723 0)
(0.975783 0.0203039 0)
(0.983181 0.010819 0)
(0.982719 0.0137202 0)
(0.985987 0.0126417 0)
(0.980976 0.00583492 0)
(1.01283 0.000693321 0)
(1.00626 0.00898273 0)
(0.99438 0.00342458 0)
(0.983989 0.0135303 0)
(1.03408 0.00214886 0)
(0.992646 -0.00207087 0)
(0.985917 0.00570658 0)
(0.986738 0.00412792 0)
(0.974755 0.0108502 0)
(0.987322 0.0137246 0)
(0.997473 0.0169142 0)
(0.999994 0.0116622 0)
(0.992494 0.00987393 0)
(0.986465 0.0136224 0)
(0.984491 0.0100695 0)
(0.981965 0.0198377 0)
(0.988957 0.0110405 0)
(0.988996 0.0130993 0)
(0.991789 0.0128499 0)
(0.987648 0.00585929 0)
(1.00695 0.000524746 0)
(1.00631 0.00905876 0)
(1.00071 0.00372786 0)
(0.990825 0.0131271 0)
(1.02843 0.00183288 0)
(0.994583 -0.00117642 0)
(0.987791 0.00580548 0)
(0.989865 0.00429646 0)
(0.978246 0.0108009 0)
(0.988958 0.0133241 0)
(0.998188 0.0165652 0)
(1.00118 0.0118122 0)
(0.995381 0.0100991 0)
(0.991196 0.0138704 0)
(0.99021 0.010355 0)
(0.988662 0.0193133 0)
(0.995013 0.0112901 0)
(0.995244 0.0125004 0)
(0.997295 0.01301 0)
(0.992006 0.00587355 0)
(1.00396 0.000412808 0)
(1.00552 0.00902714 0)
(1.00398 0.00395379 0)
(0.997246 0.0128416 0)
(1.024 0.00160593 0)
(0.994897 -0.000368182 0)
(0.990432 0.0058632 0)
(0.993595 0.00441913 0)
(0.982761 0.0107824 0)
(0.99204 0.0129755 0)
(1.00004 0.016227 0)
(1.00274 0.0119178 0)
(0.998005 0.010259 0)
(0.995495 0.014017 0)
(0.995421 0.0105939 0)
(0.994916 0.018745 0)
(1.00052 0.0115565 0)
(1.00076 0.0119691 0)
(1.00199 0.0131265 0)
(0.994895 0.0058717 0)
(1.00262 0.000349474 0)
(1.00455 0.00893952 0)
(1.00516 0.00410117 0)
(1.00242 0.012628 0)
(1.02058 0.00146411 0)
(0.994969 0.000349347 0)
(0.992973 0.00586687 0)
(0.997059 0.00448693 0)
(0.987263 0.0107809 0)
(0.99561 0.012674 0)
(1.00241 0.0159176 0)
(1.00446 0.0120093 0)
(1.0003 0.0103756 0)
(0.999112 0.0140663 0)
(0.999746 0.0107873 0)
(1.00011 0.0181515 0)
(1.00498 0.0118298 0)
(1.00517 0.0115304 0)
(1.00562 0.0131983 0)
(0.996878 0.00585069 0)
(1.00211 0.000328083 0)
(1.00372 0.00882508 0)
(1.00521 0.00418456 0)
(1.00614 0.0124519 0)
(1.01795 0.00139375 0)
(0.99519 0.000983029 0)
(0.995167 0.00582717 0)
(0.999928 0.00450028 0)
(0.99106 0.0107838 0)
(0.998834 0.0124067 0)
(1.00464 0.015646 0)
(1.00601 0.0120988 0)
(1.00217 0.0104588 0)
(1.00196 0.0140473 0)
(1.00311 0.0109423 0)
(1.00407 0.017556 0)
(1.00828 0.012098 0)
(1.00846 0.0111948 0)
(1.00825 0.0132279 0)
(0.99824 0.00581019 0)
(1.00193 0.000342583 0)
(1.00323 0.00869763 0)
(1.00475 0.00422213 0)
(1.00867 0.0122928 0)
(1.01578 0.00137899 0)
(0.995629 0.001541 0)
(0.997125 0.00576102 0)
(1.0022 0.00446505 0)
(0.993899 0.0107912 0)
(1.00129 0.0121612 0)
(1.00634 0.0154086 0)
(1.00721 0.0121884 0)
(1.0036 0.0105217 0)
(1.00411 0.0139752 0)
(1.00563 0.0110641 0)
(1.00696 0.0169754 0)
(1.01059 0.0123521 0)
(1.01082 0.0109571 0)
(1.0101 0.0132271 0)
(0.999091 0.00575297 0)
(1.00181 0.000384278 0)
(1.00319 0.00856204 0)
(1.00407 0.00423118 0)
(1.01038 0.0121405 0)
(1.01383 0.00140341 0)
(0.996303 0.0020229 0)
(0.999001 0.00568818 0)
(1.00391 0.0043938 0)
(0.995794 0.0108101 0)
(1.00294 0.0119307 0)
(1.00746 0.0151937 0)
(1.00805 0.0122754 0)
(1.00468 0.0105721 0)
(1.00568 0.0138725 0)
(1.00746 0.011143 0)
(1.00898 0.0164143 0)
(1.01208 0.0125953 0)
(1.01242 0.010794 0)
(1.01136 0.0131962 0)
(0.9995 0.00568369 0)
(1.00168 0.000442589 0)
(1.00357 0.00841925 0)
(1.00331 0.00422855 0)
(1.01142 0.0119893 0)
(1.01212 0.00146048 0)
(0.997166 0.00242516 0)
(1.00077 0.00562842 0)
(1.00507 0.00430714 0)
(0.996843 0.0108416 0)
(1.00387 0.0117108 0)
(1.0081 0.0149876 0)
(1.00859 0.0123589 0)
(1.00548 0.0106068 0)
(1.00677 0.013754 0)
(1.0087 0.0111901 0)
(1.01026 0.0158805 0)
(1.01286 0.0128213 0)
(1.01334 0.0106767 0)
(1.01211 0.0131207 0)
(0.99958 0.00560624 0)
(1.00155 0.000509475 0)
(1.0042 0.00826991 0)
(1.00261 0.00423058 0)
(1.01185 0.0118328 0)
(1.01077 0.0015367 0)
(0.998091 0.00274853 0)
(1.00225 0.00559703 0)
(1.0057 0.00422465 0)
(0.997207 0.0108851 0)
(1.00421 0.011496 0)
(1.00835 0.0147721 0)
(1.00886 0.0124388 0)
(1.00606 0.0106207 0)
(1.00745 0.0136313 0)
(1.00944 0.0112272 0)
(1.0109 0.0153704 0)
(1.01306 0.0130288 0)
(1.01367 0.0106045 0)
(1.01243 0.0129917 0)
(0.999479 0.00552364 0)
(1.00143 0.000578927 0)
(1.00487 0.00811233 0)
(1.00205 0.00425146 0)
(1.01177 0.0116623 0)
(1.00987 0.00162339 0)
(0.99893 0.00300382 0)
(1.00329 0.00560428 0)
(1.00596 0.00415325 0)
(0.997129 0.0109413 0)
(1.0041 0.0112824 0)
(1.00833 0.0145347 0)
(1.00886 0.0125116 0)
(1.00644 0.0106063 0)
(1.00777 0.0135215 0)
(1.00981 0.0112682 0)
(1.01108 0.014866 0)
(1.01285 0.013232 0)
(1.01355 0.0105918 0)
(1.01246 0.0127985 0)
(0.999329 0.0054365 0)
(1.00133 0.000650708 0)
(1.00545 0.00794276 0)
(1.00167 0.00430007 0)
(1.01139 0.0114709 0)
(1.00935 0.00171852 0)
(0.999589 0.00320714 0)
(1.0039 0.00565672 0)
(1.00599 0.0040905 0)
(0.996893 0.0110066 0)
(1.00374 0.0110762 0)
(1.00817 0.0142603 0)
(1.00866 0.0125859 0)
(1.00668 0.0105652 0)
(1.00785 0.0134207 0)
(1.00995 0.0113344 0)
(1.01099 0.0143591 0)
(1.01244 0.0134247 0)
(1.01317 0.0106411 0)
(1.01236 0.0125345 0)
(0.999201 0.00534454 0)
(1.00125 0.000725819 0)
(1.00588 0.00775931 0)
(1.00146 0.00437799 0)
(1.01092 0.0112548 0)
(1.00908 0.00182137 0)
(1.00004 0.0033709 0)
(1.00422 0.00575086 0)
(1.00594 0.00403635 0)
(0.99672 0.0110762 0)
(1.00329 0.0108838 0)
(1.00798 0.013941 0)
(1.00833 0.0126655 0)
(1.00684 0.0105003 0)
(1.00779 0.0133186 0)
(1.01001 0.0114432 0)
(1.01082 0.0138548 0)
(1.01203 0.0135824 0)
(1.01272 0.010758 0)
(1.01228 0.0122054 0)
(0.999113 0.00524662 0)
(1.00121 0.000808223 0)
(1.00616 0.00755644 0)
(1.00139 0.00448749 0)
(1.01048 0.0110107 0)
(1.00896 0.00193599 0)
(1.00029 0.00350445 0)
(1.0044 0.00588224 0)
(1.00585 0.00398172 0)
(0.996714 0.0111457 0)
(1.00289 0.0107181 0)
(1.00786 0.0135753 0)
(1.00795 0.0127497 0)
(1.00697 0.0104158 0)
(1.00767 0.0131952 0)
(1.01005 0.0115955 0)
(1.01067 0.0133601 0)
(1.01171 0.0136756 0)
(1.01228 0.0109594 0)
(1.01226 0.0118451 0)
(0.999054 0.00514074 0)
(1.0012 0.000902711 0)
(1.0063 0.00733044 0)
(1.00145 0.00462492 0)
(1.01008 0.0107385 0)
(1.00893 0.00207013 0)
(1.00039 0.00360921 0)
(1.00455 0.00604511 0)
(1.00577 0.00392749 0)
(0.996879 0.0112012 0)
(1.00259 0.0105929 0)
(1.00784 0.0131621 0)
(1.00756 0.0128408 0)
(1.00708 0.0103304 0)
(1.00756 0.0130319 0)
(1.01009 0.0117838 0)
(1.01058 0.0128907 0)
(1.0115 0.0136732 0)
(1.01189 0.0112466 0)
(1.01231 0.0115095 0)
(0.999009 0.00502655 0)
(1.00124 0.00100889 0)
(1.00632 0.00708389 0)
(1.00159 0.00478406 0)
(1.00969 0.0104416 0)
(1.00895 0.00222281 0)
(1.00038 0.00369079 0)
(1.0047 0.00622648 0)
(1.0057 0.00388029 0)
(0.997163 0.0112315 0)
(1.00239 0.0105127 0)
(1.0079 0.0127131 0)
(1.00721 0.0129311 0)
(1.00715 0.0102604 0)
(1.00748 0.0128233 0)
(1.0101 0.0120049 0)
(1.01054 0.0124779 0)
(1.01138 0.0135526 0)
(1.01156 0.0115819 0)
(1.01238 0.0112538 0)
(0.998972 0.00490198 0)
(1.00133 0.00113183 0)
(1.00623 0.00681138 0)
(1.00181 0.00496634 0)
(1.00929 0.0101217 0)
(1.00899 0.00239521 0)
(1.0003 0.00375864 0)
(1.00485 0.00641866 0)
(1.00566 0.00383891 0)
(0.997505 0.0112291 0)
(1.00227 0.0104811 0)
(1.00803 0.0122461 0)
(1.00691 0.0130097 0)
(1.00718 0.0102214 0)
(1.00743 0.012567 0)
(1.01008 0.0122403 0)
(1.01053 0.0121513 0)
(1.01133 0.0133117 0)
(1.01128 0.011911 0)
(1.01241 0.0111278 0)
(0.998945 0.0047661 0)
(1.00146 0.00127253 0)
(1.00606 0.00651505 0)
(1.00207 0.00516615 0)
(1.00887 0.00978279 0)
(1.00903 0.00258701 0)
(1.00022 0.00381013 0)
(1.00497 0.0066146 0)
(1.00566 0.00381149 0)
(0.997863 0.0111839 0)
(1.00221 0.0104948 0)
(1.00818 0.0117692 0)
(1.00667 0.0130614 0)
(1.00714 0.0102339 0)
(1.00744 0.01226 0)
(1.01001 0.0124576 0)
(1.01051 0.011929 0)
(1.0113 0.0129682 0)
(1.01106 0.0121745 0)
(1.01237 0.0111623 0)
(0.998935 0.00461745 0)
(1.00161 0.00143379 0)
(1.00582 0.00619504 0)
(1.00235 0.00538038 0)
(1.00845 0.00943132 0)
(1.00903 0.00279086 0)
(1.00018 0.00385776 0)
(1.00505 0.00679893 0)
(1.00571 0.00380533 0)
(0.998215 0.0110955 0)
(1.00218 0.0105467 0)
(1.00834 0.0112882 0)
(1.00647 0.0130732 0)
(1.00704 0.0103092 0)
(1.00748 0.0119051 0)
(1.00993 0.0126302 0)
(1.01048 0.0118208 0)
(1.0113 0.0125619 0)
(1.0109 0.0123102 0)
(1.01226 0.0113384 0)
(0.998947 0.00445463 0)
(1.00176 0.00161656 0)
(1.00556 0.00585411 0)
(1.00261 0.00560488 0)
(1.00806 0.00906701 0)
(1.00898 0.00300489 0)
(1.00019 0.00391206 0)
(1.00509 0.00696515 0)
(1.00582 0.00383191 0)
(0.998556 0.0109654 0)
(1.00217 0.0106304 0)
(1.00849 0.0108189 0)
(1.00634 0.0130343 0)
(1.00688 0.010443 0)
(1.00756 0.011517 0)
(1.00984 0.0127323 0)
(1.01042 0.0118239 0)
(1.0113 0.0121549 0)
(1.01082 0.0122881 0)
(1.01211 0.0115839 0)
(0.998982 0.00427777 0)
(1.0019 0.00182185 0)
(1.0053 0.00549146 0)
(1.00283 0.00583614 0)
(1.00772 0.00870137 0)
(1.00886 0.00321064 0)
(1.00026 0.0039703 0)
(1.00508 0.00710677 0)
(1.00597 0.00388788 0)
(0.99889 0.0107952 0)
(1.00217 0.0107397 0)
(1.00864 0.0103726 0)
(1.00626 0.0129378 0)
(1.00668 0.0106369 0)
(1.00765 0.0111264 0)
(1.00979 0.0127462 0)
(1.01032 0.0119174 0)
(1.0113 0.0118017 0)
(1.01081 0.0121129 0)
(1.01195 0.0117959 0)
(0.999037 0.00408621 0)
(1.00201 0.00204906 0)
(1.00508 0.00511222 0)
(1.00299 0.00606692 0)
(1.00743 0.00834213 0)
(1.00869 0.00340172 0)
(1.00037 0.00405158 0)
(1.00505 0.00720959 0)
(1.00614 0.00396496 0)
(0.999225 0.0105927 0)
(1.00214 0.0108626 0)
(1.00877 0.00997102 0)
(1.00624 0.0127836 0)
(1.00646 0.0108843 0)
(1.00775 0.0107593 0)
(1.0098 0.0126531 0)
(1.01021 0.0120671 0)
(1.01127 0.0115394 0)
(1.01085 0.011821 0)
(1.01183 0.0118904 0)
(0.999105 0.00388043 0)
(1.00208 0.00229456 0)
(1.00491 0.00472582 0)
(1.0031 0.00628727 0)
(1.00719 0.00799034 0)
(1.00849 0.00358185 0)
(1.00051 0.00416243 0)
(1.005 0.00727631 0)
(1.00631 0.00406651 0)
(0.999564 0.0103679 0)
(1.0021 0.0109842 0)
(1.0089 0.00961994 0)
(1.00627 0.0125619 0)
(1.00623 0.0111666 0)
(1.00782 0.0104398 0)
(1.00986 0.0124458 0)
(1.01009 0.0122333 0)
(1.0112 0.0113883 0)
(1.01093 0.0114764 0)
(1.01177 0.0118245 0)
(0.99918 0.00366138 0)
(1.0021 0.00255804 0)
(1.00479 0.00433325 0)
(1.00316 0.00649163 0)
(1.00698 0.00766134 0)
(1.00827 0.0037346 0)
(1.00065 0.00430076 0)
(1.00494 0.007319 0)
(1.00648 0.00417884 0)
(0.999911 0.0101264 0)
(1.00203 0.0110948 0)
(1.009 0.00931689 0)
(1.00636 0.0122697 0)
(1.006 0.0114734 0)
(1.00787 0.0101997 0)
(1.00998 0.0121373 0)
(1.00998 0.0123791 0)
(1.01108 0.0113499 0)
(1.01101 0.0111495 0)
(1.0118 0.0116098 0)
(0.999259 0.00343114 0)
(1.00209 0.00283221 0)
(1.00472 0.0039412 0)
(1.00319 0.00667518 0)
(1.00678 0.00736727 0)
(1.00806 0.0038427 0)
(1.00079 0.00447105 0)
(1.00487 0.00734074 0)
(1.00662 0.00429444 0)
(1.00027 0.00988359 0)
(1.00195 0.0111923 0)
(1.00907 0.0090685 0)
(1.00651 0.0119122 0)
(1.00578 0.0117777 0)
(1.00786 0.0100581 0)
(1.01015 0.0117424 0)
(1.0099 0.0124673 0)
(1.01091 0.0114083 0)
(1.01105 0.0108914 0)
(1.01189 0.0113034 0)
(0.999338 0.00319116 0)
(1.00203 0.0031127 0)
(1.00468 0.00356328 0)
(1.0032 0.00682252 0)
(1.00658 0.00710996 0)
(1.00786 0.00390693 0)
(1.00092 0.0046605 0)
(1.0048 0.00735618 0)
(1.00675 0.00440724 0)
(1.00063 0.00964405 0)
(1.00186 0.0112807 0)
(1.0091 0.00888587 0)
(1.00671 0.0115022 0)
(1.00559 0.0120438 0)
(1.0078 0.0100242 0)
(1.01036 0.0112846 0)
(1.00987 0.012464 0)
(1.01071 0.01153 0)
(1.01104 0.0107118 0)
(1.01201 0.0109757 0)
(0.999417 0.0029427 0)
(1.00195 0.0033956 0)
(1.00466 0.00320568 0)
(1.0032 0.00692301 0)
(1.00637 0.00690573 0)
(1.00766 0.00391724 0)
(1.00105 0.00486168 0)
(1.00471 0.00737746 0)
(1.00687 0.00450536 0)
(1.00101 0.00939363 0)
(1.00177 0.0113539 0)
(1.0091 0.00876397 0)
(1.00696 0.0110524 0)
(1.00543 0.0122476 0)
(1.00767 0.010105 0)
(1.01058 0.0108022 0)
(1.00991 0.0123484 0)
(1.01048 0.0116948 0)
(1.01095 0.0106082 0)
(1.01212 0.0106841 0)
(0.999494 0.00269093 0)
(1.00184 0.00367235 0)
(1.00464 0.0028719 0)
(1.00321 0.00697091 0)
(1.00613 0.00676774 0)
(1.00748 0.00387442 0)
(1.00117 0.00506331 0)
(1.00461 0.00741238 0)
(1.00696 0.00459022 0)
(1.00139 0.00912935 0)
(1.00167 0.0114102 0)
(1.00905 0.00869847 0)
(1.00726 0.0105699 0)
(1.00532 0.0123668 0)
(1.00748 0.0102957 0)
(1.01078 0.0103488 0)
(1.01004 0.0120973 0)
(1.01026 0.0118803 0)
(1.0108 0.0105849 0)
(1.0122 0.0104223 0)
(0.999569 0.00243452 0)
(1.00171 0.00394035 0)
(1.00461 0.00258042 0)
(1.00322 0.00693999 0)
(1.00588 0.00670445 0)
(1.00731 0.00379902 0)
(1.00129 0.00524131 0)
(1.0045 0.00747602 0)
(1.00703 0.00466534 0)
(1.0018 0.00884738 0)
(1.00159 0.0114525 0)
(1.00894 0.00870059 0)
(1.00759 0.0100731 0)
(1.00529 0.0123772 0)
(1.00722 0.0105676 0)
(1.01094 0.00998198 0)
(1.01025 0.0116994 0)
(1.01006 0.0120331 0)
(1.01058 0.0106712 0)
(1.01223 0.010181 0)
(0.999642 0.00217973 0)
(1.00156 0.00418985 0)
(1.00457 0.00234344 0)
(1.00324 0.00681352 0)
(1.0056 0.00671593 0)
(1.00713 0.00370353 0)
(1.00142 0.00537942 0)
(1.00437 0.00757783 0)
(1.00708 0.00474475 0)
(1.00222 0.00854875 0)
(1.00153 0.0114651 0)
(1.00878 0.0087679 0)
(1.00793 0.00958244 0)
(1.00534 0.01227 0)
(1.00693 0.0108841 0)
(1.01102 0.00974934 0)
(1.01053 0.0111863 0)
(1.00995 0.0120721 0)
(1.01028 0.0108718 0)
(1.01219 0.0100019 0)
(0.999712 0.00192863 0)
(1.00141 0.00441073 0)
(1.00451 0.00217559 0)
(1.00327 0.00658787 0)
(1.00531 0.00678014 0)
(1.00694 0.00360807 0)
(1.00157 0.0054621 0)
(1.00423 0.0077192 0)
(1.0071 0.00484331 0)
(1.00267 0.0082293 0)
(1.0015 0.0114359 0)
(1.00857 0.00889964 0)
(1.00827 0.00912449 0)
(1.00549 0.0120445 0)
(1.00662 0.0111955 0)
(1.011 0.00966263 0)
(1.01086 0.0106292 0)
(1.00994 0.0119386 0)
(1.00995 0.0111188 0)
(1.01204 0.00995233 0)
(0.999778 0.00168339 0)
(1.00124 0.00460155 0)
(1.00442 0.0020707 0)
(1.00331 0.00627644 0)
(1.00501 0.0068831 0)
(1.00675 0.00354322 0)
(1.00174 0.00546569 0)
(1.00409 0.0078799 0)
(1.00708 0.0049729 0)
(1.00312 0.00788325 0)
(1.00151 0.011357 0)
(1.0083 0.00908875 0)
(1.00857 0.00872835 0)
(1.00573 0.0117125 0)
(1.00633 0.0114573 0)
(1.01086 0.00970908 0)
(1.01117 0.0101117 0)
(1.01006 0.0116388 0)
(1.00964 0.0113113 0)
(1.01177 0.0100562 0)
(0.999841 0.00145069 0)
(1.00107 0.00474954 0)
(1.0043 0.00203381 0)
(1.00337 0.00589929 0)
(1.00471 0.00698846 0)
(1.00653 0.00353229 0)
(1.00192 0.00539426 0)
(1.00394 0.00803741 0)
(1.00702 0.00514864 0)
(1.00358 0.00752497 0)
(1.00157 0.0112066 0)
(1.00799 0.0093108 0)
(1.00883 0.00841612 0)
(1.00605 0.0112958 0)
(1.00609 0.0116386 0)
(1.01062 0.00985911 0)
(1.01144 0.00968595 0)
(1.01029 0.0112146 0)
(1.00941 0.0113737 0)
(1.01141 0.0102486 0)
(0.999899 0.00122961 0)
(1.00089 0.00485287 0)
(1.00414 0.00206641 0)
(1.00343 0.00547316 0)
(1.00441 0.00707192 0)
(1.00628 0.00359072 0)
(1.00212 0.00525148 0)
(1.00382 0.00816536 0)
(1.00691 0.00538364 0)
(1.00403 0.00718191 0)
(1.0017 0.0109782 0)
(1.00765 0.0095393 0)
(1.00902 0.00820129 0)
(1.00644 0.0108133 0)
(1.00593 0.0117079 0)
(1.01029 0.0100718 0)
(1.01161 0.00937637 0)
(1.0106 0.0107213 0)
(1.0093 0.0112968 0)
(1.011 0.010431 0)
(0.999953 0.00102581 0)
(1.00072 0.00490675 0)
(1.00394 0.00215221 0)
(1.00349 0.00503187 0)
(1.00413 0.00711021 0)
(1.00601 0.00373398 0)
(1.00234 0.00505405 0)
(1.00371 0.00823723 0)
(1.00675 0.00568265 0)
(1.00445 0.00688507 0)
(1.0019 0.0106819 0)
(1.0073 0.00975047 0)
(1.00913 0.00809156 0)
(1.00688 0.0103038 0)
(1.00586 0.0116479 0)
(1.00991 0.0103031 0)
(1.01168 0.00919552 0)
(1.01095 0.0102058 0)
(1.0093 0.0110995 0)
(1.01062 0.0105351 0)
(1 0.000843432 0)
(1.00055 0.0049008 0)
(1.00371 0.00229108 0)
(1.00355 0.00459744 0)
(1.00387 0.00707402 0)
(1.0057 0.00397301 0)
(1.00254 0.00483829 0)
(1.00365 0.00823533 0)
(1.00656 0.00602613 0)
(1.00484 0.00665951 0)
(1.00215 0.0103224 0)
(1.00697 0.00991448 0)
(1.00916 0.00807833 0)
(1.00733 0.00981185 0)
(1.0059 0.0114569 0)
(1.00951 0.0104974 0)
(1.01162 0.00914127 0)
(1.0113 0.00971158 0)
(1.00943 0.0107937 0)
(1.0103 0.0105505 0)
(1.00005 0.000682741 0)
(1.00039 0.00483814 0)
(1.00345 0.00247018 0)
(1.00361 0.00418688 0)
(1.00364 0.00695688 0)
(1.00536 0.00428882 0)
(1.00274 0.0046434 0)
(1.00362 0.00813775 0)
(1.00634 0.00637348 0)
(1.00516 0.00652737 0)
(1.00245 0.00992279 0)
(1.00666 0.0100107 0)
(1.00911 0.00814144 0)
(1.00776 0.00936842 0)
(1.00603 0.0111517 0)
(1.00912 0.0106064 0)
(1.01143 0.00918608 0)
(1.01159 0.00929352 0)
(1.00966 0.010392 0)
(1.01006 0.0104868 0)
(1.00008 0.000547743 0)
(1.00024 0.00471405 0)
(1.00315 0.00267912 0)
(1.00365 0.00382289 0)
(1.00346 0.0067543 0)
(1.005 0.0046435 0)
(1.0029 0.00451343 0)
(1.00364 0.00794143 0)
(1.0061 0.00668464 0)
(1.00542 0.00649425 0)
(1.00279 0.00951108 0)
(1.0064 0.0100211 0)
(1.00898 0.00824671 0)
(1.00815 0.00899436 0)
(1.00625 0.0107706 0)
(1.00879 0.0106139 0)
(1.01116 0.00927605 0)
(1.01179 0.00899329 0)
(1.00996 0.0099318 0)
(1.00994 0.0103342 0)
(1.00012 0.000439585 0)
(1.00012 0.00452795 0)
(1.00283 0.00291207 0)
(1.00366 0.00351799 0)
(1.00332 0.00646587 0)
(1.00463 0.00500365 0)
(1.00302 0.00447665 0)
(1.0037 0.00767619 0)
(1.00588 0.00692697 0)
(1.00562 0.00654543 0)
(1.00315 0.00911801 0)
(1.00619 0.0099462 0)
(1.0088 0.00835944 0)
(1.00847 0.00869704 0)
(1.00653 0.0103475 0)
(1.00854 0.0105202 0)
(1.01082 0.00935231 0)
(1.01187 0.00880558 0)
(1.01028 0.00947765 0)
(1.00993 0.0100783 0)
(1.00014 0.000359822 0)
(1.00001 0.00428644 0)
(1.0025 0.00314517 0)
(1.00364 0.0032953 0)
(1.00322 0.00609375 0)
(1.00428 0.00533329 0)
(1.00309 0.00454442 0)
(1.00378 0.00738626 0)
(1.00569 0.00707896 0)
(1.00575 0.00664391 0)
(1.0035 0.00876493 0)
(1.00604 0.00979954 0)
(1.00858 0.00845451 0)
(1.00872 0.00846861 0)
(1.00684 0.00991 0)
(1.00836 0.0103412 0)
(1.01047 0.00939352 0)
(1.01184 0.0087024 0)
(1.01058 0.00909074 0)
(1.01004 0.0097338 0)
(1.00016 0.000305614 0)
(0.999935 0.00400449 0)
(1.00217 0.00335907 0)
(1.00359 0.00316435 0)
(1.00317 0.00566846 0)
(1.00395 0.00559573 0)
(1.00311 0.00470038 0)
(1.00387 0.00711809 0)
(1.00552 0.0071427 0)
(1.00584 0.00675396 0)
(1.00383 0.008457 0)
(1.00594 0.0095983 0)
(1.00834 0.00851757 0)
(1.00889 0.00830108 0)
(1.00716 0.00948534 0)
(1.00826 0.0100908 0)
(1.01012 0.00938884 0)
(1.01173 0.00864424 0)
(1.01082 0.00878799 0)
(1.01022 0.00934772 0)
(1.00017 0.000275999 0)
(0.999884 0.00369757 0)
(1.00185 0.00353855 0)
(1.00349 0.00311523 0)
(1.00315 0.00522663 0)
(1.00367 0.00577136 0)
(1.00308 0.00491157 0)
(1.00395 0.00689594 0)
(1.0054 0.00713207 0)
(1.00589 0.00685407 0)
(1.00414 0.00819882 0)
(1.00588 0.00936334 0)
(1.0081 0.00853643 0)
(1.00899 0.00817667 0)
(1.00748 0.00909789 0)
(1.00824 0.00978433 0)
(1.00981 0.00932323 0)
(1.01154 0.0085968 0)
(1.01097 0.00855502 0)
(1.01043 0.00897735 0)
(1.00018 0.000266773 0)
(0.99986 0.00338137 0)
(1.00156 0.00366323 0)
(1.00336 0.00315134 0)
(1.00316 0.00479423 0)
(1.00345 0.00583761 0)
(1.00303 0.00514709 0)
(1.00401 0.00673082 0)
(1.0053 0.00706681 0)
(1.00591 0.00692743 0)
(1.00441 0.00798644 0)
(1.00587 0.00911249 0)
(1.00787 0.00850953 0)
(1.00902 0.00807297 0)
(1.00776 0.00875685 0)
(1.00829 0.00945519 0)
(1.00955 0.00919721 0)
(1.01132 0.00853565 0)
(1.01104 0.00836268 0)
(1.01063 0.00864425 0)
(1.00018 0.000271609 0)
(0.99986 0.00307673 0)
(1.00129 0.00371642 0)
(1.00318 0.0032396 0)
(1.00318 0.00440572 0)
(1.00328 0.00579105 0)
(1.00296 0.00537766 0)
(1.00404 0.00664354 0)
(1.00522 0.00698136 0)
(1.00592 0.00696655 0)
(1.00465 0.00780399 0)
(1.00588 0.00885156 0)
(1.00766 0.00844254 0)
(1.009 0.00798338 0)
(1.00801 0.00845426 0)
(1.00837 0.00912466 0)
(1.00934 0.00903041 0)
(1.01107 0.00845563 0)
(1.01105 0.00819662 0)
(1.01079 0.00835539 0)
(1.00018 0.000286816 0)
(0.999878 0.00278848 0)
(1.00106 0.00371314 0)
(1.00298 0.00335205 0)
(1.00319 0.0040775 0)
(1.00318 0.00564463 0)
(1.00289 0.00555683 0)
(1.00404 0.00660378 0)
(1.00516 0.00689273 0)
(1.00593 0.00697896 0)
(1.00486 0.0076528 0)
(1.00591 0.00859961 0)
(1.00748 0.0083435 0)
(1.00894 0.00790728 0)
(1.00822 0.00819054 0)
(1.00849 0.00879082 0)
(1.00918 0.00883112 0)
(1.01082 0.00835918 0)
(1.01099 0.00804678 0)
(1.0109 0.00810217 0)
(1.00018 0.00030713 0)
(0.999914 0.00252448 0)
(1.00088 0.00364507 0)
(1.00276 0.0034781 0)
(1.00319 0.00384024 0)
(1.00314 0.00546209 0)
(1.00285 0.00567901 0)
(1.00403 0.00657861 0)
(1.0051 0.00679298 0)
(1.00593 0.00694813 0)
(1.00505 0.0074942 0)
(1.00595 0.00834093 0)
(1.00732 0.00819854 0)
(1.00885 0.00781267 0)
(1.00838 0.00795838 0)
(1.00862 0.00845744 0)
(1.00908 0.00858895 0)
(1.01058 0.00823977 0)
(1.01089 0.00790376 0)
(1.01096 0.00786881 0)
(1.00017 0.000327973 0)
(0.999959 0.00229633 0)
(1.00073 0.00351432 0)
(1.00253 0.00359562 0)
(1.00317 0.00368302 0)
(1.00313 0.00526017 0)
(1.00283 0.00572862 0)
(1.00399 0.00657008 0)
(1.00503 0.00671075 0)
(1.00592 0.00691036 0)
(1.00521 0.00735114 0)
(1.006 0.00810031 0)
(1.00718 0.00803647 0)
(1.00875 0.0076957 0)
(1.0085 0.00774522 0)
(1.00875 0.00814976 0)
(1.00903 0.00831876 0)
(1.01036 0.00808866 0)
(1.01074 0.00777172 0)
(1.01097 0.00765547 0)
(1.00016 0.0003517 0)
(1.00001 0.00209465 0)
(1.00063 0.00332019 0)
(1.00231 0.00369168 0)
(1.00313 0.0036179 0)
(1.00316 0.00507522 0)
(1.00285 0.0057025 0)
(1.00394 0.0065363 0)
(1.00497 0.00661267 0)
(1.0059 0.00683019 0)
(1.00534 0.0072006 0)
(1.00605 0.00786401 0)
(1.00706 0.00785934 0)
(1.00863 0.00756317 0)
(1.00858 0.00753226 0)
(1.00886 0.00786231 0)
(1.00901 0.00804612 0)
(1.01019 0.00789721 0)
(1.01058 0.00763667 0)
(1.01093 0.00746173 0)
(1.00015 0.000367359 0)
(1.00005 0.00195059 0)
(1.00057 0.00313575 0)
(1.00213 0.00375616 0)
(1.00308 0.00360218 0)
(1.0032 0.00490579 0)
(1.00289 0.00562119 0)
(1.0039 0.00647152 0)
(1.0049 0.00650867 0)
(1.00589 0.00672156 0)
(1.00546 0.00703675 0)
(1.00611 0.00763319 0)
(1.00697 0.007665 0)
(1.0085 0.00742239 0)
(1.00863 0.0073225 0)
(1.00898 0.0075695 0)
(1.00902 0.00777413 0)
(1.01005 0.00767984 0)
(1.01042 0.00747899 0)
(1.01085 0.0072882 0)
(1.00015 0.000381144 0)
(1.0001 0.00185009 0)
(1.00054 0.00298071 0)
(1.00195 0.0037893 0)
(1.003 0.00359628 0)
(1.00324 0.00474578 0)
(1.00295 0.00549247 0)
(1.00386 0.00637736 0)
(1.00483 0.00639455 0)
(1.00586 0.00659845 0)
(1.00556 0.00685721 0)
(1.00616 0.00740503 0)
(1.00688 0.00745941 0)
(1.00836 0.00726697 0)
(1.00862 0.00712916 0)
(1.00907 0.007274 0)
(1.00906 0.00748129 0)
(1.00994 0.00744717 0)
(1.01027 0.00728507 0)
(1.01073 0.0071094 0)
(1.00014 0.000394073 0)
(1.00014 0.00176647 0)
(1.00054 0.00282342 0)
(1.0018 0.00378521 0)
(1.00291 0.00359535 0)
(1.00326 0.00459932 0)
(1.00302 0.00531646 0)
(1.00382 0.00623454 0)
(1.00474 0.00625084 0)
(1.00582 0.00644539 0)
(1.00565 0.00665587 0)
(1.00622 0.00716416 0)
(1.00681 0.00724779 0)
(1.00822 0.00708983 0)
(1.00858 0.00694185 0)
(1.00913 0.00700493 0)
(1.0091 0.0071715 0)
(1.00985 0.0072011 0)
(1.01013 0.00708271 0)
(1.01061 0.00692077 0)
(1.00013 0.000398765 0)
(1.00017 0.00171942 0)
(1.00055 0.00266998 0)
(1.00167 0.00373031 0)
(1.0028 0.00357237 0)
(1.00327 0.00445778 0)
(1.0031 0.00513444 0)
(1.0038 0.00608973 0)
(1.00465 0.00613789 0)
(1.00577 0.0063165 0)
(1.00572 0.00647113 0)
(1.00627 0.0069333 0)
(1.00674 0.00704941 0)
(1.00808 0.00691948 0)
(1.00851 0.00675178 0)
(1.00914 0.00676418 0)
(1.00915 0.00687059 0)
(1.0098 0.00692058 0)
(1.01 0.00687075 0)
(1.01048 0.00670714 0)
(1.00012 0.000399974 0)
(1.0002 0.0016825 0)
(1.00057 0.00251542 0)
(1.00156 0.00365354 0)
(1.00269 0.00356582 0)
(1.00327 0.00436316 0)
(1.00318 0.00497393 0)
(1.00379 0.00592716 0)
(1.00457 0.00601356 0)
(1.0057 0.00617091 0)
(1.00576 0.00625661 0)
(1.00632 0.00666646 0)
(1.00668 0.00680599 0)
(1.00792 0.00672804 0)
(1.00841 0.00654343 0)
(1.00912 0.0065101 0)
(1.00916 0.00657961 0)
(1.00977 0.00660333 0)
(1.00988 0.0066203 0)
(1.01035 0.00647211 0)
(1.00012 0.000397529 0)
(1.00022 0.00164733 0)
(1.0006 0.00238297 0)
(1.00148 0.00356036 0)
(1.00258 0.0035421 0)
(1.00324 0.00426356 0)
(1.00325 0.00479057 0)
(1.00379 0.00572766 0)
(1.00448 0.00585906 0)
(1.00561 0.0060259 0)
(1.00578 0.00604647 0)
(1.00635 0.00640176 0)
(1.00664 0.00654758 0)
(1.00778 0.00652834 0)
(1.00827 0.00635942 0)
(1.00906 0.00626802 0)
(1.00914 0.00631169 0)
(1.00975 0.0062969 0)
(1.00981 0.00633349 0)
(1.01022 0.00622543 0)
(1.00011 0.000390211 0)
(1.00023 0.00162189 0)
(1.00063 0.00225861 0)
(1.00141 0.00344206 0)
(1.00247 0.00349843 0)
(1.0032 0.00417632 0)
(1.00332 0.00462286 0)
(1.0038 0.00552928 0)
(1.00441 0.00569996 0)
(1.0055 0.00587841 0)
(1.00576 0.00584695 0)
(1.00638 0.00613066 0)
(1.00661 0.00626916 0)
(1.00765 0.00628686 0)
(1.00812 0.00616615 0)
(1.00896 0.00604282 0)
(1.00909 0.00605604 0)
(1.00969 0.0060259 0)
(1.00973 0.00604606 0)
(1.01008 0.00598291 0)
(1.00011 0.000381328 0)
(1.00023 0.00159354 0)
(1.00065 0.00214673 0)
(1.00137 0.00331252 0)
(1.00237 0.00344685 0)
(1.00315 0.00409725 0)