/*--------------------------------*- C++ -*----------------------------------*\
| =========                 |                                                 |
| \\      /  F ield         | OpenFOAM: The Open Source CFD Toolbox           |
|  \\    /   O peration     | Version:  v1906                                 |
|   \\  /    A nd           | Web:      www.OpenFOAM.com                      |
|    \\/     M anipulation  |                                                 |
\*---------------------------------------------------------------------------*/
FoamFile
{
    version     2.0;
    format      ascii;
    class       volScalarField;
    location    "10.1";
    object      p;
}
// * * * * * * * * * * * * * * * * * * * * * * * * * * * * * * * * * * * * * //

dimensions      [0 2 -2 0 0 0 0];


internalField   nonuniform List<scalar> 
9600
(
2.92942e-10
0.00218919
0.00662054
0.00451851
0.00456833
0.00836599
0.0090246
0.0107337
0.0134745
0.0144605
0.0132636
0.0153794
0.0160453
0.0168694
0.0176283
0.0183404
0.0195636
0.0218166
0.0240999
0.0282696
3.20468e-06
0.00216641
0.00662707
0.0045562
0.00454437
0.00831773
0.00902006
0.0107351
0.0134795
0.0144652
0.0132595
0.0153703
0.0160489
0.0168807
0.0176279
0.018335
0.0195693
0.0217914
0.0241098
0.0278245
3.01224e-06
0.00214623
0.00665
0.00458321
0.00450092
0.00825415
0.00902399
0.0107452
0.0134878
0.0144607
0.013255
0.0153528
0.0160615
0.0168945
0.0176235
0.0183278
0.0195714
0.0217622
0.0240889
0.0273473
1.37549e-06
0.00215205
0.00668447
0.00460099
0.00446666
0.00820964
0.00903497
0.010767
0.0135006
0.0144419
0.0132546
0.0153269
0.0160761
0.0169059
0.017616
0.0183194
0.0195699
0.0217284
0.0240409
0.0268964
2.79464e-06
0.00218818
0.00672336
0.00461024
0.0044532
0.00818749
0.00904819
0.0108026
0.0135192
0.0144089
0.0132577
0.015291
0.0160901
0.0169158
0.0176072
0.0183078
0.0195684
0.021688
0.0239744
0.0264729
1.0855e-05
0.00225187
0.00675665
0.00461387
0.00446869
0.00818394
0.00906356
0.0108514
0.0135435
0.0143655
0.0132642
0.0152477
0.0161046
0.0169246
0.0175979
0.0182936
0.0195677
0.0216421
0.0238909
0.0260661
2.81649e-05
0.00233677
0.00677444
0.00461561
0.0045151
0.00819522
0.00908003
0.0109106
0.0135728
0.014317
0.0132739
0.0152012
0.0161197
0.0169323
0.0175889
0.0182774
0.0195667
0.0215921
0.0237882
0.0256719
5.58967e-05
0.0024347
0.00677169
0.0046198
0.00458796
0.00821624
0.00909695
0.0109754
0.0136062
0.0142681
0.0132868
0.0151548
0.016135
0.0169395
0.0175798
0.0182593
0.0195636
0.0215378
0.0236647
0.0252899
9.3596e-05
0.00253923
0.00675021
0.00463036
0.00467595
0.00824183
0.00911242
0.0110411
0.0136424
0.0142217
0.013303
0.0151102
0.0161505
0.0169465
0.0175699
0.0182396
0.0195561
0.0214787
0.0235212
0.0249198
0.000139739
0.00264731
0.00671641
0.00464967
0.00476981
0.00826858
0.00912349
0.0111033
0.0136798
0.0141787
0.0133225
0.0150685
0.0161662
0.0169531
0.0175586
0.0182187
0.0195422
0.0214143
0.02336
0.0245594
0.000192614
0.00275826
0.00667727
0.00467794
0.00486889
0.0082956
0.00912778
0.011159
0.0137167
0.0141389
0.0133448
0.0150306
0.0161816
0.0169594
0.0175455
0.0181968
0.0195206
0.0213445
0.0231833
0.0242065
0.000250955
0.00287219
0.00663777
0.00471354
0.00497439
0.00832347
0.00912466
0.0112064
0.0137517
0.0141019
0.0133686
0.0149963
0.0161966
0.0169657
0.0175301
0.0181739
0.0194909
0.0212684
0.0229941
0.0238599
0.000314107
0.00298884
0.00660035
0.00475433
0.00508742
0.00835256
0.00911507
0.0112452
0.0137844
0.0140669
0.0133925
0.0149657
0.0162109
0.0169725
0.0175122
0.0181504
0.0194532
0.0211848
0.0227955
0.0235194
0.000381846
0.00310746
0.00656571
0.00479846
0.00520801
0.00838276
0.00910106
0.0112762
0.013815
0.0140335
0.0134151
0.0149384
0.0162239
0.0169802
0.0174918
0.0181257
0.0194085
0.0210928
0.0225907
0.0231853
0.000454155
0.00322717
0.00653382
0.00484466
0.00533513
0.00841382
0.00908489
0.0112999
0.0138439
0.0140016
0.0134352
0.014914
0.0162354
0.0169893
0.0174687
0.0180989
0.0193578
0.0209916
0.0223814
0.0228576
0.000531065
0.00334727
0.00650458
0.00489224
0.00546728
0.00844548
0.00906849
0.0113192
0.0138717
0.0139715
0.013452
0.0148923
0.016245
0.0169994
0.0174429
0.0180689
0.0193021
0.0208805
0.0221682
0.0225369
0.000612605
0.00346735
0.00647812
0.00494097
0.00560299
0.00847752
0.00905336
0.0113345
0.0138985
0.0139435
0.013465
0.0148731
0.0162526
0.0170101
0.0174148
0.0180342
0.0192417
0.0207595
0.0219513
0.0222238
0.000698804
0.00358718
0.00645475
0.00499096
0.00574094
0.00850988
0.00904058
0.0113468
0.0139244
0.0139183
0.0134739
0.0148563
0.0162582
0.0170205
0.0173849
0.0179938
0.0191764
0.0206292
0.0217307
0.0219188
0.000789716
0.00370661
0.00643492
0.0050425
0.00588016
0.00854258
0.00903076
0.0113568
0.0139495
0.0138961
0.0134782
0.0148417
0.0162622
0.0170296
0.0173537
0.0179471
0.0191057
0.020491
0.0215064
0.0216216
0.000885439
0.00382551
0.0064191
0.00509596
0.00601993
0.00857574
0.00902431
0.0113653
0.0139733
0.0138774
0.0134773
0.014829
0.016265
0.0170364
0.0173212
0.0178935
0.0190292
0.0203463
0.0212783
0.0213324
0.000986106
0.00394373
0.00640774
0.00515168
0.00615965
0.00860959
0.00902147
0.0113727
0.0139959
0.0138624
0.0134655
0.0148177
0.0162674
0.0170404
0.0172873
0.0178331
0.0189467
0.020196
0.0210462
0.0210512
0.00109188
0.00406109
0.00640126
0.00521006
0.0062988
0.00864438
0.00902233
0.0113798
0.0140169
0.0138513
0.0134502
0.0148071
0.0162698
0.0170411
0.0172516
0.0177655
0.0188579
0.020042
0.0208097
0.020777
0.00120296
0.00417739
0.00640003
0.00527152
0.00643686
0.00868035
0.00902697
0.0113887
0.0140361
0.0138442
0.0134361
0.0147963
0.0162725
0.0170384
0.0172139
0.0176908
0.0187617
0.019886
0.0205697
0.0205066
0.00131954
0.00429243
0.00640432
0.00533647
0.00657339
0.00871773
0.00903537
0.011396
0.0140534
0.0138409
0.013421
0.014785
0.0162754
0.0170318
0.0171742
0.0176096
0.0186571
0.0197293
0.0203286
0.0202356
0.00144185
0.00440607
0.00641429
0.00540526
0.00670804
0.00875664
0.0090475
0.0114031
0.0140688
0.0138411
0.0134039
0.0147727
0.0162786
0.0170211
0.0171319
0.0175226
0.0185432
0.0195723
0.0200907
0.0199611
0.0015701
0.00451818
0.00643
0.00547827
0.00684049
0.00879722
0.00906332
0.0114104
0.0140825
0.0138446
0.0133846
0.0147587
0.0162823
0.0170062
0.0170863
0.0174302
0.0184196
0.0194144
0.0198609
0.0196845
0.00170451
0.0046287
0.00645134
0.00555592
0.00697051
0.0088396
0.00908289
0.0114176
0.0140946
0.0138516
0.0133634
0.0147425
0.0162869
0.0169869
0.0170364
0.0173341
0.0182859
0.0192525
0.0196418
0.0194132
0.00184526
0.00473771
0.00647813
0.00563852
0.00709797
0.0088839
0.00910647
0.0114244
0.014105
0.0138624
0.0133398
0.0147229
0.0162932
0.0169637
0.0169806
0.0172358
0.0181443
0.0190824
0.0194308
0.0191563
0.00199244
0.00484542
0.00651022
0.0057263
0.00722284
0.00893014
0.00913426
0.0114307
0.0141135
0.013877
0.0133143
0.0146987
0.016301
0.016938
0.0169174
0.0171354
0.0179987
0.0189036
0.0192212
0.0189173
0.00214611
0.00495209
0.00654744
0.00581943
0.00734523
0.00897824
0.00916644
0.0114368
0.0141197
0.0138952
0.0132877
0.0146686
0.0163094
0.0169117
0.0168465
0.0170311
0.0178516
0.0187201
0.0190082
0.018691
0.00230623
0.00505813
0.00658964
0.00591801
0.00746524
0.00902804
0.0092034
0.0114429
0.0141235
0.0139169
0.0132609
0.0146316
0.0163166
0.0168858
0.0167683
0.0169218
0.0177027
0.018536
0.0187936
0.0184697
0.00247267
0.00516403
0.00663673
0.00602209
0.00758303
0.0090792
0.00924536
0.0114493
0.0141244
0.0139418
0.0132349
0.0145872
0.0163211
0.0168609
0.0166836
0.0168076
0.0175519
0.0183513
0.0185815
0.0182504
0.00264531
0.00527034
0.0066886
0.00613147
0.00769918
0.00913144
0.00929201
0.0114566
0.0141223
0.0139697
0.0132102
0.0145347
0.0163211
0.0168376
0.0165926
0.0166887
0.017402
0.0181648
0.0183719
0.0180354
0.00282393
0.0053777
0.00674526
0.00624561
0.00781442
0.00918482
0.00934278
0.0114654
0.0141169
0.0139998
0.0131881
0.0144741
0.0163153
0.0168167
0.0164953
0.0165637
0.0172572
0.0179786
0.0181607
0.0178258
0.00300838
0.00548663
0.00680698
0.00636406
0.00792913
0.00923946
0.00939713
0.011476
0.0141087
0.0140315
0.0131689
0.0144049
0.0163018
0.0167988
0.0163927
0.0164291
0.017119
0.0178
0.0179455
0.0176178
0.0031985
0.00559746
0.00687433
0.00648633
0.00804332
0.00929566
0.00945446
0.0114886
0.0140979
0.0140642
0.0131534
0.0143274
0.016279
0.0167845
0.0162867
0.0162818
0.0169842
0.0176371
0.0177302
0.0174047
0.00339406
0.00571038
0.00694816
0.00661208
0.00815675
0.00935398
0.00951385
0.0115032
0.0140854
0.0140976
0.0131414
0.0142417
0.0162455
0.0167744
0.0161808
0.01612
0.0168472
0.0174933
0.0175241
0.0171826
0.00359501
0.00582535
0.00702934
0.00674143
0.00826881
0.00941326
0.00957479
0.0115191
0.014072
0.0141316
0.0131333
0.0141476
0.0161988
0.0167688
0.0160796
0.0159435
0.0167017
0.0173681
0.0173377
0.0169536
0.00380146
0.00594208
0.00711866
0.00687477
0.00837848
0.00947926
0.0096375
0.0115352
0.0140579
0.0141664
0.0131296
0.0140447
0.0161361
0.0167678
0.015989
0.0157529
0.01654
0.0172576
0.0171812
0.0167258
0.00401354
0.00606005
0.00721685
0.00701295
0.00848456
0.00955049
0.00970152
0.0115499
0.0140421
0.0142027
0.0131318
0.0139333
0.0160532
0.0167695
0.0159162
0.0155524
0.0163536
0.0171535
0.017063
0.0165142
0.00423142
0.00617867
0.00732383
0.00715759
0.00858613
0.00962681
0.00976983
0.0115622
0.0140236
0.0142404
0.0131324
0.0138147
0.0159461
0.0167687
0.0158676
0.0153524
0.0161362
0.0170413
0.0169856
0.0163404
0.00445538
0.0062977
0.00743883
0.00731055
0.00868289
0.00970717
0.0098441
0.0115723
0.0140009
0.0142791
0.0131436
0.0136928
0.0158116
0.0167569
0.0158462
0.015166
0.0158891
0.0169035
0.0169379
0.016224
0.00468561
0.00641729
0.00756055
0.00747377
0.00877517
0.0097895
0.00992589
0.0115806
0.013972
0.0143173
0.0131723
0.0135724
0.015649
0.016725
0.0158493
0.015006
0.0156224
0.0167287
0.0168994
0.0161714
0.00492233
0.00653764
0.00768699
0.0076493
0.00886433
0.00987042
0.0100169
0.0115888
0.0139347
0.0143525
0.0132162
0.0134589
0.0154618
0.0166648
0.0158699
0.014882
0.015348
0.0165154
0.0168503
0.01617
0.00516568
0.00665947
0.00781552
0.0078384
0.00895334
0.00994622
0.0101169
0.0116
0.0138877
0.0143817
0.0132724
0.0133583
0.0152562
0.0165707
0.0158986
0.0148001
0.0150785
0.0162654
0.0167782
0.0161982
0.00541553
0.0067842
0.00794316
0.00804062
0.0090469
0.0100145
0.0102238
0.0116172
0.0138313
0.0144011
0.0133381
0.0132768
0.0150392
0.0164415
0.0159241
0.0147612
0.0148298
0.0159826
0.0166751
0.016238
0.00567152
0.00691393
0.00806746
0.00825367
0.00915007
0.0100743
0.0103338
0.0116429
0.0137671
0.0144154
0.0134113
0.0132194
0.0148209
0.016282
0.0159349
0.0147574
0.0146186
0.0156767
0.0165315
0.0162762
0.00593318
0.00705062
0.00818674
0.00847372
0.00926783
0.0101261
0.0104418
0.011679
0.0136993
0.0144087
0.0134855
0.0131854
0.0146116
0.0160996
0.0159245
0.0147762
0.0144536
0.0153667
0.0163402
0.0162991
0.00619993
0.00719607
0.00829998
0.00869571
0.0094044
0.0101728
0.0105407
0.0117257
0.013635
0.0143812
0.0135504
0.0131708
0.0144182
0.0159024
0.015894
0.0148069
0.0143326
0.015071
0.0161031
0.01629
0.00647077
0.00735218
0.0084077
0.00891375
0.00956169
0.01022
0.010624
0.0117803
0.0135805
0.0143022
0.0136021
0.0131718
0.0142427
0.015697
0.0158457
0.0148451
0.0142495
0.014801
0.0158313
0.0162339
0.00674446
0.00752055
0.00851153
0.00912213
0.00973934
0.0102755
0.010689
0.0118349
0.0135416
0.014262
0.013643
0.0131806
0.0140857
0.0154874
0.0157787
0.0148879
0.0142017
0.0145649
0.0155411
0.0161237
0.00701955
0.00770248
0.00861479
0.00931564
0.00993351
0.0103482
0.0107365
0.0118785
0.0135178
0.0142315
0.0136745
0.013191
0.0139463
0.0152775
0.0156927
0.0149288
0.0141862
0.0143698
0.0152503
0.0159613
0.00729456
0.00789826
0.0087221
0.00949057
0.0101373
0.010445
0.0107725
0.0119018
0.0135022
0.0142123
0.0137046
0.0132031
0.0138199
0.0150699
0.0155899
0.0149628
0.0141959
0.0142192
0.0149765
0.0157581
0.00756858
0.00810804
0.00883763
0.00964455
0.0103411
0.0105699
0.0108078
0.0119001
0.0134831
0.0142082
0.0137463
0.0132213
0.0137042
0.0148626
0.0154705
0.0149885
0.014225
0.0141107
0.014733
0.0155332
0.00784018
0.00833044
0.00896772
0.009779
0.010534
0.0107215
0.0108548
0.0118738
0.013448
0.0142353
0.0138088
0.0132521
0.0136039
0.0146556
0.0153318
0.0150034
0.0142712
0.0140405
0.0145256
0.0153057
0.00810889
0.00856224
0.00911264
0.00989969
0.010712
0.0108964
0.0109229
0.0118267
0.0133848
0.0142599
0.0138936
0.0133021
0.0135224
0.0144559
0.0151731
0.0149994
0.0143303
0.0140071
0.014355
0.0150887
0.00837606
0.00879676
0.00927328
0.0100069
0.0108656
0.0110852
0.0110266
0.0117773
0.0132894
0.0142698
0.0139998
0.0133782
0.0134636
0.0142702
0.015
0.0149694
0.0143929
0.0140089
0.0142226
0.0148885
0.00864283
0.00905525
0.00945385
0.0100943
0.0109763
0.0112719
0.0111734
0.0117551
0.0131686
0.0142477
0.0141158
0.013484
0.0134338
0.0141019
0.0148197
0.014913
0.0144479
0.0140407
0.0141321
0.0147091
0.00890678
0.00929585
0.00964923
0.0101919
0.0110664
0.0114489
0.0113513
0.0117669
0.0130358
0.0141841
0.0142171
0.0136163
0.0134417
0.0139574
0.0146368
0.0148341
0.0144874
0.0140926
0.0140866
0.0145589
0.00916714
0.00954145
0.00985575
0.0103032
0.0111397
0.0116039
0.0115426
0.0118162
0.0129113
0.0140866
0.0142849
0.0137651
0.0134902
0.0138477
0.0144586
0.0147342
0.0145074
0.0141521
0.0140831
0.0144503
0.00942333
0.00978072
0.0100728
0.0104303
0.0112009
0.0117321
0.0117369
0.0119049
0.0128107
0.0138928
0.014308
0.0139128
0.0135733
0.0137827
0.0142977
0.0146166
0.0145058
0.0142085
0.0141093
0.0143889
0.00967369
0.0100105
0.0102946
0.0105799
0.011264
0.0118349
0.0119196
0.0120243
0.0127512
0.013769
0.014294
0.0140451
0.0136841
0.0137609
0.014168
0.0144923
0.0144813
0.014256
0.0141497
0.0143672
0.00991937
0.010228
0.0105171
0.0107472
0.0113335
0.0119174
0.0120867
0.0121641
0.0127355
0.0136531
0.0142469
0.0141492
0.0138112
0.013777
0.0140743
0.0143756
0.0144368
0.0142901
0.0141938
0.0143716
0.0101647
0.0104557
0.0107272
0.0109128
0.0114094
0.0119886
0.0122365
0.0123155
0.0127607
0.0135593
0.0141769
0.0142176
0.0139427
0.0138313
0.0140195
0.0142785
0.014383
0.0143106
0.0142391
0.0143919
0.0104058
0.0106663
0.0109278
0.0110869
0.0115016
0.0120541
0.0123659
0.0124677
0.0128194
0.0134963
0.0141015
0.0142535
0.0140639
0.0139181
0.0140082
0.0142073
0.0143277
0.0143176
0.0142846
0.0144242
0.0106382
0.0108736
0.0111233
0.0112668
0.0116069
0.0121141
0.0124734
0.0126134
0.0129036
0.0134683
0.014036
0.0142676
0.0141654
0.0140204
0.0140356
0.0141683
0.0142819
0.0143148
0.0143263
0.0144669
0.0108623
0.0110706
0.0113105
0.0114453
0.0117235
0.0121781
0.0125651
0.0127482
0.0130045
0.0134743
0.0139907
0.0142711
0.0142511
0.0141249
0.0140921
0.0141678
0.0142589
0.0143123
0.0143622
0.0145168
0.0110798
0.0112675
0.0114843
0.0116113
0.0118462
0.0122494
0.0126463
0.0128707
0.0131146
0.01351
0.0139706
0.0142756
0.0143266
0.0142329
0.0141725
0.0142038
0.0142672
0.0143211
0.0143948
0.0145678
0.0112848
0.0114546
0.0116516
0.0117724
0.0119746
0.012327
0.0127181
0.0129788
0.0132272
0.0135689
0.0139792
0.0142903
0.0143972
0.0143482
0.0142777
0.0142724
0.0143102
0.0143532
0.0144336
0.0146196
0.0114748
0.0116236
0.0118102
0.0119295
0.0121061
0.0124121
0.0127864
0.0130748
0.0133368
0.0136417
0.0140162
0.0143256
0.0144718
0.0144713
0.0144114
0.0143777
0.0143902
0.0144184
0.0144913
0.0146793
0.0116552
0.0117959
0.0119545
0.0120611
0.0122274
0.0125022
0.0128567
0.0131632
0.0134438
0.013716
0.0140801
0.0143878
0.0145609
0.0146051
0.0145757
0.014532
0.0145204
0.0145286
0.0145795
0.0147525
0.0118173
0.0119478
0.0120874
0.0121843
0.0123438
0.012597
0.0129299
0.0132423
0.0135586
0.0138889
0.0141811
0.0144805
0.0146751
0.0147591
0.0147736
0.0147534
0.0147391
0.0147392
0.014766
0.0148971
0.0119585
0.012083
0.012214
0.0122964
0.0124421
0.0126796
0.0130108
0.0133171
0.0135853
0.0138684
0.0141886
0.0145048
0.014745
0.0148725
0.0149349
0.0149593
0.0149854
0.0150422
0.0151286
0.0152682
0.0120817
0.012211
0.0123319
0.012401
0.0125318
0.0127475
0.0130828
0.0134449
0.0138095
0.0141388
0.0144623
0.0147894
0.0150648
0.0152367
0.0153199
0.0153216
0.0152587
0.0152009
0.0152096
0.0152962
0.0121724
0.0122732
0.0123871
0.0124787
0.0126407
0.0128337
0.0129992
0.0132281
0.0134737
0.0138038
0.014215
0.014708
0.0151307
0.0154104
0.0156339
0.0159309
0.016282
0.0166571
0.0169962
0.0172649
0.0122935
0.0124095
0.0124826
0.01251
0.01266
0.012915
0.0133123
0.0137048
0.0140808
0.0143599
0.0146995
0.0150045
0.015306
0.0155597
0.0157749
0.0159427
0.0161462
0.0163835
0.0166606
0.016904
0.0121948
0.0122959
0.0125228
0.0127247
0.0129521
0.0131803
0.0134451
0.0136658
0.0139128
0.0141912
0.0145064
0.0148295
0.0151269
0.0154993
0.0159084
0.0163428
0.0167708
0.0171889
0.0175607
0.017813
0.0124295
0.012581
0.0127276
0.012817
0.0129975
0.0132411
0.0135437
0.0138612
0.0142142
0.0145727
0.0149214
0.015208
0.0154572
0.0156228
0.0157087
0.0157172
0.0156974
0.0156315
0.0155302
0.0154568
0.0122741
0.0124027
0.012675
0.0129283
0.0131796
0.0134105
0.0136699
0.0139081
0.0141525
0.0144159
0.0146919
0.0150245
0.0153591
0.0156902
0.0160815
0.0164939
0.0168909
0.017263
0.0175756
0.0177596
0.0124196
0.0125789
0.0128548
0.0130701
0.0132956
0.0135077
0.0137602
0.0140263
0.0143168
0.0146542
0.0149961
0.0152899
0.0155492
0.0157742
0.0159699
0.0161597
0.0163748
0.0166137
0.0168142
0.0169066
0.03146
0.0256633
0.0176863
0.0120286
0.0107579
0.0119828
0.0133448
0.0142132
0.0147818
0.0152592
0.0156944
0.0161187
0.0165183
0.0168253
0.0170883
0.0174035
0.0177175
0.0179424
0.0181431
0.0184629
0.0189081
0.0193433
0.0196922
0.0200094
0.0203807
0.0208259
0.0212645
0.0216283
0.0219826
0.0224104
0.0228356
0.0231943
0.0235568
0.0239727
0.0244356
0.0249469
0.0254987
0.0260345
0.0265256
0.0270056
0.0274997
0.0279963
0.0284804
0.0289331
0.0293682
0.0298373
0.0303548
0.03088
0.0313807
0.0319158
0.0325054
0.0330943
0.0336541
0.0342647
0.0349407
0.0356157
0.036263
0.0368724
0.0374263
0.0379817
0.0386309
0.0393757
0.040158
0.0409033
0.041644
0.0423917
0.0431195
0.0438384
0.0446177
0.045396
0.0461882
0.0470192
0.0478747
0.048716
0.0495744
0.0504672
0.0513815
0.052319
0.0532632
0.0542469
0.0552204
0.0562577
0.0573052
0.0583627
0.0594297
0.0605262
0.0616738
0.0628255
0.0639887
0.0651455
0.0662985
0.0675394
0.068761
0.0700243
0.0712833
0.0725438
0.0737884
0.0749722
0.0761002
0.0770647
0.0307113
0.0255181
0.0177719
0.0121744
0.0108472
0.0120258
0.0133714
0.0142318
0.0147954
0.0152698
0.0157029
0.0161258
0.0165246
0.0168309
0.0170931
0.0174078
0.0177216
0.017946
0.0181461
0.0184654
0.0189104
0.0193455
0.0196943
0.0200111
0.0203822
0.0208273
0.0212658
0.0216295
0.0219836
0.0224114
0.0228366
0.0231953
0.0235577
0.0239735
0.0244364
0.0249477
0.0254995
0.0260353
0.0265264
0.0270063
0.0275004
0.027997
0.0284811
0.0289338
0.0293688
0.0298378
0.0303554
0.0308805
0.0313813
0.0319162
0.0325058
0.0330948
0.0336546
0.034265
0.0349411
0.0356161
0.0362633
0.0368728
0.0374267
0.037982
0.0386312
0.039376
0.0401583
0.0409036
0.0416443
0.0423919
0.0431197
0.0438386
0.0446179
0.0453962
0.0461884
0.0470194
0.0478749
0.0487162
0.0495746
0.0504674
0.0513816
0.0523192
0.0532634
0.054247
0.0552206
0.0562578
0.0573053
0.0583628
0.0594298
0.0605263
0.0616739
0.0628256
0.0639888
0.0651456
0.0662986
0.0675395
0.0687611
0.0700244
0.0712834
0.0725439
0.0737885
0.0749723
0.0761002
0.0770647
0.0300197
0.0253862
0.0179473
0.0124401
0.0109989
0.0120808
0.0133971
0.0142516
0.0148122
0.0152836
0.0157137
0.0161343
0.0165316
0.0168368
0.017098
0.0174122
0.0177255
0.0179495
0.018149
0.0184679
0.0189127
0.0193477
0.0196963
0.0200129
0.0203837
0.0208286
0.0212671
0.0216307
0.0219846
0.0224124
0.0228376
0.0231962
0.0235584
0.0239742
0.024437
0.0249483
0.0255002
0.026036
0.026527
0.0270069
0.027501
0.0279976
0.0284817
0.0289344
0.0293693
0.0298383
0.0303559
0.030881
0.0313817
0.0319166
0.0325062
0.0330952
0.0336549
0.0342653
0.0349414
0.0356165
0.0362637
0.0368732
0.037427
0.0379822
0.0386314
0.0393762
0.0401586
0.0409038
0.0416445
0.0423921
0.0431199
0.0438388
0.044618
0.0453964
0.0461886
0.0470196
0.047875
0.0487163
0.0495747
0.0504675
0.0513817
0.0523193
0.0532635
0.0542472
0.0552207
0.0562579
0.0573054
0.0583629
0.0594299
0.0605264
0.061674
0.0628257
0.0639889
0.0651457
0.0662986
0.0675396
0.0687612
0.0700245
0.0712834
0.072544
0.0737886
0.0749724
0.0761003
0.0770648
0.029369
0.0252501
0.0181663
0.012774
0.0112068
0.0121587
0.0134336
0.0142807
0.0148381
0.0153047
0.0157294
0.0161455
0.0165403
0.0168445
0.017105
0.0174181
0.0177305
0.0179541
0.0181534
0.0184716
0.0189156
0.0193502
0.0196987
0.0200153
0.020386
0.0208305
0.0212687
0.0216321
0.0219858
0.0224135
0.0228387
0.023197
0.0235591
0.0239748
0.0244376
0.024949
0.0255009
0.0260368
0.0265277
0.0270075
0.0275017
0.0279982
0.0284823
0.028935
0.0293699
0.0298388
0.0303564
0.0308815
0.0313822
0.0319171
0.0325067
0.0330957
0.0336553
0.0342657
0.0349418
0.0356168
0.0362641
0.0368736
0.0374274
0.0379825
0.0386316
0.0393764
0.0401588
0.0409041
0.0416447
0.0423924
0.0431202
0.043839
0.0446182
0.0453965
0.0461887
0.0470197
0.0478752
0.0487165
0.0495749
0.0504676
0.0513819
0.0523195
0.0532636
0.0542473
0.0552208
0.056258
0.0573056
0.058363
0.05943
0.0605265
0.0616741
0.0628258
0.063989
0.0651458
0.0662987
0.0675397
0.0687613
0.0700246
0.0712835
0.0725441
0.0737887
0.0749725
0.0761005
0.077065
0.0287185
0.0250864
0.018393
0.0131307
0.0114394
0.0122486
0.0134756
0.0143172
0.0148728
0.015334
0.0157515
0.0161608
0.0165513
0.0168544
0.0171148
0.0174266
0.0177374
0.0179608
0.0181604
0.0184777
0.0189198
0.019353
0.0197018
0.0200191
0.0203897
0.0208334
0.0212709
0.0216341
0.0219878
0.0224153
0.0228401
0.0231981
0.0235599
0.0239755
0.0244383
0.0249497
0.0255017
0.0260375
0.0265284
0.0270083
0.0275025
0.027999
0.0284829
0.0289356
0.0293705
0.0298394
0.0303569
0.0308821
0.0313827
0.0319175
0.0325072
0.0330962
0.0336557
0.034266
0.0349422
0.0356172
0.0362645
0.036874
0.0374277
0.0379827
0.0386317
0.0393767
0.0401592
0.0409044
0.041645
0.0423927
0.0431204
0.0438392
0.0446184
0.0453967
0.0461889
0.0470199
0.0478754
0.0487167
0.049575
0.0504678
0.051382
0.0523196
0.0532637
0.0542474
0.0552209
0.0562581
0.0573057
0.0583632
0.0594301
0.0605266
0.0616742
0.0628259
0.0639891
0.0651459
0.0662988
0.0675398
0.0687614
0.0700247
0.0712836
0.0725442
0.0737888
0.0749726
0.0761007
0.0770652
0.0280644
0.024893
0.0186144
0.0134944
0.0116855
0.0123444
0.013518
0.014356
0.0149129
0.0153692
0.0157784
0.0161792
0.0165639
0.0168659
0.0171269
0.0174374
0.0177463
0.01797
0.0181709
0.018487
0.0189255
0.0193562
0.0197054
0.0200244
0.0203951
0.0208374
0.0212738
0.0216371
0.0219909
0.022418
0.0228421
0.0231996
0.023561
0.0239763
0.024439
0.0249505
0.0255024
0.026038
0.0265289
0.027009
0.0275034
0.0279998
0.0284836
0.0289362
0.0293712
0.0298401
0.0303575
0.0308826
0.0313832
0.0319181
0.0325077
0.0330967
0.0336562
0.0342665
0.0349426
0.0356177
0.0362651
0.0368746
0.0374281
0.0379829
0.0386319
0.039377
0.0401596
0.0409047
0.0416453
0.042393
0.0431207
0.0438394
0.0446186
0.045397
0.0461891
0.0470201
0.0478756
0.0487168
0.0495752
0.0504679
0.0513822
0.0523197
0.0532639
0.0542476
0.0552211
0.0562582
0.0573058
0.0583633
0.0594303
0.0605267
0.0616743
0.0628261
0.0639892
0.065146
0.0662989
0.0675399
0.0687615
0.0700248
0.0712838
0.0725443
0.073789
0.0749728
0.0761011
0.0770655
0.0274161
0.0246736
0.0188241
0.0138593
0.0119434
0.0124468
0.0135605
0.0143958
0.0149564
0.0154085
0.0158086
0.0161996
0.0165776
0.0168783
0.0171402
0.0174495
0.0177567
0.0179814
0.0181844
0.0184993
0.0189331
0.0193601
0.0197096
0.0200309
0.0204021
0.0208425
0.0212773
0.0216409
0.0219952
0.0224218
0.0228451
0.023202
0.0235628
0.0239775
0.02444
0.0249514
0.025503
0.0260383
0.0265293
0.0270098
0.0275044
0.0280007
0.0284842
0.028937
0.0293721
0.029841
0.0303582
0.0308832
0.0313839
0.0319188
0.0325083
0.0330972
0.0336568
0.034267
0.0349431
0.0356182
0.0362657
0.0368752
0.0374286
0.0379831
0.0386322
0.0393774
0.04016
0.0409051
0.0416457
0.0423934
0.0431211
0.0438397
0.0446189
0.0453973
0.0461893
0.0470203
0.0478758
0.0487171
0.0495753
0.0504681
0.0513823
0.0523199
0.053264
0.0542477
0.0552212
0.0562584
0.057306
0.0583634
0.0594304
0.0605268
0.0616745
0.0628262
0.0639893
0.0651462
0.066299
0.06754
0.0687616
0.0700249
0.0712839
0.0725444
0.0737892
0.0749731
0.0761016
0.0770659
0.0267835
0.0244296
0.0190159
0.0142224
0.0122143
0.0125587
0.0136043
0.0144358
0.0150025
0.0154513
0.0158415
0.0162216
0.0165922
0.0168913
0.0171542
0.0174624
0.0177679
0.0179942
0.0182002
0.018514
0.0189423
0.0193648
0.0197145
0.0200384
0.0204102
0.0208482
0.0212813
0.0216454
0.0220006
0.0224266
0.0228489
0.0232054
0.0235656
0.0239794
0.0244414
0.0249526
0.0255037
0.0260384
0.0265293
0.0270103
0.0275054
0.0280016
0.0284848
0.0289378
0.0293733
0.0298422
0.030359
0.0308839
0.0313848
0.0319197
0.0325089
0.0330977
0.0336574
0.0342676
0.0349436
0.0356188
0.0362664
0.036876
0.0374291
0.0379834
0.0386324
0.0393778
0.0401605
0.0409056
0.0416461
0.0423938
0.0431215
0.04384
0.0446193
0.0453976
0.0461896
0.0470206
0.0478761
0.0487173
0.0495756
0.0504683
0.0513825
0.0523201
0.0532642
0.0542479
0.0552213
0.0562585
0.0573062
0.0583636
0.0594305
0.0605269
0.0616746
0.0628264
0.0639895
0.0651463
0.0662991
0.0675401
0.0687618
0.070025
0.0712841
0.0725446
0.0737895
0.0749736
0.0761023
0.0770664
0.0261726
0.0241624
0.0191863
0.014582
0.0124989
0.0126821
0.0136498
0.0144754
0.0150505
0.015497
0.015877
0.0162454
0.0166077
0.0169049
0.0171688
0.0174759
0.0177795
0.0180077
0.0182171
0.0185302
0.0189529
0.0193704
0.01972
0.0200467
0.020419
0.0208545
0.0212855
0.0216503
0.0220065
0.0224319
0.0228533
0.0232096
0.0235694
0.0239821
0.0244435
0.0249543
0.0255046
0.0260383
0.026529
0.0270106
0.0275062
0.0280023
0.0284853
0.0289386
0.0293749
0.0298439
0.0303601
0.0308848
0.031386
0.0319209
0.0325097
0.0330983
0.0336581
0.0342683
0.034944
0.0356192
0.0362672
0.0368769
0.0374298
0.0379838
0.0386328
0.0393782
0.040161
0.0409061
0.0416466
0.0423944
0.043122
0.0438405
0.0446197
0.045398
0.04619
0.047021
0.0478764
0.0487176
0.0495758
0.0504686
0.0513828
0.0523203
0.0532643
0.0542481
0.0552215
0.0562586
0.0573063
0.0583637
0.0594307
0.0605271
0.0616748
0.0628265
0.0639896
0.0651464
0.0662992
0.0675402
0.0687619
0.0700251
0.0712843
0.0725447
0.0737898
0.0749742
0.0761033
0.0770671
0.025587
0.0238765
0.0193342
0.0149362
0.0127956
0.0128174
0.0136972
0.0145135
0.0150992
0.0155455
0.015915
0.0162707
0.0166243
0.0169193
0.0171842
0.01749
0.0177916
0.0180215
0.0182347
0.0185474
0.0189644
0.0193767
0.0197262
0.0200554
0.0204282
0.020861
0.0212899
0.0216555
0.0220129
0.0224375
0.0228579
0.0232144
0.0235739
0.0239857
0.0244464
0.0249565
0.0255057
0.0260383
0.0265285
0.0270106
0.0275068
0.0280027
0.0284855
0.0289393
0.0293766
0.0298459
0.0303614
0.0308859
0.0313875
0.0319225
0.0325107
0.033099
0.0336589
0.0342689
0.0349442
0.0356195
0.0362679
0.0368779
0.0374306
0.0379844
0.0386333
0.0393788
0.0401615
0.0409065
0.0416471
0.0423949
0.0431226
0.0438411
0.0446202
0.0453985
0.0461906
0.0470215
0.0478769
0.0487181
0.0495762
0.0504689
0.0513831
0.0523206
0.0532646
0.0542483
0.0552217
0.0562588
0.0573065
0.0583639
0.0594308
0.0605272
0.0616749
0.0628267
0.0639898
0.0651466
0.0662993
0.0675404
0.0687621
0.0700253
0.0712846
0.072545
0.0737902
0.0749751
0.0761045
0.0770678
0.0250298
0.0235781
0.019459
0.015281
0.0131014
0.012965
0.0137472
0.0145495
0.015148
0.0155964
0.0159554
0.0162976
0.0166417
0.0169345
0.0172005
0.0175051
0.0178043
0.0180357
0.0182528
0.0185652
0.0189766
0.0193837
0.0197329
0.0200647
0.0204379
0.0208678
0.0212946
0.021661
0.0220195
0.0224432
0.0228626
0.0232193
0.023579
0.0239901
0.0244499
0.0249592
0.0255072
0.0260384
0.0265281
0.0270104
0.027507
0.0280028
0.0284852
0.0289398
0.0293785
0.0298481
0.030363
0.0308871
0.0313894
0.0319244
0.0325119
0.0331
0.0336601
0.0342697
0.0349443
0.0356193
0.0362683
0.0368787
0.0374315
0.0379852
0.0386342
0.0393796
0.0401621
0.0409069
0.0416476
0.0423954
0.0431232
0.0438417
0.0446208
0.0453991
0.0461912
0.0470221
0.0478774
0.0487186
0.0495768
0.0504694
0.0513835
0.052321
0.0532649
0.0542486
0.0552219
0.056259
0.0573067
0.058364
0.059431
0.0605273
0.0616751
0.0628269
0.06399
0.0651467
0.0662995
0.0675405
0.0687622
0.0700254
0.0712849
0.0725452
0.0737907
0.0749762
0.076106
0.0770688
0.0245031
0.0232722
0.0195591
0.0156121
0.0134136
0.0131261
0.0138015
0.0145834
0.0151957
0.015649
0.0159982
0.0163261
0.01666
0.0169505
0.0172178
0.0175211
0.0178177
0.0180503
0.0182713
0.0185838
0.0189897
0.0193914
0.01974
0.0200744
0.0204481
0.0208751
0.0212995
0.0216667
0.0220263
0.0224491
0.0228673
0.0232243
0.0235844
0.0239948
0.0244539
0.0249624
0.0255088
0.0260386
0.0265277
0.0270103
0.0275071
0.0280025
0.0284847
0.0289401
0.0293803
0.0298506
0.0303647
0.0308886
0.0313914
0.0319266
0.0325134
0.0331012
0.0336616
0.0342708
0.0349443
0.0356189
0.0362682
0.036879
0.0374321
0.0379862
0.0386354
0.0393808
0.0401628
0.0409073
0.0416478
0.0423958
0.0431237
0.0438424
0.0446214
0.0453998
0.046192
0.0470228
0.0478781
0.0487193
0.0495774
0.05047
0.0513841
0.0523215
0.0532653
0.0542489
0.0552222
0.0562593
0.0573069
0.0583642
0.0594311
0.0605274
0.0616753
0.0628271
0.0639902
0.0651469
0.0662996
0.0675407
0.0687624
0.0700256
0.0712853
0.0725454
0.0737913
0.0749776
0.0761078
0.0770699
0.0240063
0.0229623
0.0196333
0.0159262
0.0137301
0.0133019
0.0138617
0.0146151
0.0152416
0.015703
0.0160434
0.0163564
0.0166794
0.0169673
0.0172362
0.0175382
0.0178318
0.0180654
0.0182904
0.0186031
0.0190034
0.0193996
0.0197478
0.0200848
0.0204588
0.0208827
0.0213046
0.0216726
0.0220335
0.0224552
0.0228721
0.0232294
0.0235899
0.024
0.0244584
0.0249659
0.0255108
0.0260389
0.0265273
0.0270101
0.0275071
0.028002
0.0284838
0.0289402
0.0293821
0.0298531
0.0303666
0.0308902
0.0313937
0.0319291
0.0325151
0.0331027
0.0336635
0.0342722
0.0349443
0.0356181
0.0362676
0.0368788
0.0374322
0.0379869
0.0386368
0.0393825
0.040164
0.0409077
0.041648
0.0423959
0.0431241
0.0438429
0.044622
0.0454005
0.0461929
0.0470236
0.0478787
0.0487201
0.0495783
0.0504709
0.0513849
0.0523222
0.0532658
0.0542494
0.0552227
0.0562597
0.0573073
0.0583644
0.0594313
0.0605275
0.0616755
0.0628273
0.0639904
0.0651471
0.0662998
0.0675408
0.0687626
0.0700257
0.0712857
0.0725457
0.0737919
0.0749793
0.07611
0.0770713
0.0235367
0.0226509
0.0196828
0.0162214
0.0140486
0.0134929