/*--------------------------------*- C++ -*----------------------------------*\
| =========                 |                                                 |
| \\      /  F ield         | OpenFOAM: The Open Source CFD Toolbox           |
|  \\    /   O peration     | Version:  v1812                                 |
|   \\  /    A nd           | Web:      www.OpenFOAM.com                      |
|    \\/     M anipulation  |                                                 |
\*---------------------------------------------------------------------------*/
FoamFile
{
    version     2.0;
    format      ascii;
    class       volScalarField;
    location    "10.1";
    object      p;
}
// * * * * * * * * * * * * * * * * * * * * * * * * * * * * * * * * * * * * * //

dimensions      [0 2 -2 0 0 0 0];


internalField   nonuniform List<scalar> 
9600
(
3.2334e-10
0.00218938
0.00662092
0.00451905
0.00456869
0.00836652
0.00902545
0.0107343
0.0134752
0.0144616
0.0132647
0.0153806
0.0160468
0.0168713
0.0176301
0.0183423
0.0195659
0.0218191
0.0241024
0.0282723
3.20444e-06
0.00216661
0.00662745
0.00455674
0.00454473
0.00831826
0.00902091
0.0107357
0.0134802
0.0144664
0.0132606
0.0153714
0.0160505
0.0168825
0.0176297
0.0183369
0.0195717
0.0217939
0.0241123
0.0278271
3.01204e-06
0.00214642
0.00665038
0.00458376
0.00450129
0.00825468
0.00902484
0.0107459
0.0134885
0.0144618
0.0132561
0.0153539
0.0160631
0.0168963
0.0176253
0.0183297
0.0195738
0.0217648
0.0240914
0.0273499
1.37564e-06
0.00215225
0.00668485
0.00460153
0.00446702
0.00821017
0.00903582
0.0107677
0.0135013
0.014443
0.0132557
0.015328
0.0160777
0.0169077
0.0176177
0.0183212
0.0195722
0.021731
0.0240434
0.026899
2.79545e-06
0.00218838
0.00672373
0.00461077
0.00445356
0.00818802
0.00904902
0.0108032
0.0135199
0.0144101
0.0132588
0.0152922
0.0160917
0.0169177
0.017609
0.0183097
0.0195707
0.0216906
0.0239768
0.0264755
1.08568e-05
0.00225207
0.00675702
0.0046144
0.00446906
0.00818448
0.0090644
0.0108521
0.0135443
0.0143666
0.0132653
0.0152488
0.0161062
0.0169265
0.0175997
0.0182955
0.01957
0.0216447
0.0238934
0.0260687
2.81679e-05
0.00233697
0.00677482
0.00461614
0.00451547
0.00819575
0.00908086
0.0109112
0.0135735
0.0143181
0.013275
0.0152024
0.0161213
0.0169342
0.0175906
0.0182792
0.019569
0.0215947
0.0237906
0.0256745
5.59012e-05
0.00243491
0.00677207
0.00462033
0.00458832
0.00821677
0.00909778
0.0109761
0.0136069
0.0142692
0.0132879
0.015156
0.0161365
0.0169414
0.0175815
0.0182611
0.0195659
0.0215404
0.0236671
0.0252925
9.36022e-05
0.00253944
0.00675058
0.00463089
0.00467631
0.00824235
0.00911325
0.0110418
0.0136431
0.0142228
0.0133041
0.0151113
0.0161521
0.0169484
0.0175717
0.0182414
0.0195585
0.0214812
0.0235236
0.0249223
0.000139747
0.00264751
0.00671678
0.00465019
0.00477017
0.0082691
0.00912432
0.011104
0.0136805
0.0141798
0.0133236
0.0150697
0.0161677
0.016955
0.0175604
0.0182206
0.0195446
0.0214169
0.0233624
0.024562
0.000192624
0.00275847
0.00667764
0.00467846
0.00486925
0.00829612
0.0091286
0.0111597
0.0137174
0.01414
0.0133459
0.0150317
0.0161832
0.0169613
0.0175472
0.0181986
0.019523
0.0213471
0.0231858
0.0242091
0.000250968
0.00287239
0.00663814
0.00471405
0.00497475
0.00832398
0.00912548
0.011207
0.0137524
0.014103
0.0133697
0.0149975
0.0161982
0.0169676
0.0175318
0.0181758
0.0194932
0.021271
0.0229965
0.0238624
0.000314122
0.00298904
0.00660072
0.00475484
0.00508778
0.00835307
0.00911589
0.0112459
0.0137851
0.0140681
0.0133936
0.0149668
0.0162124
0.0169743
0.017514
0.0181522
0.0194556
0.0211874
0.0227979
0.023522
0.000381864
0.00310766
0.00656607
0.00479897
0.00520837
0.00838327
0.00910188
0.0112768
0.0138157
0.0140347
0.0134162
0.0149395
0.0162255
0.0169821
0.0174935
0.0181275
0.0194109
0.0210953
0.0225931
0.0231879
0.000454175
0.00322737
0.00653418
0.00484516
0.00533548
0.00841433
0.00908571
0.0113006
0.0138446
0.0140027
0.0134363
0.0149152
0.016237
0.0169911
0.0174704
0.0181008
0.0193602
0.0209941
0.0223838
0.0228602
0.000531088
0.00334747
0.00650494
0.00489274
0.00546764
0.00844599
0.00906931
0.0113198
0.0138724
0.0139726
0.0134531
0.0148935
0.0162466
0.0170013
0.0174446
0.0180707
0.0193045
0.020883
0.0221706
0.0225395
0.00061263
0.00346755
0.00647847
0.00494146
0.00560335
0.00847802
0.00905418
0.0113351
0.0138992
0.0139446
0.0134661
0.0148743
0.0162542
0.017012
0.0174165
0.0180361
0.0192441
0.020762
0.0219537
0.0222264
0.000698832
0.00358738
0.0064551
0.00499143
0.0057413
0.00851039
0.0090414
0.0113474
0.0139252
0.0139194
0.013475
0.0148575
0.0162598
0.0170224
0.0173866
0.0179957
0.0191788
0.0206317
0.0217331
0.0219214
0.000789748
0.00370681
0.00643527
0.00504297
0.00588051
0.00854309
0.00903158
0.0113574
0.0139502
0.0138972
0.0134793
0.0148429
0.0162638
0.0170315
0.0173554
0.0179489
0.0191081
0.0204935
0.0215088
0.0216242
0.000885473
0.00382571
0.00641944
0.00509643
0.00602028
0.00857625
0.00902513
0.0113659
0.0139741
0.0138785
0.0134783
0.0148302
0.0162666
0.0170383
0.0173229
0.0178954
0.0190316
0.0203487
0.0212807
0.021335
0.000986144
0.00394393
0.00640808
0.00515215
0.00616001
0.0086101
0.00902229
0.0113734
0.0139966
0.0138635
0.0134666
0.0148189
0.016269
0.0170422
0.017289
0.0178349
0.0189491
0.0201984
0.0210485
0.0210538
0.00109192
0.00406129
0.00640159
0.00521052
0.00629915
0.00864489
0.00902315
0.0113804
0.0140176
0.0138524
0.0134512
0.0148082
0.0162714
0.017043
0.0172533
0.0177674
0.0188603
0.0200443
0.0208121
0.0207797
0.001203
0.00417759
0.00640036
0.00527197
0.00643721
0.00868086
0.00902779
0.0113894
0.0140368
0.0138453
0.0134372
0.0147975
0.0162741
0.0170402
0.0172156
0.0176928
0.0187641
0.0198883
0.020572
0.0205093
0.00131959
0.00429264
0.00640464
0.00533691
0.00657374
0.00871823
0.00903619
0.0113967
0.0140541
0.013842
0.013422
0.0147862
0.016277
0.0170336
0.0171758
0.0176116
0.0186595
0.0197316
0.020331
0.0202383
0.0014419
0.00440628
0.00641461
0.0054057
0.00670839
0.00875715
0.00904832
0.0114038
0.0140695
0.0138422
0.013405
0.0147738
0.0162802
0.0170229
0.0171335
0.0175245
0.0185456
0.0195746
0.0200931
0.0199638
0.00157016
0.00451838
0.00643031
0.0054787
0.00684084
0.00879773
0.00906413
0.011411
0.0140832
0.0138457
0.0133857
0.0147599
0.0162839
0.017008
0.017088
0.0174322
0.018422
0.0194168
0.0198633
0.0196872
0.00170457
0.0046289
0.00645166
0.00555635
0.00697085
0.00884011
0.00908369
0.0114183
0.0140953
0.0138527
0.0133644
0.0147436
0.0162886
0.0169886
0.017038
0.0173361
0.0182883
0.0192549
0.0196442
0.0194159
0.00184532
0.00473791
0.00647844
0.00563894
0.00709831
0.00888442
0.00910727
0.011425
0.0141058
0.0138635
0.0133408
0.0147241
0.0162949
0.0169654
0.0169822
0.0172378
0.0181467
0.0190848
0.0194332
0.019159
0.0019925
0.00484562
0.00651052
0.00572671
0.00722318
0.00893066
0.00913506
0.0114314
0.0141142
0.0138781
0.0133153
0.0146999
0.0163027
0.0169398
0.016919
0.0171373
0.018001
0.0189059
0.0192236
0.01892
0.00214618
0.00495229
0.00654774
0.00581983
0.00734557
0.00897876
0.00916723
0.0114374
0.0141204
0.0138963
0.0132887
0.0146698
0.0163111
0.0169134
0.0168481
0.0170331
0.0178539
0.0187224
0.0190106
0.0186937
0.00230629
0.00505833
0.00658994
0.0059184
0.00746558
0.00902857
0.00920419
0.0114435
0.0141242
0.0139179
0.0132619
0.0146328
0.0163183
0.0168875
0.0167699
0.0169238
0.017705
0.0185383
0.018796
0.0184725
0.00247274
0.00516422
0.00663703
0.00602248
0.00758335
0.00907973
0.00924614
0.0114499
0.0141252
0.0139429
0.0132358
0.0145884
0.0163228
0.0168626
0.0166852
0.0168096
0.0175542
0.0183536
0.0185839
0.0182532
0.00264538
0.00527052
0.00668889
0.00613184
0.0076995
0.00913198
0.00929277
0.0114572
0.014123
0.0139707
0.0132112
0.0145359
0.0163229
0.0168393
0.0165942
0.0166908
0.0174043
0.0181671
0.0183743
0.0180382
0.002824
0.00537788
0.00674555
0.00624598
0.00781474
0.00918536
0.00934352
0.011466
0.0141177
0.0140008
0.013189
0.0144753
0.016317
0.0168183
0.0164969
0.0165658
0.0172596
0.0179808
0.0181631
0.0178286
0.00300846
0.0054868
0.00680726
0.00636441
0.00792944
0.00924001
0.00939785
0.0114766
0.0141095
0.0140325
0.0131699
0.0144061
0.0163035
0.0168004
0.0163942
0.0164312
0.0171213
0.0178023
0.017948
0.0176206
0.00319858
0.00559763
0.0068746
0.00648667
0.00804363
0.00929621
0.00945515
0.0114892
0.0140987
0.0140652
0.0131543
0.0143286
0.0162807
0.0167861
0.0162883
0.0162839
0.0169864
0.0176393
0.0177327
0.0174075
0.00339414
0.00571055
0.00694842
0.0066124
0.00815707
0.00935455
0.00951452
0.0115037
0.0140862
0.0140985
0.0131423
0.014243
0.0162471
0.016776
0.0161824
0.0161222
0.0168494
0.0174955
0.0175267
0.0171855
0.00359509
0.00582552
0.00702958
0.00674173
0.00826914
0.00941376
0.00957543
0.0115197
0.0140728
0.0141325
0.0131342
0.0141489
0.0162005
0.0167703
0.0160813
0.0159457
0.0167038
0.0173702
0.0173404
0.0169564
0.00380154
0.00594225
0.00711889
0.00687505
0.00837883
0.00947977
0.00963809
0.0115358
0.0140587
0.0141673
0.0131305
0.014046
0.0161377
0.0167693
0.0159907
0.0157551
0.0165422
0.0172598
0.0171839
0.0167285
0.00401362
0.0060602
0.00721708
0.00701322
0.00848491
0.009551
0.00970208
0.0115504
0.0140429
0.0142034
0.0131327
0.0139346
0.0160548
0.016771
0.0159179
0.0155546
0.0163558
0.0171559
0.0170657
0.0165169
0.00423149
0.00617882
0.00732404
0.00715785
0.0085865
0.00962733
0.00977036
0.0115628
0.0140244
0.0142411
0.0131333
0.013816
0.0159477
0.0167701
0.0158694
0.0153546
0.0161383
0.0170437
0.0169883
0.0163432
0.00445545
0.00629785
0.00743902
0.0073108
0.00868326
0.0097077
0.00984459
0.0115729
0.0140017
0.0142797
0.0131445
0.0136941
0.0158132
0.0167583
0.015848
0.0151682
0.0158913
0.0169059
0.0169406
0.0162267
0.00468569
0.00641744
0.00756072
0.00747401
0.00877556
0.00979002
0.00992633
0.0115811
0.0139728
0.0143179
0.0131733
0.0135737
0.0156505
0.0167264
0.0158511
0.0150082
0.0156245
0.0167311
0.016902
0.0161741
0.0049224
0.0065378
0.00768715
0.00764952
0.00886473
0.00987093
0.0100173
0.0115894
0.0139355
0.0143531
0.0132172
0.0134602
0.0154634
0.0166662
0.0158716
0.0148841
0.0153502
0.0165177
0.0168528
0.0161727
0.00516574
0.00665962
0.00781569
0.00783862
0.00895373
0.00994671
0.0101172
0.0116005
0.0138885
0.0143821
0.0132734
0.0133597
0.0152578
0.0165722
0.0159004
0.0148022
0.0150807
0.0162679
0.0167808
0.0162008
0.00541559
0.00678434
0.00794331
0.00804085
0.00904729
0.0100149
0.0102242
0.0116178
0.013832
0.0144014
0.0133391
0.0132782
0.0150408
0.016443
0.0159259
0.0147632
0.0148319
0.015985
0.0166778
0.0162406
0.00567157
0.00691406
0.00806758
0.0082539
0.00915043
0.0100747
0.0103341
0.0116435
0.0137679
0.0144164
0.0134123
0.0132209
0.0148224
0.0162834
0.0159367
0.0147594
0.0146207
0.0156791
0.0165341
0.0162787
0.00593323
0.00705074
0.00818685
0.00847392
0.00926818
0.0101265
0.0104422
0.0116797
0.0137001
0.0144089
0.0134866
0.013187
0.0146132
0.016101
0.0159263
0.0147781
0.0144558
0.0153691
0.0163426
0.0163016
0.0062
0.00719617
0.00830006
0.00869589
0.00940472
0.0101732
0.0105412
0.0117264
0.0136358
0.0143815
0.0135514
0.0131725
0.0144198
0.015904
0.0158957
0.0148087
0.0143347
0.0150733
0.0161053
0.0162924
0.00647084
0.00735228
0.00840777
0.00891388
0.009562
0.0102203
0.0106245
0.0117811
0.0135813
0.014303
0.0136032
0.0131735
0.0142443
0.0156985
0.0158474
0.014847
0.0142516
0.0148032
0.0158334
0.0162364
0.00674451
0.00752066
0.00851159
0.00912222
0.00973962
0.0102759
0.0106894
0.0118357
0.0135425
0.0142631
0.0136441
0.0131825
0.0140873
0.0154888
0.0157804
0.0148899
0.0142038
0.014567
0.0155432
0.0161261
0.00701958
0.0077026
0.00861479
0.00931573
0.0099338
0.0103484
0.0107369
0.0118793
0.0135186
0.0142325
0.0136758
0.0131929
0.0139479
0.0152789
0.0156943
0.0149308
0.0141881
0.014372
0.0152526
0.0159636
0.00729459
0.00789836
0.00872205
0.00949067
0.0101376
0.0104452
0.0107728
0.0119025
0.013503
0.0142133
0.0137059
0.0132049
0.0138215
0.0150712
0.0155914
0.0149646
0.0141977
0.0142214
0.0149788
0.0157605
0.00756863
0.0081081
0.00883753
0.00964473
0.0103414
0.01057
0.010808
0.0119008
0.0134838
0.0142092
0.0137477
0.0132231
0.0137056
0.0148641
0.0154722
0.0149902
0.0142268
0.0141128
0.0147353
0.0155357
0.00784026
0.00833044
0.00896747
0.00977927
0.0105343
0.0107216
0.0108551
0.0118743
0.0134484
0.0142354
0.0138103
0.0132538
0.0136052
0.0146571
0.0153334
0.0150051
0.0142732
0.0140425
0.0145276
0.015308
0.00810897
0.0085622
0.00911237
0.00989995
0.0107123
0.0108964
0.0109231
0.0118273
0.0133852
0.0142601
0.0138951
0.0133036
0.0135237
0.0144574
0.0151746
0.0150009
0.0143323
0.0140092
0.0143571
0.015091
0.00837615
0.0087967
0.00927297
0.0100072
0.0108658
0.0110851
0.0110267
0.011778
0.01329
0.0142699
0.0140012
0.0133797
0.0134647
0.0142716
0.0150014
0.0149708
0.0143949
0.0140111
0.0142247
0.0148907
0.0086429
0.00905523
0.00945355
0.0100943
0.0109763
0.0112717
0.0111736
0.0117557
0.0131691
0.014248
0.0141172
0.0134854
0.0134348
0.0141032
0.0148209
0.0149144
0.0144499
0.0140428
0.0141342
0.0147114
0.00890686
0.00929572
0.00964893
0.0101919
0.0110663
0.0114487
0.0113515
0.0117675
0.0130363
0.0141845
0.0142183
0.0136177
0.0134429
0.0139587
0.014638
0.0148354
0.0144892
0.0140944
0.0140886
0.0145613
0.00916722
0.00954135
0.00985549
0.0103031
0.0111394
0.0116037
0.011543
0.0118167
0.0129117
0.0140873
0.0142861
0.0137663
0.0134912
0.0138489
0.0144597
0.0147354
0.014509
0.0141537
0.0140847
0.0144524
0.0094234
0.00978051
0.0100725
0.0104302
0.0112005
0.0117318
0.0117372
0.0119053
0.0128113
0.0138938
0.014309
0.0139137
0.0135742
0.0137839
0.0142989
0.0146177
0.0145073
0.0142101
0.0141108
0.0143909
0.00967369
0.0100102
0.0102942
0.0105798
0.0112637
0.0118346
0.0119199
0.0120245
0.0127517
0.0137699
0.0142949
0.0140458
0.0136849
0.0137619
0.014169
0.0144933
0.0144827
0.0142573
0.0141509
0.0143692
0.0099193
0.0102277
0.0105169
0.0107471
0.0113331
0.0119171
0.0120869
0.0121643
0.012736
0.0136538
0.0142476
0.0141501
0.0138123
0.013778
0.0140751
0.0143766
0.0144381
0.0142912
0.0141949
0.0143735
0.0101646
0.0104554
0.0107269
0.0109127
0.0114089
0.0119881
0.0122365
0.0123156
0.0127612
0.0135602
0.0141776
0.0142182
0.0139435
0.013832
0.0140203
0.0142798
0.0143843
0.0143114
0.0142402
0.0143936
0.0104058
0.0106661
0.0109275
0.0110865
0.0115008
0.0120536
0.012366
0.0124679
0.0128198
0.0134972
0.0141022
0.0142539
0.0140645
0.0139186
0.014009
0.0142087
0.0143287
0.0143186
0.0142862
0.0144259
0.0106381
0.0108734
0.0111229
0.0112662
0.011606
0.0121135
0.0124733
0.0126135
0.0129041
0.0134693
0.0140365
0.0142679
0.014166
0.0140207
0.0140363
0.0141696
0.0142827
0.0143157
0.0143275
0.014468
0.0108622
0.0110702
0.0113099
0.0114447
0.0117226
0.0121775
0.0125649
0.0127483
0.0130049
0.0134752
0.0139911
0.0142712
0.0142519
0.0141253
0.0140924
0.0141687
0.0142596
0.014313
0.0143632
0.014518
0.0110797
0.0112671
0.0114835
0.0116105
0.0118454
0.0122487
0.012646
0.0128707
0.013115
0.0135109
0.0139712
0.0142756
0.0143269
0.0142332
0.0141726
0.0142044
0.0142677
0.0143216
0.0143954
0.0145685
0.0112848
0.0114542
0.0116506
0.0117715
0.0119736
0.0123262
0.0127177
0.0129788
0.0132277
0.0135695
0.0139795
0.0142904
0.0143973
0.0143482
0.0142777
0.0142727
0.0143105
0.0143535
0.0144342
0.0146201
0.0114746
0.0116231
0.0118093
0.0119286
0.0121052
0.0124111
0.0127859
0.0130749
0.0133371
0.0136423
0.0140166
0.0143256
0.0144716
0.0144712
0.0144115
0.0143778
0.0143901
0.0144182
0.0144914
0.0146793
0.0116549
0.0117954
0.0119536
0.0120602
0.0122264
0.0125012
0.012856
0.0131629
0.0134442
0.0137168
0.0140801
0.0143876
0.0145605
0.0146046
0.0145755
0.0145318
0.0145198
0.0145282
0.0145794
0.0147524
0.0118169
0.0119472
0.0120865
0.0121833
0.0123427
0.0125959
0.0129293
0.0132421
0.013558
0.0138886
0.0141807
0.01448
0.0146749
0.0147588
0.0147733
0.014753
0.0147381
0.0147379
0.0147649
0.0148964
0.0119583
0.0120824
0.0122128
0.0122951
0.012441
0.0126786
0.0130101
0.0133169
0.0135842
0.0138669
0.0141873
0.014504
0.0147442
0.0148713
0.0149341
0.0149588
0.0149846
0.015041
0.0151266
0.0152642
0.0120813
0.01221
0.0123306
0.0123999
0.0125308
0.0127463
0.0130823
0.0134455
0.0138081
0.0141376
0.0144611
0.0147881
0.0150643
0.0152357
0.0153188
0.0153209
0.0152582
0.0152013
0.0152118
0.0153013
0.0121716
0.0122722
0.0123864
0.0124778
0.0126392
0.0128317
0.012995
0.013225
0.0134729
0.0138022
0.0142135
0.0147066
0.0151295
0.0154088
0.0156325
0.0159302
0.0162815
0.0166575
0.0169976
0.0172671
0.0122926
0.0124085
0.0124818
0.0125092
0.0126589
0.0129135
0.0133111
0.0137019
0.014077
0.0143568
0.0146975
0.0150029
0.015305
0.0155581
0.0157726
0.0159398
0.0161438
0.0163821
0.0166601
0.0169033
0.0121941
0.0122948
0.0125215
0.0127238
0.0129507
0.0131787
0.0134431
0.0136636
0.0139105
0.0141876
0.0145032
0.0148257
0.0151223
0.015497
0.0159065
0.0163413
0.0167696
0.0171876
0.0175596
0.017812
0.0124287
0.0125798
0.0127267
0.0128166
0.0129958
0.0132384
0.0135418
0.0138589
0.0142111
0.0145691
0.0149179
0.0152035
0.0154516
0.0156173
0.0157029
0.0157114
0.0156924
0.015628
0.0155278
0.0154546
0.0122733
0.0124014
0.0126738
0.012928
0.013178
0.0134079
0.0136678
0.013906
0.0141492
0.0144111
0.014687
0.0150207
0.0153544
0.0156869
0.0160791
0.0164914
0.0168875
0.0172603
0.0175738
0.0177575
0.0124184
0.0125776
0.0128544
0.0130703
0.0132935
0.0135047
0.0137589
0.0140238
0.0143121
0.014649
0.0149904
0.0152849
0.0155456
0.0157689
0.0159637
0.0161526
0.0163679
0.0166087
0.0168103
0.0169032
0.031463
0.0256664
0.0176895
0.0120318
0.0107611
0.0119862
0.0133483
0.0142168
0.0147855
0.0152631
0.0156983
0.0161229
0.0165226
0.0168298
0.0170929
0.0174084
0.0177226
0.0179476
0.0181487
0.0184687
0.0189139
0.0193494
0.0196988
0.020016
0.0203875
0.0208331
0.0212719
0.021636
0.0219905
0.0224186
0.0228441
0.0232033
0.0235661
0.0239821
0.0244452
0.0249572
0.0255093
0.0260453
0.0265369
0.0270171
0.0275117
0.0280087
0.028493
0.0289462
0.0293818
0.0298513
0.0303692
0.0308947
0.031396
0.0319316
0.0325214
0.033111
0.0336713
0.0342822
0.0349589
0.0356343
0.0362821
0.0368924
0.0374467
0.0380021
0.0386522
0.0393978
0.0401804
0.040926
0.0416675
0.0424159
0.043144
0.0438637
0.0446438
0.0454228
0.0462156
0.047047
0.0479033
0.0487455
0.0496045
0.0504979
0.0514129
0.0523513
0.0532965
0.0542811
0.0552555
0.0562934
0.0573414
0.0583997
0.0594678
0.0605651
0.0617134
0.0628661
0.0640301
0.065188
0.0663424
0.0675841
0.0688063
0.0700709
0.0713311
0.0725928
0.0738385
0.0750234
0.0761527
0.0771186
0.0307144
0.0255213
0.017775
0.0121776
0.0108504
0.0120291
0.0133749
0.0142354
0.0147991
0.0152736
0.0157068
0.01613
0.016529
0.0168354
0.0170977
0.0174127
0.0177266
0.0179512
0.0181516
0.0184712
0.0189162
0.0193517
0.0197008
0.0200178
0.020389
0.0208344
0.0212733
0.0216372
0.0219916
0.0224196
0.0228451
0.0232042
0.023567
0.0239829
0.024446
0.024958
0.02551
0.0260461
0.0265377
0.0270178
0.0275124
0.0280094
0.0284937
0.0289469
0.0293824
0.0298519
0.0303697
0.0308953
0.0313965
0.0319321
0.0325219
0.0331114
0.0336718
0.0342826
0.0349592
0.0356347
0.0362825
0.0368928
0.037447
0.0380024
0.0386525
0.0393981
0.0401806
0.0409263
0.0416678
0.0424161
0.0431442
0.0438639
0.044644
0.045423
0.0462158
0.0470472
0.0479035
0.0487457
0.0496047
0.050498
0.0514131
0.0523515
0.0532966
0.0542812
0.0552556
0.0562935
0.0573415
0.0583998
0.0594679
0.0605652
0.0617135
0.0628662
0.0640302
0.0651881
0.0663425
0.0675842
0.0688064
0.070071
0.0713312
0.0725929
0.0738386
0.0750234
0.0761527
0.0771186
0.0300227
0.0253894
0.0179505
0.0124433
0.011002
0.0120841
0.0134007
0.0142552
0.014816
0.0152874
0.0157176
0.0161384
0.0165359
0.0168413
0.0171027
0.017417
0.0177306
0.0179547
0.0181546
0.0184737
0.0189185
0.0193538
0.0197028
0.0200195
0.0203905
0.0208358
0.0212746
0.0216384
0.0219925
0.0224206
0.0228461
0.0232051
0.0235677
0.0239836
0.0244467
0.0249586
0.0255107
0.0260468
0.0265384
0.0270185
0.027513
0.02801
0.0284943
0.0289474
0.0293829
0.0298523
0.0303702
0.0308958
0.031397
0.0319325
0.0325223
0.0331119
0.0336721
0.0342829
0.0349596
0.035635
0.0362829
0.0368932
0.0374473
0.0380026
0.0386527
0.0393983
0.0401809
0.0409265
0.041668
0.0424163
0.0431445
0.0438641
0.0446441
0.0454232
0.046216
0.0470474
0.0479037
0.0487458
0.0496048
0.0504982
0.0514132
0.0523516
0.0532968
0.0542813
0.0552557
0.0562936
0.0573416
0.0583999
0.059468
0.0605653
0.0617136
0.0628663
0.0640303
0.0651882
0.0663425
0.0675843
0.0688065
0.0700711
0.0713313
0.072593
0.0738387
0.0750235
0.0761528
0.0771187
0.029372
0.0252533
0.0181694
0.0127772
0.0112099
0.0121621
0.0134371
0.0142844
0.0148418
0.0153085
0.0157334
0.0161497
0.0165446
0.016849
0.0171097
0.017423
0.0177356
0.0179593
0.0181589
0.0184774
0.0189215
0.0193563
0.0197052
0.020022
0.0203928
0.0208377
0.0212762
0.0216398
0.0219938
0.0224217
0.0228472
0.023206
0.0235684
0.0239843
0.0244473
0.0249593
0.0255114
0.0260475
0.026539
0.0270191
0.0275137
0.0280106
0.0284949
0.028948
0.0293835
0.0298528
0.0303707
0.0308963
0.0313974
0.0319329
0.0325228
0.0331123
0.0336725
0.0342832
0.0349599
0.0356354
0.0362833
0.0368936
0.0374477
0.0380028
0.0386529
0.0393985
0.0401812
0.0409268
0.0416682
0.0424166
0.0431447
0.0438642
0.0446443
0.0454234
0.0462161
0.0470475
0.0479038
0.048746
0.0496049
0.0504983
0.0514133
0.0523518
0.0532969
0.0542815
0.0552558
0.0562937
0.0573417
0.0584
0.0594681
0.0605654
0.0617137
0.0628664
0.0640304
0.0651883
0.0663426
0.0675843
0.0688066
0.0700711
0.0713314
0.0725931
0.0738388
0.0750236
0.076153
0.0771188
0.0287215
0.0250896
0.0183961
0.0131339
0.0114426
0.0122519
0.0134791
0.0143208
0.0148766
0.0153379
0.0157554
0.016165
0.0165556
0.0168589
0.0171194
0.0174314
0.0177425
0.0179661
0.018166
0.0184835
0.0189256
0.0193591
0.0197083
0.0200258
0.0203965
0.0208405
0.0212784
0.0216418
0.0219957
0.0224235
0.0228486
0.023207
0.0235692
0.0239849
0.024448
0.02496
0.0255122
0.0260482
0.0265397
0.0270198
0.0275145
0.0280113
0.0284955
0.0289486
0.0293841
0.0298534
0.0303712
0.0308968
0.0313979
0.0319334
0.0325232
0.0331128
0.0336729
0.0342836
0.0349603
0.0356358
0.0362837
0.0368941
0.037448
0.038003
0.038653
0.0393988
0.0401815
0.0409271
0.0416685
0.0424169
0.0431449
0.0438644
0.0446445
0.0454236
0.0462163
0.0470477
0.047904
0.0487462
0.0496051
0.0504985
0.0514135
0.0523519
0.053297
0.0542816
0.055256
0.0562938
0.0573419
0.0584001
0.0594682
0.0605655
0.0617138
0.0628665
0.0640305
0.0651884
0.0663427
0.0675844
0.0688067
0.0700712
0.0713315
0.0725932
0.073839
0.0750237
0.0761532
0.0771191
0.0280674
0.0248962
0.0186176
0.0134975
0.0116887
0.0123477
0.0135216
0.0143597
0.0149166
0.0153731
0.0157823
0.0161833
0.0165683
0.0168704
0.0171315
0.0174422
0.0177514
0.0179753
0.0181764
0.0184928
0.0189314
0.0193623
0.0197119
0.020031
0.0204019
0.0208445
0.0212813
0.0216447
0.0219988
0.0224262
0.0228506
0.0232086
0.0235703
0.0239857
0.0244487
0.0249608
0.0255129
0.0260488
0.0265403
0.0270206
0.0275154
0.0280121
0.0284962
0.0289493
0.0293848
0.0298541
0.0303718
0.0308974
0.0313985
0.0319339
0.0325238
0.0331133
0.0336734
0.0342841
0.0349608
0.0356363
0.0362842
0.0368946
0.0374484
0.0380033
0.0386532
0.0393991
0.0401819
0.0409274
0.0416688
0.0424172
0.0431452
0.0438647
0.0446447
0.0454238
0.0462165
0.0470479
0.0479042
0.0487463
0.0496052
0.0504986
0.0514136
0.052352
0.0532971
0.0542817
0.0552561
0.056294
0.057342
0.0584003
0.0594684
0.0605656
0.0617139
0.0628667
0.0640307
0.0651885
0.0663428
0.0675845
0.0688068
0.0700713
0.0713316
0.0725933
0.0738391
0.075024
0.0761536
0.0771194
0.0274191
0.0246768
0.0188272
0.0138625
0.0119466
0.0124502
0.0135641
0.0143994
0.0149601
0.0154124
0.0158125
0.0162037
0.0165819
0.0168828
0.0171448
0.0174544
0.0177618
0.0179866
0.0181899
0.0185051
0.018939
0.0193662
0.0197161
0.0200376
0.0204089
0.0208496
0.0212848
0.0216485
0.0220032
0.02243
0.0228536
0.0232109
0.0235721
0.0239869
0.0244497
0.0249617
0.0255135
0.0260491
0.0265406
0.0270213
0.0275164
0.028013
0.0284968
0.02895
0.0293857
0.029855
0.0303725
0.030898
0.0313992
0.0319346
0.0325243
0.0331138
0.033674
0.0342846
0.0349613
0.0356368
0.0362849
0.0368953
0.0374489
0.0380035
0.0386535
0.0393995
0.0401823
0.0409278
0.0416692
0.0424176
0.0431456
0.043865
0.044645
0.0454241
0.0462167
0.0470481
0.0479044
0.0487466
0.0496054
0.0504988
0.0514138
0.0523522
0.0532973
0.0542819
0.0552562
0.0562941
0.0573422
0.0584004
0.0594685
0.0605657
0.0617141
0.0628668
0.0640308
0.0651886
0.0663429
0.0675846
0.0688069
0.0700714
0.0713317
0.0725934
0.0738393
0.0750243
0.0761541
0.0771198
0.0267865
0.0244327
0.0190191
0.0142256
0.0122175
0.0125621
0.0136079
0.0144395
0.0150063
0.0154551
0.0158454
0.0162258
0.0165965
0.0168957
0.0171588
0.0174673
0.0177729
0.0179994
0.0182057
0.0185198
0.0189482
0.0193709
0.019721
0.0200451
0.020417
0.0208554
0.0212888
0.021653
0.0220085
0.0224348
0.0228574
0.0232143
0.0235749
0.0239888
0.0244511
0.0249629
0.0255142
0.0260492
0.0265406
0.0270219
0.0275174
0.0280139
0.0284974
0.0289508
0.0293869
0.0298562
0.0303733
0.0308987
0.0314001
0.0319355
0.032525
0.0331143
0.0336746
0.0342852
0.0349618
0.0356373
0.0362856
0.036896
0.0374494
0.0380038
0.0386537
0.0393999
0.0401828
0.0409283
0.0416696
0.0424181
0.043146
0.0438653
0.0446454
0.0454244
0.046217
0.0470484
0.0479047
0.0487468
0.0496056
0.050499
0.051414
0.0523524
0.0532974
0.054282
0.0552564
0.0562942
0.0573423
0.0584005
0.0594686
0.0605658
0.0617142
0.062867
0.0640309
0.0651888
0.066343
0.0675848
0.068807
0.0700716
0.0713319
0.0725936
0.0738396
0.0750247
0.0761548
0.0771203
0.0261755
0.0241656
0.0191894
0.0145852
0.012502
0.0126854
0.0136534
0.0144791
0.0150542
0.0155009
0.0158809
0.0162495
0.0166121
0.0169094
0.0171734
0.0174807
0.0177846
0.0180129
0.0182226
0.018536
0.0189587
0.0193765
0.0197265
0.0200533
0.0204257
0.0208616
0.021293
0.021658
0.0220145
0.0224401
0.0228618
0.0232185
0.0235786
0.0239916
0.0244532
0.0249646
0.0255151
0.0260491
0.0265403
0.0270221
0.0275182
0.0280147
0.0284979
0.0289516
0.0293885
0.0298579
0.0303744
0.0308996
0.0314013
0.0319367
0.0325258
0.0331149
0.0336753
0.0342858
0.0349622
0.0356378
0.0362864
0.0368969
0.0374501
0.0380042
0.0386541
0.0394003
0.0401833
0.0409288
0.0416701
0.0424186
0.0431466
0.0438658
0.0446458
0.0454248
0.0462175
0.0470488
0.0479051
0.0487471
0.0496059
0.0504993
0.0514142
0.0523526
0.0532976
0.0542822
0.0552565
0.0562944
0.0573425
0.0584007
0.0594688
0.0605659
0.0617143
0.0628671
0.0640311
0.0651889
0.0663431
0.0675849
0.0688072
0.0700717
0.0713322
0.0725938
0.07384
0.0750254
0.0761558
0.0771209
0.0255899
0.0238797
0.0193373
0.0149394
0.0127988
0.0128207
0.0137008
0.0145171
0.0151029
0.0155494
0.0159189
0.0162749
0.0166286
0.0169238
0.0171888
0.0174949
0.0177967
0.0180268
0.0182402
0.0185532
0.0189702
0.0193829
0.0197327
0.0200621
0.020435
0.0208682
0.0212974
0.0216632
0.0220208
0.0224457
0.0228665
0.0232233
0.0235832
0.0239952
0.024456
0.0249668
0.0255163
0.0260491
0.0265399
0.0270221
0.0275187
0.0280151
0.0284981
0.0289524
0.0293902
0.0298599
0.0303757
0.0309006
0.0314028
0.0319383
0.0325268
0.0331156
0.0336762
0.0342865
0.0349624
0.035638
0.0362871
0.0368979
0.0374509
0.0380048
0.0386546
0.0394009
0.0401838
0.0409292
0.0416706
0.0424192
0.0431472
0.0438664
0.0446463
0.0454254
0.046218
0.0470493
0.0479055
0.0487476
0.0496063
0.0504996
0.0514145
0.0523529
0.0532979
0.0542824
0.0552567
0.0562945
0.0573427
0.0584008
0.0594689
0.060566
0.0617145
0.0628673
0.0640313
0.0651891
0.0663432
0.0675851
0.0688073
0.0700719
0.0713324
0.072594
0.0738404
0.0750262
0.076157
0.0771217
0.0250328
0.0235812
0.0194622
0.0152842
0.0131046
0.0129683
0.0137508
0.0145532
0.0151517
0.0156002
0.0159593
0.0163018
0.016646
0.0169389
0.0172052
0.0175099
0.0178094
0.018041
0.0182583
0.018571
0.0189825
0.0193899
0.0197393
0.0200713
0.0204447
0.020875
0.0213021
0.0216687
0.0220274
0.0224514
0.0228711
0.0232283
0.0235883
0.0239995
0.0244595
0.0249695
0.0255177
0.0260492
0.0265394
0.027022
0.027519
0.0280151
0.0284978
0.0289529
0.0293921
0.0298621
0.0303773
0.0309019
0.0314046
0.0319402
0.032528
0.0331166
0.0336773
0.0342873
0.0349624
0.0356379
0.0362875
0.0368987
0.0374518
0.0380056
0.0386555
0.0394017
0.0401844
0.0409296
0.0416711
0.0424196
0.0431478
0.043867
0.0446469
0.045426
0.0462187
0.0470499
0.047906
0.0487481
0.0496068
0.0505001
0.051415
0.0523533
0.0532982
0.0542827
0.0552569
0.0562947
0.0573429
0.058401
0.0594691
0.0605662
0.0617147
0.0628675
0.0640314
0.0651892
0.0663434
0.0675852
0.0688075
0.070072
0.0713327
0.0725942
0.0738408
0.0750273
0.0761585
0.0771227
0.024506
0.0232754
0.0195622
0.0156152
0.0134167
0.0131294
0.0138051
0.014587
0.0151994
0.0156528
0.0160021
0.0163302
0.0166644
0.0169549
0.0172225
0.017526
0.0178227
0.0180555
0.0182768
0.0185896
0.0189956
0.0193975
0.0197465
0.0200811
0.0204549
0.0208822
0.021307
0.0216743
0.0220343
0.0224573
0.0228759
0.0232333
0.0235936
0.0240043
0.0244636
0.0249726
0.0255194
0.0260494
0.026539
0.0270218
0.027519
0.0280148
0.0284973
0.0289532
0.0293939
0.0298645
0.0303791
0.0309034
0.0314067
0.0319424
0.0325295
0.0331178
0.0336789
0.0342884
0.0349624
0.0356374
0.0362874
0.0368991
0.0374524
0.0380066
0.0386567
0.0394029
0.0401852
0.0409299
0.0416713
0.04242
0.0431483
0.0438677
0.0446475
0.0454266
0.0462194
0.0470506
0.0479067
0.0487488
0.0496075
0.0505007
0.0514156
0.0523538
0.0532986
0.0542831
0.0552573
0.056295
0.0573431
0.0584012
0.0594692
0.0605663
0.0617149
0.0628677
0.0640316
0.0651894
0.0663435
0.0675854
0.0688077
0.0700722
0.0713331
0.0725945
0.0738414
0.0750287
0.0761603
0.0771238
0.0240093
0.0229654
0.0196364
0.0159293
0.0137333
0.0133052
0.0138653
0.0146187
0.0152453
0.0157068
0.0160474
0.0163605
0.0166838
0.0169718
0.0172408
0.017543
0.0178369
0.0180706
0.0182959
0.0186089
0.0190093
0.0194058
0.0197542
0.0200914
0.0204656
0.0208899
0.0213121
0.0216803
0.0220414
0.0224634
0.0228806
0.0232384
0.0235992
0.0240094
0.0244681
0.0249762
0.0255213
0.0260497
0.0265387
0.0270217
0.027519
0.0280143
0.0284964
0.0289532
0.0293957
0.0298671
0.030381
0.030905
0.031409
0.0319449
0.0325312
0.0331193
0.0336807
0.0342898
0.0349624
0.0356366
0.0362868
0.0368988
0.0374525
0.0380073
0.0386581
0.0394046
0.0401863
0.0409304
0.0416715
0.0424201
0.0431486
0.0438682
0.0446481
0.0454273
0.0462203
0.0470514
0.0479073
0.0487495
0.0496083
0.0505016
0.0514163
0.0523545
0.0532991
0.0542836
0.0552577
0.0562954
0.0573434
0.0584014
0.0594694
0.0605664
0.061715
0.0628679
0.0640318
0.0651896
0.0663437
0.0675855
0.0688079
0.0700723
0.0713335
0.0725947
0.073842
0.0750304
0.0761625
0.0771252
0.0235397
0.022654
0.0196859
0.0162245