/*--------------------------------*- C++ -*----------------------------------*\
| =========                 |                                                 |
| \\      /  F ield         | OpenFOAM: The Open Source CFD Toolbox           |
|  \\    /   O peration     | Version:  v1812                                 |
|   \\  /    A nd           | Web:      www.OpenFOAM.com                      |
|    \\/     M anipulation  |                                                 |
\*---------------------------------------------------------------------------*/
FoamFile
{
    version     2.0;
    format      ascii;
    class       surfaceScalarField;
    location    "10.1";
    object      phi;
}
// * * * * * * * * * * * * * * * * * * * * * * * * * * * * * * * * * * * * * //

dimensions      [0 3 -1 0 0 0 0];
oriented        oriented;


internalField   nonuniform List<scalar> 
19000
(
1.19483e-06
-3.25267e-07
1.05823e-06
1.26066e-06
1.11395e-06
-1.74475e-06
1.31693e-06
-1.39406e-06
1.27668e-06
1.56083e-07
1.13377e-06
1.06554e-06
1.13105e-06
-2.75928e-08
1.14347e-06
-4.19403e-07
1.16587e-06
-6.85843e-07
1.17962e-06
-2.81574e-07
1.1713e-06
-4.60711e-08
1.16527e-06
3.11542e-07
1.17524e-06
3.31008e-07
1.18557e-06
4.33319e-07
1.17655e-06
2.60137e-07
1.17589e-06
3.03441e-07
1.17444e-06
1.88177e-07
1.16294e-06
1.51038e-07
1.16176e-06
8.6812e-08
6.60266e-08
1.12956e-06
1.25387e-06
-3.54873e-07
1.13665e-06
1.37788e-06
1.18346e-06
-1.79156e-06
1.37249e-06
-1.5831e-06
1.33431e-06
1.94266e-07
1.2111e-06
1.18875e-06
1.20304e-06
-1.95343e-08
1.214e-06
-4.30358e-07
1.23764e-06
-7.09483e-07
1.2471e-06
-2.91033e-07
1.23366e-06
-3.26316e-08
1.2311e-06
3.14097e-07
1.23086e-06
3.31248e-07
1.25489e-06
4.09289e-07
1.23263e-06
2.82394e-07
1.24755e-06
2.88521e-07
1.2275e-06
2.08231e-07
1.23818e-06
1.40356e-07
1.21043e-06
1.14569e-07
5.88363e-08
1.21762e-06
1.31535e-06
-3.87442e-07
1.22827e-06
1.46496e-06
1.25241e-06
-1.8157e-06
1.42227e-06
-1.75295e-06
1.39772e-06
2.1881e-07
1.30646e-06
1.28002e-06
1.28701e-06
-8.89465e-11
1.29672e-06
-4.40066e-07
1.31455e-06
-7.27311e-07
1.32625e-06
-3.02738e-07
1.30177e-06
-8.15172e-09
1.30642e-06
3.0945e-07
1.29242e-06
3.45244e-07
1.32487e-06
3.7684e-07
1.29861e-06
3.08656e-07
1.31237e-06
2.74759e-07
1.29622e-06
2.24388e-07
1.30008e-06
1.3649e-07
1.28365e-06
1.30998e-07
6.93665e-08
1.27312e-06
1.37891e-06
-4.22253e-07
1.3285e-06
1.51538e-06
1.31816e-06
-1.80536e-06
1.46512e-06
-1.89991e-06
1.46525e-06
2.1868e-07
1.41313e-06
1.33214e-06
1.37853e-06
3.45031e-08
1.38291e-06
-4.44441e-07
1.3903e-06
-7.34697e-07
1.40656e-06
-3.19003e-07
1.37531e-06
2.30971e-08
1.3801e-06
3.04666e-07
1.36252e-06
3.62816e-07
1.38934e-06
3.50026e-07
1.37411e-06
3.23885e-07
1.37846e-06
2.7041e-07
1.37148e-06
2.31371e-07
1.36928e-06
1.3869e-07
1.35847e-06
1.41802e-07
8.3986e-08
1.34385e-06
1.44359e-06
-4.57486e-07
1.42848e-06
1.53049e-06
1.37737e-06
-1.75425e-06
1.50058e-06
-2.02312e-06
1.53629e-06
1.82969e-07
1.52275e-06
1.34568e-06
1.47447e-06
8.27893e-08
1.46608e-06
-4.36053e-07
1.46146e-06
-7.30081e-07
1.47956e-06
-3.37106e-07
1.45207e-06
5.05871e-08
1.45189e-06
3.04855e-07
1.43918e-06
3.75523e-07
1.45661e-06
3.32598e-07
1.45326e-06
3.27232e-07
1.45355e-06
2.70124e-07
1.44971e-06
2.35211e-07
1.44597e-06
1.42424e-07
1.43601e-06
1.51761e-07
9.97025e-08
1.4203e-06
1.509e-06
-4.90812e-07
1.51998e-06
1.51951e-06
1.4312e-06
-1.66547e-06
1.53173e-06
-2.12365e-06
1.61005e-06
1.04653e-07
1.6293e-06
1.32642e-06
1.57253e-06
1.39558e-07
1.54485e-06
-4.08374e-07
1.52837e-06
-7.13597e-07
1.54484e-06
-3.53577e-07
1.52879e-06
6.6633e-08
1.52587e-06
3.07784e-07
1.5195e-06
3.81884e-07
1.53075e-06
3.21356e-07
1.53398e-06
3.23995e-07
1.53478e-06
2.69328e-07
1.53142e-06
2.38575e-07
1.52609e-06
1.47747e-07
1.51624e-06
1.61607e-07
1.16888e-07
1.49906e-06
1.57575e-06
-5.2035e-07
1.60053e-06
1.49474e-06
1.48653e-06
-1.55147e-06
1.56535e-06
-2.20246e-06
1.6847e-06
-1.46984e-08
1.73e-06
1.28112e-06
1.67017e-06
1.99381e-07
1.62164e-06
-3.59843e-07
1.59315e-06
-6.85101e-07
1.60597e-06
-3.66401e-07
1.60274e-06
6.98607e-08
1.60275e-06
3.07782e-07
1.60193e-06
3.82705e-07
1.61052e-06
3.12765e-07
1.61636e-06
3.18153e-07
1.61836e-06
2.67325e-07
1.61519e-06
2.41749e-07
1.60763e-06
1.55307e-07
1.59732e-06
1.71918e-07
1.35505e-07
1.5787e-06
1.645e-06
-5.45221e-07
1.67417e-06
1.46556e-06
1.55201e-06
-1.42931e-06
1.60856e-06
-2.25901e-06
1.75678e-06
-1.6292e-07
1.82242e-06
1.21549e-06
1.76386e-06
2.57936e-07
1.69879e-06
-2.94774e-07
1.65818e-06
-6.44487e-07
1.66621e-06
-3.74436e-07
1.67333e-06
6.27464e-08
1.68047e-06
3.0064e-07
1.6852e-06
3.77976e-07
1.69326e-06
3.04706e-07
1.69986e-06
3.1155e-07
1.70215e-06
2.65037e-07
1.69898e-06
2.4492e-07
1.68917e-06
1.65116e-07
1.67808e-06
1.83007e-07
1.55217e-07
1.65837e-06
1.71768e-06
-5.65332e-07
1.74757e-06
1.43568e-06
1.63212e-06
-1.31386e-06
1.66499e-06
-2.29189e-06
1.82302e-06
-3.20945e-07
1.90357e-06
1.13493e-06
1.85012e-06
3.11388e-07
1.77688e-06
-2.2153e-07
1.72575e-06
-5.93359e-07
1.72795e-06
-3.76637e-07
1.74165e-06
4.90424e-08
1.75689e-06
2.85406e-07
1.76744e-06
3.67425e-07
1.77612e-06
2.96026e-07
1.78293e-06
3.04739e-07
1.78466e-06
2.63305e-07
1.7813e-06
2.48284e-07
1.76965e-06
1.76764e-07
1.758e-06
1.94653e-07
1.75319e-07
1.7379e-06
1.79422e-06
-5.80831e-07
1.82555e-06
1.40435e-06
1.72525e-06
-1.21357e-06
1.73416e-06
-2.3008e-06
1.88296e-06
-4.69743e-07
1.97212e-06
1.04577e-06
1.92736e-06
3.5615e-07
1.85537e-06
-1.49544e-07
1.79779e-06
-5.35778e-07
1.79351e-06
-3.72356e-07
1.80967e-06
3.28864e-08
1.83105e-06
2.64022e-07
1.84677e-06
3.51705e-07
1.85654e-06
2.8626e-07
1.86368e-06
2.97599e-07
1.86471e-06
2.62278e-07
1.86138e-06
2.51606e-07
1.84873e-06
1.89413e-07
1.83717e-06
2.06221e-07
1.94731e-07
1.81776e-06
1.87475e-06
-5.91831e-07
1.90953e-06
1.36957e-06
1.82652e-06
-1.13055e-06
1.8137e-06
-2.28797e-06
1.93969e-06
-5.95734e-07
2.03042e-06
9.55037e-07
1.99692e-06
3.89656e-07
1.93396e-06
-8.65881e-08
1.87549e-06
-4.77309e-07
1.86524e-06
-3.62109e-07
1.87995e-06
1.81793e-08
1.90377e-06
2.402e-07
1.92276e-06
3.32718e-07
1.9334e-06
2.75626e-07
1.94119e-06
2.89799e-07
1.94198e-06
2.61493e-07
1.93943e-06
2.54158e-07
1.92704e-06
2.01805e-07
1.91639e-06
2.16867e-07
2.12222e-07
1.8989e-06
1.9595e-06
-5.98488e-07
1.99862e-06
1.33045e-06
1.93137e-06
-1.0633e-06
1.90141e-06
-2.25802e-06
1.99827e-06
-6.92593e-07
2.08419e-06
8.69118e-07
2.06265e-06
4.11196e-07
2.01323e-06
-3.71664e-08
1.95909e-06
-4.23169e-07
1.94473e-06
-3.47757e-07
1.95534e-06
7.57125e-09
1.97766e-06
2.17886e-07
1.99733e-06
3.13045e-07
2.00805e-06
2.64903e-07
2.01665e-06
2.81201e-07
2.01781e-06
2.60338e-07
2.01684e-06
2.55128e-07
2.00604e-06
2.12597e-07
1.99712e-06
2.25789e-07
2.26744e-07
1.9826e-06
2.04884e-06
-6.01143e-07
2.09149e-06
1.2878e-06
2.03725e-06
-1.00906e-06
1.99584e-06
-2.21661e-06
2.06354e-06
-7.60296e-07
2.14034e-06
7.92321e-07
2.12958e-06
4.21961e-07
2.09469e-06
-2.27751e-09
2.0482e-06
-3.76686e-07
2.03228e-06
-3.31835e-07
2.03812e-06
1.73003e-09
2.05622e-06
1.99792e-07
2.07431e-06
2.94952e-07
2.0841e-06
2.55107e-07
2.09325e-06
2.72054e-07
2.09508e-06
2.58511e-07
2.09605e-06
2.54157e-07
2.08778e-06
2.20865e-07
2.08105e-06
2.3252e-07
2.3772e-07
2.07007e-06
2.14319e-06
-6.00329e-07
2.18768e-06
1.24331e-06
2.14365e-06
-9.65034e-07
2.09602e-06
-2.16898e-06
2.13856e-06
-8.02835e-07
2.20459e-06
7.26296e-07
2.20227e-06
4.24275e-07
2.1803e-06
1.97011e-08
2.1424e-06
-3.38794e-07
2.1271e-06
-3.16534e-07
2.12928e-06
-4.48465e-10
2.14239e-06
1.8668e-07
2.15774e-06
2.79606e-07
2.16579e-06
2.47052e-07
2.17492e-06
2.62929e-07
2.17725e-06
2.56185e-07
2.17981e-06
2.51595e-07
2.17425e-06
2.26418e-07
2.16967e-06
2.37104e-07
2.45178e-07
2.16221e-06
2.24282e-06
-5.96661e-07
2.28761e-06
1.19852e-06
2.2513e-06
-9.28716e-07
2.20131e-06
-2.119e-06
2.22427e-06
-8.25795e-07
2.2801e-06
6.7047e-07
2.28376e-06
4.20615e-07
2.27182e-06
3.16371e-08
2.24161e-06
-3.08582e-07
2.22809e-06
-3.03015e-07
2.2285e-06
-8.59374e-10
2.23748e-06
1.77703e-07
2.25016e-06
2.66928e-07
2.25617e-06
2.41034e-07
2.26466e-06
2.5444e-07
2.26705e-06
2.53799e-07
2.27033e-06
2.48318e-07
2.26702e-06
2.29721e-07
2.26408e-06
2.40044e-07
2.49679e-07
2.25958e-06
2.34794e-06
-5.90728e-07
2.39216e-06
1.1543e-06
2.36139e-06
-8.97948e-07
2.31132e-06
-2.06893e-06
2.32012e-06
-8.34591e-07
2.36758e-06
6.23013e-07
2.37525e-06
4.12946e-07
2.37042e-06
3.64628e-08
2.34613e-06
-2.84286e-07
2.33446e-06
-2.91352e-07
2.33476e-06
-1.15274e-09
2.34111e-06
1.71352e-07
2.35197e-06
2.56067e-07
2.35621e-06
2.36794e-07
2.36366e-06
2.46984e-07
2.36575e-06
2.51713e-07
2.36878e-06
2.45286e-07
2.36697e-06
2.31535e-07
2.36501e-06
2.42004e-07
2.52075e-07
2.36261e-06
2.45871e-06
-5.83039e-07
2.50214e-06
1.11087e-06
2.47509e-06
-8.70898e-07
2.42594e-06
-2.01979e-06
2.425e-06
-8.33651e-07
2.46625e-06
5.81765e-07
2.47663e-06
4.02565e-07
2.47654e-06
3.6551e-08
2.45641e-06
-2.64155e-07
2.44601e-06
-2.80952e-07
2.44707e-06
-2.21289e-09
2.4521e-06
1.66329e-07
2.46209e-06
2.46073e-07
2.46515e-06
2.33731e-07
2.47148e-06
2.40662e-07
2.47319e-06
2.50002e-07
2.47533e-06
2.43142e-07
2.4743e-06
2.32569e-07
2.4728e-06
2.435e-07
2.53222e-07
2.47165e-06
2.57525e-06
-5.73998e-07
2.6181e-06
1.06803e-06
2.59327e-06
-8.4607e-07
2.54529e-06
-1.97181e-06
2.53792e-06
-8.26284e-07
2.57488e-06
5.44812e-07
2.58719e-06
3.90255e-07
2.59013e-06
3.36065e-08
2.57285e-06
-2.4687e-07
2.56295e-06
-2.71057e-07
2.56495e-06
-4.20623e-09
2.56937e-06
1.61904e-07
2.57909e-06
2.36349e-07
2.58162e-06
2.31209e-07
2.5869e-06
2.35376e-07
2.58843e-06
2.48475e-07
2.58951e-06
2.42059e-07
2.58878e-06
2.33303e-07
2.58756e-06
2.44723e-07
2.53754e-07
2.58702e-06
2.69776e-06
-5.63928e-07
2.74037e-06
1.02541e-06
2.71661e-06
-8.22311e-07
2.66962e-06
-1.92482e-06
2.65818e-06
-8.14844e-07
2.69232e-06
5.10675e-07
2.7061e-06
3.76476e-07
2.71091e-06
2.87946e-08
2.69562e-06
-2.31584e-07
2.68564e-06
-2.61079e-07
2.68834e-06
-6.89842e-09
2.69242e-06
1.57824e-07
2.70201e-06
2.26758e-07
2.70446e-06
2.2876e-07
2.70886e-06
2.30971e-07
2.71048e-06
2.4686e-07
2.7107e-06
2.41832e-07
2.71004e-06
2.33971e-07
2.70919e-06
2.45567e-07
2.53992e-07
2.70895e-06
2.82642e-06
-5.53081e-07
2.86916e-06
9.82678e-07
2.84565e-06
-7.98802e-07
2.79927e-06
-1.87844e-06
2.78534e-06
-8.00918e-07
2.81773e-06
4.78283e-07
2.83275e-06
3.61458e-07
2.83865e-06
2.28969e-08
2.82483e-06
-2.1777e-07
2.81443e-06
-2.50677e-07
2.81746e-06
-9.93016e-09
2.82123e-06
1.54061e-07
2.83052e-06
2.17466e-07
2.83315e-06
2.26125e-07
2.83681e-06
2.27315e-07
2.83872e-06
2.44948e-07
2.83848e-06
2.42077e-07
2.83782e-06
2.34624e-07
2.8376e-06
2.45789e-07
2.53976e-07
2.83762e-06
2.96146e-06
-5.4165e-07
3.00461e-06
9.39537e-07
2.98083e-06
-7.75026e-07
2.93463e-06
-1.83224e-06
2.91923e-06
-7.85518e-07
2.95062e-06
4.46888e-07
2.96681e-06
3.45272e-07
2.97328e-06
1.64274e-08
2.96056e-06
-2.05055e-07
2.94959e-06
-2.39701e-07
2.95261e-06
-1.29523e-08
2.95606e-06
1.50612e-07
2.96479e-06
2.0874e-07
2.96774e-06
2.23167e-07
2.97079e-06
2.24274e-07
2.97308e-06
2.42649e-07
2.9728e-06
2.42361e-07
2.97218e-06
2.35243e-07
2.97275e-06
2.45219e-07
2.53537e-07
2.97319e-06
3.10312e-06
-5.29769e-07
3.14688e-06
8.9578e-07
3.12256e-06
-7.50707e-07
3.07615e-06
-1.78583e-06
3.05991e-06
-7.69276e-07
3.09079e-06
4.16007e-07
3.10814e-06
3.27922e-07
3.11485e-06
9.7166e-09
3.10294e-06
-1.93141e-07
3.09136e-06
-2.28126e-07
3.09408e-06
-1.56718e-08
3.09728e-06
1.47415e-07
3.10524e-06
2.00782e-07
3.10861e-06
2.198e-07
3.11118e-06
2.21698e-07
3.11385e-06
2.39981e-07
3.11392e-06
2.42285e-07
3.11337e-06
2.35793e-07
3.11474e-06
2.43852e-07
2.52415e-07
3.11586e-06
3.25165e-06
-5.17512e-07
3.29615e-06
8.51281e-07
3.2712e-06
-7.25753e-07
3.22431e-06
-1.73894e-06
3.20764e-06
-7.52605e-07
3.23826e-06
3.85393e-07
3.25672e-06
3.09459e-07
3.26347e-06
2.96468e-09
3.25212e-06
-1.81794e-07
3.24002e-06
-2.16022e-07
3.24224e-06
-1.78961e-08
3.2453e-06
1.44359e-07
3.25239e-06
1.93696e-07
3.25622e-06
2.15964e-07
3.2585e-06
2.1942e-07
3.26148e-06
2.37006e-07
3.26219e-06
2.41573e-07
3.26181e-06
2.36175e-07
3.26376e-06
2.419e-07
2.50397e-07
3.26578e-06
3.40732e-06
-5.049e-07
3.4526e-06
8.06e-07
3.42705e-06
-7.00206e-07
3.37954e-06
-1.69143e-06
3.36275e-06
-7.35807e-07
3.39315e-06
3.54987e-07
3.41259e-06
2.90018e-07
3.41929e-06
-3.73136e-09
3.40834e-06
-1.70846e-07
3.39585e-06
-2.03537e-07
3.3975e-06
-1.95457e-08
3.40055e-06
1.41316e-07
3.40675e-06
1.87495e-07
3.41106e-06
2.11655e-07
3.41322e-06
2.17254e-07
3.41641e-06
2.33824e-07
3.41788e-06
2.40101e-07
3.41781e-06
2.36243e-07
3.42005e-06
2.39659e-07
2.47443e-07
3.42301e-06
3.57042e-06
-4.91914e-07
3.61644e-06
7.59985e-07
3.59044e-06
-6.74205e-07
3.54224e-06
-1.64323e-06
3.52556e-06
-7.19128e-07
3.55569e-06
3.24852e-07
3.5759e-06
2.69814e-07
3.58253e-06
-1.03654e-08
3.5719e-06
-1.60216e-07
3.5592e-06
-1.90836e-07
3.56031e-06
-2.06549e-08
3.56346e-06
1.38164e-07
3.56882e-06
1.82138e-07
3.57356e-06
2.06908e-07
3.57575e-06
2.15067e-07
3.57899e-06
2.30587e-07
3.58122e-06
2.37868e-07
3.58162e-06
2.3584e-07
3.58393e-06
2.37357e-07
2.43754e-07
3.58761e-06
3.7413e-06
-4.78513e-07
3.78793e-06
7.1336e-07
3.76169e-06
-6.47963e-07
3.71274e-06
-1.59428e-06
3.69636e-06
-7.02755e-07
3.72615e-06
2.95065e-07
3.74689e-06
2.49076e-07
3.7535e-06
-1.6976e-08
3.74318e-06
-1.49892e-07
3.73041e-06
-1.78067e-07
3.73106e-06
-2.13102e-08
3.73442e-06
1.34811e-07
3.73898e-06
1.77571e-07
3.74406e-06
2.01835e-07
3.74642e-06
2.127e-07
3.74958e-06
2.27434e-07
3.75245e-06
2.34998e-07
3.75347e-06
2.34814e-07
3.75577e-06
2.35061e-07
2.39708e-07
3.75981e-06
3.92033e-06
-4.64658e-07
3.96739e-06
6.66305e-07
3.94117e-06
-6.21741e-07
3.8914e-06
-1.54451e-06
3.87547e-06
-6.86834e-07
3.90486e-06
2.65678e-07
3.92592e-06
2.28021e-07
3.93256e-06
-2.36193e-08
3.92258e-06
-1.39913e-07
3.90984e-06
-1.65328e-07
3.91014e-06
-2.16081e-08
3.91376e-06
1.31194e-07
3.9176e-06
1.73727e-07
3.92284e-06
1.96599e-07
3.92549e-06
2.10044e-07
3.9285e-06
2.24423e-07
3.93182e-06
2.31682e-07
3.93351e-06
2.33124e-07
3.93592e-06
2.32656e-07
2.35665e-07
3.93996e-06
4.10792e-06
-4.50326e-07
4.15518e-06
6.19046e-07
4.12928e-06
-5.95841e-07
4.0786e-06
-1.49383e-06
4.0632e-06
-6.71436e-07
4.09218e-06
2.36698e-07
4.11337e-06
2.06837e-07
4.1201e-06
-3.03471e-08
4.11053e-06
-1.30345e-07
4.09788e-06
-1.52681e-07
4.09791e-06
-2.16322e-08
4.10182e-06
1.27274e-07
4.10503e-06
1.70522e-07
4.11025e-06
1.91375e-07
4.11328e-06
2.07021e-07
4.11614e-06
2.2156e-07
4.11972e-06
2.28102e-07
4.12201e-06
2.3083e-07
4.12465e-06
2.30021e-07
2.31752e-07
4.12856e-06
4.3045e-06
-4.35522e-07
4.3517e-06
5.71841e-07
4.32645e-06
-5.70585e-07
4.2748e-06
-1.44219e-06
4.25991e-06
-6.5654e-07
4.28851e-06
2.08095e-07
4.30967e-06
1.85682e-07
4.3165e-06
-3.71811e-08
4.30744e-06
-1.21283e-07
4.29493e-06
-1.40171e-07
4.29472e-06
-2.1429e-08
4.29896e-06
1.23042e-07
4.30161e-06
1.67874e-07
4.30667e-06
1.86314e-07
4.31006e-06
2.03631e-07
4.31282e-06
2.18792e-07
4.31651e-06
2.24413e-07
4.31932e-06
2.28019e-07
4.32234e-06
2.27003e-07
2.27953e-07
4.32614e-06
4.51052e-06
-4.20272e-07
4.5574e-06
5.24967e-07
4.53309e-06
-5.46273e-07
4.4805e-06
-1.3896e-06
4.46599e-06
-6.42033e-07
4.49427e-06
1.79816e-07
4.51523e-06
1.64727e-07
4.52217e-06
-4.41206e-08
4.51372e-06
-1.12838e-07
4.50138e-06
-1.27825e-07
4.50097e-06
-2.102e-08
4.50554e-06
1.18474e-07
4.50773e-06
1.65681e-07
4.51247e-06
1.81571e-07
4.51618e-06
1.9992e-07
4.51892e-06
2.16051e-07
4.52257e-06
2.20764e-07
4.52587e-06
2.24723e-07
4.52924e-06
2.23629e-07
2.24042e-07
4.53315e-06
4.72647e-06
-4.04622e-07
4.77275e-06
4.7868e-07
4.7496e-06
-5.23122e-07
4.69621e-06
-1.33621e-06
4.68192e-06
-6.2774e-07
4.70991e-06
1.51824e-07
4.73054e-06
1.44094e-07
4.73754e-06
-5.11157e-08
4.72982e-06
-1.05117e-07
4.71769e-06
-1.15702e-07
4.71707e-06
-2.03946e-08
4.72198e-06
1.13563e-07
4.72382e-06
1.63837e-07
4.72814e-06
1.77261e-07
4.73218e-06
1.95879e-07
4.73483e-06
2.13394e-07
4.73834e-06
2.17258e-07
4.74211e-06
2.20957e-07
4.74584e-06
2.19894e-07
2.19899e-07
4.74998e-06
4.95281e-06
-3.88636e-07
4.99826e-06
4.33233e-07
4.97638e-06
-5.01242e-07
4.92247e-06
-1.28231e-06
4.90818e-06
-6.13442e-07
4.9359e-06
1.24099e-07
4.95612e-06
1.23875e-07
4.96305e-06
-5.80441e-08
4.95614e-06
-9.82075e-08
4.94433e-06
-1.0389e-07
4.94348e-06
-1.95463e-08
4.94868e-06
1.08358e-07
4.95032e-06
1.62196e-07
4.95413e-06
1.73453e-07
4.95844e-06
1.9157e-07
4.96113e-06
2.10702e-07
4.96439e-06
2.14004e-07
4.96854e-06
2.16806e-07
4.97259e-06
2.15842e-07
2.15469e-07
4.97702e-06
5.19006e-06
-3.72379e-07
5.23449e-06
3.88804e-07
5.2138e-06
-4.80556e-07
5.15983e-06
-1.22834e-06
5.14529e-06
-5.98896e-07
5.17278e-06
9.66087e-08
5.19252e-06
1.04134e-07
5.19923e-06
-6.47491e-08
5.19316e-06
-9.21417e-08
5.18177e-06
-9.24956e-08
5.18067e-06
-1.84546e-08
5.18616e-06
1.02869e-07
5.18768e-06
1.60675e-07
5.19095e-06
1.70187e-07
5.19557e-06
1.86951e-07
5.19847e-06
2.07798e-07
5.20137e-06
2.11109e-07
5.2057e-06
2.12474e-07
5.21014e-06
2.11399e-07
2.10864e-07
5.21475e-06
5.43873e-06
-3.55916e-07
5.48202e-06
3.45505e-07
5.46228e-06
-4.60816e-07
5.4088e-06
-1.17485e-06
5.39385e-06
-5.83953e-07
5.42103e-06
6.94288e-08
5.4403e-06
8.48648e-08
5.44662e-06
-7.10652e-08
5.44138e-06
-8.69078e-08
5.43054e-06
-8.16507e-08
5.42918e-06
-1.70975e-08
5.43492e-06
9.7127e-08
5.43648e-06
1.59115e-07
5.43912e-06
1.67552e-07
5.44399e-06
1.82081e-07
5.44736e-06
2.04431e-07
5.44986e-06
2.08605e-07
5.4541e-06
2.08238e-07
5.45902e-06
2.06476e-07
2.0608e-07
5.4638e-06
5.69934e-06
-3.39295e-07
5.74146e-06
3.03385e-07
5.72231e-06
-4.41667e-07
5.66992e-06
-1.12246e-06
5.65444e-06
-5.68474e-07
5.68113e-06
4.27358e-08
5.70005e-06
6.59407e-08
5.70583e-06
-7.68377e-08
5.70136e-06
-8.24371e-08
5.69119e-06
-7.14804e-08
5.68956e-06
-1.54671e-08
5.69553e-06
9.11511e-08
5.69724e-06
1.57411e-07
5.69928e-06
1.6551e-07
5.70426e-06
1.77099e-07
5.70829e-06
2.00397e-07
5.71052e-06
2.06373e-07
5.71434e-06
2.04422e-07
5.71962e-06
2.012e-07
2.00921e-07
5.72478e-06
5.97244e-06
-3.22547e-07
6.01345e-06
2.62381e-07
5.99446e-06
-4.22675e-07
5.94373e-06
-1.07174e-06
5.92768e-06
-5.52424e-07
5.95355e-06
1.68679e-08
5.97236e-06
4.71334e-08
5.9775e-06
-8.19827e-08
5.97365e-06
-7.85795e-08
5.96425e-06
-6.20803e-08
5.96235e-06
-1.35713e-08
5.96855e-06
8.49526e-08
5.97055e-06
1.55415e-07
5.97199e-06
1.64068e-07
5.977e-06
1.72084e-07
5.98176e-06
1.95643e-07
5.984e-06
2.04129e-07
5.98721e-06
2.0121e-07
5.99252e-06
1.95889e-07
1.95247e-07
5.9982e-06
6.25862e-06
-3.05682e-07
6.29863e-06
2.22374e-07
6.27943e-06
-4.03475e-07
6.23076e-06
-1.02307e-06
6.21426e-06
-5.35921e-07
6.23886e-06
-7.7291e-09
6.2577e-06
2.82906e-08
6.2623e-06
-8.65844e-08
6.25888e-06
-7.51545e-08
6.2503e-06
-5.35037e-08
6.24814e-06
-1.14109e-08
6.25456e-06
7.85369e-08
6.25703e-06
1.52943e-07
6.25786e-06
1.63234e-07
6.26261e-06
1.6734e-07
6.26824e-06
1.9001e-07
6.27077e-06
2.01598e-07
6.27338e-06
1.98603e-07
6.2783e-06
1.90964e-07
1.89005e-07
6.28454e-06
6.55851e-06
-2.88719e-07
6.59765e-06
1.83235e-07
6.57794e-06
-3.83765e-07
6.53148e-06
-9.76613e-07
6.51486e-06
-5.19308e-07
6.53773e-06
-3.05938e-08
6.55661e-06
9.41319e-09
6.56085e-06
-9.0827e-08
6.5577e-06
-7.20001e-08
6.54991e-06
-4.57192e-08
6.54754e-06
-9.04381e-09
6.55416e-06
7.19188e-08
6.55729e-06
1.49817e-07
6.55762e-06
1.629e-07
6.5619e-06
1.63061e-07
6.56826e-06
1.83653e-07
6.57143e-06
1.98424e-07
6.57359e-06
1.96441e-07
6.5778e-06
1.86758e-07
1.82493e-07
6.58431e-06
6.87276e-06
-2.71689e-07
6.91115e-06
1.44843e-07
6.89087e-06
-3.63486e-07
6.84634e-06
-9.32076e-07
6.83016e-06
-5.0313e-07
6.85088e-06
-5.13182e-08
6.86964e-06
-9.33949e-09
6.87383e-06
-9.50211e-08
6.87084e-06
-6.90124e-08
6.86376e-06
-3.86322e-08
6.86118e-06
-6.4651e-09
6.86792e-06
6.51789e-08
6.8719e-06
1.45835e-07
6.87188e-06
1.62914e-07
6.87533e-06
1.59616e-07
6.88228e-06
1.767e-07
6.88652e-06
1.9419e-07
6.88846e-06
1.94496e-07
6.89181e-06
1.83409e-07
1.76142e-07
6.89816e-06
7.20205e-06
-2.54604e-07
7.23974e-06
1.07158e-07
7.21911e-06
-3.42857e-07
7.17585e-06
-8.88824e-07
7.16083e-06
-4.88109e-07
7.17916e-06
-6.96412e-08
7.19738e-06
-2.75583e-08
7.20182e-06
-9.94661e-08
7.19904e-06
-6.62339e-08
7.19253e-06
-3.21192e-08
7.1897e-06
-3.63639e-09
7.19645e-06
5.84245e-08
7.20142e-06
1.40874e-07
7.20128e-06
1.63048e-07
7.20374e-06
1.57153e-07
7.21099e-06
1.69456e-07
7.21642e-06
1.88763e-07
7.2186e-06
1.92314e-07
7.22111e-06
1.80895e-07
1.70462e-07
7.22679e-06
7.54716e-06
-2.37543e-07
7.58394e-06
7.03866e-08
7.56345e-06
-3.22372e-07
7.52066e-06
-8.46037e-07
7.50749e-06
-4.74936e-07
7.52339e-06
-8.55351e-08
7.54056e-06
-4.47327e-08
7.54549e-06
-1.04397e-07
7.54303e-06
-6.37715e-08
7.53696e-06
-2.60482e-08
7.53376e-06
-4.35027e-10
7.54033e-06
5.18463e-08
7.54645e-06
1.34761e-07
7.54648e-06
1.63019e-07
7.54789e-06
1.5574e-07
7.55497e-06
1.62374e-07
7.56168e-06
1.82053e-07
7.56451e-06
1.89483e-07
7.5665e-06
1.78905e-07
1.65836e-07
7.57113e-06
7.9089e-06
-2.20633e-07
7.94443e-06
3.48621e-08
7.92473e-06
-3.0268e-07
7.88148e-06
-8.02783e-07
7.87061e-06
-4.64066e-07
7.88443e-06
-9.93559e-08
7.89994e-06
-6.02429e-08
7.90545e-06
-1.09903e-07
7.90346e-06
-6.17804e-08
7.8978e-06
-2.03956e-08
7.89415e-06
3.2183e-09
7.90026e-06
4.57417e-08
7.90739e-06
1.27622e-07
7.90804e-06
1.62371e-07
7.90852e-06
1.55262e-07
7.915e-06
1.55891e-07
7.92284e-06
1.74216e-07
7.92669e-06
1.85632e-07
7.9286e-06
1.76998e-07
1.62298e-07
7.93214e-06
8.28806e-06
-2.04014e-07
8.32191e-06
1.01898e-09
8.30379e-06
-2.8456e-07
8.25924e-06
-7.58236e-07
8.25073e-06
-4.55554e-07
8.2631e-06
-1.11729e-07
8.27645e-06
-7.35879e-08
8.28234e-06
-1.15803e-07
8.28102e-06
-6.0454e-08
8.27581e-06
-1.51882e-08
8.27161e-06
7.41662e-09
8.2769e-06
4.04509e-08
8.28493e-06
1.19597e-07
8.28658e-06
1.60723e-07
8.28645e-06
1.55384e-07
8.29194e-06
1.50407e-07
8.30055e-06
1.65608e-07
8.30567e-06
1.80509e-07
8.30789e-06
1.74775e-07
1.59488e-07
8.3107e-06
8.68554e-06
-1.8789e-07
8.71718e-06
-3.06234e-08
8.70145e-06
-2.68835e-07
8.65518e-06
-7.1196e-07
8.64843e-06
-4.48806e-07
8.66028e-06
-1.23576e-07
8.67101e-06
-8.43158e-08
8.67692e-06
-1.21717e-07
8.6764e-06
-5.99303e-08
8.67166e-06
-1.04521e-08
8.66693e-06
1.21492e-08
8.67103e-06
3.63539e-08
8.6796e-06
1.1102e-07
8.68258e-06
1.57749e-07
8.68245e-06
1.55506e-07
8.68678e-06
1.46079e-07
8.69568e-06
1.56709e-07
8.70226e-06
1.73936e-07
8.70504e-06
1.71995e-07
1.56889e-07
8.70763e-06
9.10217e-06
-1.72445e-07
9.13119e-06
-5.96379e-08
9.11856e-06
-2.56203e-07
9.07055e-06
-6.63951e-07
9.06436e-06
-4.42616e-07
9.07665e-06
-1.35866e-07
9.08468e-06
-9.23482e-08
9.0899e-06
-1.26941e-07
9.09022e-06
-6.02467e-08
9.08605e-06
-6.284e-09
9.0809e-06
1.7296e-08
9.08351e-06
3.37515e-08
9.09235e-06
1.02178e-07
9.09685e-06
1.5325e-07
9.09729e-06
1.55061e-07
9.10059e-06
1.42785e-07
9.10912e-06
1.48178e-07
9.11714e-06
1.65917e-07
9.12065e-06
1.6848e-07
1.5415e-07
9.12339e-06
9.53891e-06
-1.57891e-07
9.56479e-06
-8.55258e-08
9.55586e-06
-2.47273e-07
9.50672e-06
-6.1481e-07
9.49934e-06
-4.35231e-07
9.51267e-06
-1.49198e-07
9.51832e-06
-9.79926e-08
9.52204e-06
-1.30662e-07
9.523e-06
-6.12062e-08
9.51977e-06
-3.05556e-09
9.5146e-06
2.24648e-08
9.51576e-06
3.25922e-08
9.52448e-06
9.3458e-08
9.53044e-06
1.47288e-07
9.53186e-06
1.53636e-07
9.53452e-06
1.40132e-07
9.54202e-06
1.40675e-07
9.55121e-06
1.56726e-07
9.55574e-06
1.63954e-07
1.51239e-07
9.55865e-06
9.9967e-06
-1.44453e-07
1.0019e-05
-1.07847e-07
1.00138e-05
-2.42096e-07
9.96471e-06
-5.65682e-07
9.95456e-06
-4.25076e-07
9.96876e-06
-1.63396e-07
9.97263e-06
-1.01872e-07
9.97433e-06
-1.32357e-07
9.97588e-06
-6.27549e-08
9.97397e-06
-1.15052e-09
9.96917e-06
2.72656e-08
9.96906e-06
3.27052e-08
9.97719e-06
8.53322e-08
9.98445e-06
1.40024e-07
9.98697e-06
1.51117e-07
9.98949e-06
1.37614e-07
9.99568e-06
1.34478e-07
1.00054e-05
1.47044e-07
1.00113e-05
1.58017e-07
1.4818e-07
1.00144e-05
1.04765e-05
-1.32346e-07
1.0495e-05
-1.26317e-07
1.04931e-05
-2.40155e-07
1.04453e-05
-5.17954e-07
1.04314e-05
-4.11174e-07
1.04463e-05
-1.78247e-07
1.04493e-05
-1.04851e-07
1.04484e-05
-1.31471e-07
1.04501e-05
-6.45233e-08
1.04497e-05
-7.525e-10
1.04456e-05
3.13962e-08
1.04446e-05
3.37262e-08
1.04518e-05
7.81365e-08
1.04602e-05
1.31625e-07
1.04637e-05
1.47568e-07
1.04663e-05
1.35016e-07
1.04714e-05
1.29387e-07
1.04808e-05
1.37715e-07
1.04882e-05
1.50612e-07
1.44744e-07
1.04916e-05
1.09794e-05
-1.21709e-07
1.09937e-05
-1.40659e-07
1.09945e-05
-2.40946e-07
1.09497e-05
-4.73136e-07
1.09319e-05
-3.93376e-07
1.09464e-05
-1.92753e-07
1.09496e-05
-1.08082e-07
1.09461e-05
-1.27987e-07
1.0947e-05
-6.53446e-08
1.09481e-05
-1.85828e-09
1.09452e-05
3.42343e-08
1.09436e-05
3.53789e-08
1.09497e-05
7.20275e-08
1.09587e-05
1.22613e-07
1.09632e-05
1.43119e-07
1.09661e-05
1.32108e-07
1.09704e-05
1.25072e-07
1.09788e-05
1.2932e-07
1.09873e-05
1.42125e-07
1.40421e-07
1.09916e-05
1.15064e-05
-1.12708e-07
1.15163e-05
-1.50635e-07
1.15192e-05
-2.43791e-07
1.14787e-05
-4.32644e-07
1.14572e-05
-3.71904e-07
1.14699e-05
-2.0542e-07
1.14748e-05
-1.12983e-07
1.14693e-05
-1.22458e-07
1.1468e-05
-6.41272e-08
1.14701e-05
-3.91569e-09
1.14688e-05
3.55505e-08
1.14672e-05
3.70024e-08
1.1472e-05
6.7214e-08
1.14811e-05
1.13462e-07
1.14864e-05
1.37809e-07
1.14897e-05
1.28843e-07
1.14936e-05
1.21181e-07
1.15009e-05
1.22016e-07
1.15098e-05
1.33261e-07
1.34921e-07
1.15153e-05
1.20585e-05
-1.05341e-07
1.20643e-05
-1.56465e-07
1.20683e-05
-2.47826e-07
1.20333e-05
-3.97637e-07
1.20088e-05
-3.47352e-07
1.20181e-05
-2.14759e-07
1.2025e-05
-1.19839e-07
1.20193e-05
-1.16769e-07
1.20155e-05
-6.03502e-08
1.20171e-05
-5.502e-09
1.20171e-05
3.5506e-08
1.20161e-05
3.80338e-08
1.20199e-05
6.34487e-08
1.20288e-05
1.04547e-07
1.20348e-05
1.31783e-07
1.20384e-05
1.25246e-07
1.20421e-05
1.17459e-07
1.20485e-05
1.15633e-07
1.2057e-05
1.24711e-07
1.28314e-07
1.20637e-05
1.26368e-05
-9.955e-08
1.26389e-05
-1.58607e-07
1.26432e-05
-2.52108e-07
1.26143e-05
-3.68675e-07
1.25876e-05
-3.20731e-07
1.25926e-05
-2.19742e-07
1.26007e-05
-1.27866e-07
1.25965e-05
-1.1261e-07
1.25905e-05
-5.43304e-08
1.25906e-05
-5.60095e-09
1.25916e-05
3.44525e-08
1.25915e-05
3.81864e-08
1.25945e-05
6.04037e-08
1.26028e-05
9.6216e-08
1.26094e-05
1.25222e-07
1.26134e-05
1.21269e-07
1.2617e-05
1.13828e-07
1.26226e-05
1.10035e-07
1.26306e-05
1.16761e-07
1.21016e-07
1.26379e-05
1.32425e-05
-9.51565e-08
1.32418e-05
-1.57847e-07
1.3245e-05
-2.55355e-07
1.32222e-05
-3.45823e-07
1.31952e-05
-2.9374e-07
1.31951e-05
-2.19616e-07
1.32031e-05
-1.35943e-07
1.32016e-05
-1.11065e-07
1.31943e-05
-4.70497e-08
1.31925e-05
-3.77773e-09
1.31936e-05
3.32934e-08
1.31943e-05
3.75811e-08
1.3197e-05
5.76565e-08
1.32048e-05
8.84168e-08
1.32117e-05
1.18277e-07
1.3216e-05
1.1697e-07
1.32197e-05
1.10168e-07
1.32248e-05
1.04983e-07
1.3232e-05
1.09547e-07
1.1354e-07
1.32394e-05
1.38769e-05
-9.19201e-08
1.38745e-05
-1.55407e-07
1.38754e-05
-2.56287e-07
1.38579e-05
-3.28273e-07
1.38321e-05
-2.67992e-07
1.3827e-05
-2.14472e-07
1.38336e-05
-1.42563e-07
1.38347e-05
-1.12196e-07
1.38279e-05
-4.02373e-08
1.38242e-05
-4.37287e-11
1.38246e-05
3.28281e-08
1.3826e-05
3.62615e-08
1.38286e-05
5.5074e-08
1.38359e-05
8.1115e-08
1.3843e-05
1.11127e-07
1.38476e-05
1.12377e-07
1.38513e-05
1.06461e-07
1.3856e-05
1.00296e-07
1.38625e-05
1.03046e-07
1.0626e-07
1.38698e-05
1.45412e-05
-8.94203e-08
1.45377e-05
-1.51968e-07
1.45352e-05
-2.53742e-07
1.45226e-05
-3.15655e-07
1.44997e-05
-2.45113e-07
1.44902e-05
-2.04977e-07
1.44931e-05
-1.45434e-07
1.44961e-05
-1.15259e-07
1.44917e-05
-3.58565e-08
1.4487e-05
4.66716e-09
1.44864e-05
3.34341e-08
1.44879e-05
3.48337e-08
1.44905e-05
5.24622e-08
1.44973e-05
7.43016e-08
1.45046e-05
1.03761e-07
1.45095e-05
1.07488e-07
1.45133e-05
1.02712e-07
1.45177e-05
9.58715e-08
1.45237e-05
9.70649e-08
9.94064e-08
1.45305e-05
1.52367e-05
-8.72846e-08
1.52284e-05
-1.43634e-07
1.52236e-05
-2.48977e-07
1.52178e-05
-3.09797e-07
1.51993e-05
-2.26623e-07
1.51853e-05
-1.90963e-07
1.51831e-05
-1.43278e-07
1.51873e-05
-1.19391e-07
1.51867e-05
-3.52699e-08
1.51824e-05
8.98902e-09
1.51805e-05
3.52876e-08
1.51816e-05
3.37524e-08
1.51842e-05
4.98568e-08
1.51905e-05
6.80258e-08
1.5198e-05
9.62564e-08
1.52032e-05
1.02224e-07
1.5207e-05
9.89483e-08
1.52111e-05
9.17568e-08
1.52166e-05
9.15721e-08
9.29167e-08
1.52231e-05
1.59656e-05
-8.55672e-08
1.59715e-05
-1.4947e-07
1.59656e-05
-2.43101e-07
1.59532e-05
-2.97468e-07
1.5931e-05
-2.04359e-07
1.59129e-05
-1.72854e-07
1.59064e-05
-1.36823e-07
1.59101e-05
-1.23072e-07
1.59137e-05
-3.88437e-08
1.59113e-05
1.13246e-08
1.59084e-05
3.82721e-08
1.59087e-05
3.3451e-08
1.59111e-05
4.73755e-08
1.5917e-05
6.21945e-08
1.59245e-05
8.87064e-08
1.59303e-05
9.64775e-08
1.59341e-05
9.50775e-08
1.5938e-05
8.78998e-08
1.5943e-05
8.6547e-08
8.67562e-08
1.59492e-05
1.67277e-05
-8.26252e-08
1.67163e-05
-1.38136e-07
1.67039e-05
-2.30646e-07
1.67004e-05
-2.93985e-07
1.66916e-05
-1.95542e-07
1.66773e-05
-1.58535e-07
1.66673e-05
-1.26826e-07
1.66675e-05
-1.23336e-07
1.66739e-05
-4.51777e-08
1.66749e-05
1.0253e-08
1.66717e-05
4.15048e-08
1.66711e-05
3.40304e-08
1.66731e-05
4.54081e-08
1.66785e-05
5.68098e-08
1.66859e-05
8.1282e-08
1.6692e-05
9.03448e-08
1.66962e-05
9.08743e-08
1.67e-05
8.41633e-08
1.67045e-05
8.20189e-08
8.09801e-08
1.67103e-05
1.75272e-05
-7.94537e-08
1.75289e-05
-1.39817e-07
1.75105e-05
-2.12298e-07
1.74968e-05
-2.80276e-07
1.74897e-05
-1.88398e-07
1.74783e-05
-1.47186e-07
1.74669e-05
-1.15391e-07
1.74631e-05
-1.19564e-07
1.74691e-05
-5.11395e-08
1.74738e-05
5.52401e-09
1.74719e-05
4.34578e-08
1.74704e-05
3.55038e-08
1.74718e-05
4.39455e-08
1.74766e-05
5.20329e-08
1.74837e-05
7.41567e-08
1.74902e-05
8.39102e-08
1.74947e-05
8.63033e-08
1.74986e-05
8.03469e-08
1.75027e-05
7.79231e-08
7.56557e-08
1.7508e-05
1.83641e-05
-7.52532e-08
1.83575e-05
-1.33207e-07
1.83418e-05
-1.96607e-07
1.83301e-05
-2.68535e-07
1.83262e-05
-1.84453e-07
1.83178e-05
-1.38796e-07
1.83056e-05
-1.03267e-07
1.82987e-05
-1.12663e-07
1.83025e-05
-5.48547e-08
1.83097e-05
-1.74726e-09
1.831e-05
4.32182e-08
1.83081e-05
3.73317e-08
1.8309e-05
4.30573e-08
1.8313e-05
4.80624e-08
1.83197e-05
6.74263e-08
1.83264e-05
7.72695e-08
1.83311e-05
8.15336e-08
1.83352e-05
7.62836e-08
1.83391e-05
7.40584e-08
7.08059e-08
1.83439e-05
1.92416e-05
-7.04899e-08
1.92386e-05
-1.30215e-07
1.92211e-05
-1.79077e-07
1.92061e-05