/*--------------------------------*- C++ -*----------------------------------*\
| =========                 |                                                 |
| \\      /  F ield         | OpenFOAM: The Open Source CFD Toolbox           |
|  \\    /   O peration     | Version:  v1812                                 |
|   \\  /    A nd           | Web:      www.OpenFOAM.com                      |
|    \\/     M anipulation  |                                                 |
\*---------------------------------------------------------------------------*/
FoamFile
{
    version     2.0;
    format      ascii;
    class       volVectorField;
    location    "10.1";
    object      U;
}
// * * * * * * * * * * * * * * * * * * * * * * * * * * * * * * * * * * * * * //

dimensions      [0 1 -1 0 0 0 0];


internalField   nonuniform List<vector> 
9600
(
(0.643053 -0.00304156 0)
(1.37321 0.0127685 0)
(0.473515 -0.020337 0)
(1.39672 -0.0159691 0)
(0.881664 0.00193039 0)
(1.28127 0.0149269 0)
(0.6832 -0.000561303 0)
(1.23429 -0.00747904 0)
(0.740084 -0.0132443 0)
(1.23693 -0.00580854 0)
(0.798513 -0.00122181 0)
(1.19348 0.00781119 0)
(0.815669 0.00929622 0)
(1.18084 0.0134032 0)
(0.859323 0.00829014 0)
(1.14455 0.0109411 0)
(0.875869 0.00716456 0)
(1.1271 0.00626668 0)
(0.86464 0.00376719 0)
(1.12171 0.00256242 0)
(0.654919 -0.00342036 0)
(1.36421 0.0142709 0)
(0.526267 -0.0211151 0)
(1.37278 -0.0193899 0)
(0.890836 0.00220811 0)
(1.27115 0.0169981 0)
(0.729053 -0.000417703 0)
(1.2196 -0.00772193 0)
(0.779715 -0.0138348 0)
(1.2244 -0.00613675 0)
(0.827368 -0.00101336 0)
(1.17538 0.00804394 0)
(0.849471 0.00919118 0)
(1.14823 0.0128045 0)
(0.91124 0.00883169 0)
(1.09465 0.0106395 0)
(0.948896 0.00772053 0)
(1.05331 0.00609545 0)
(0.969135 0.00474327 0)
(1.01082 0.00238662 0)
(0.679233 -0.00375542 0)
(1.34426 0.0156067 0)
(0.600033 -0.0215779 0)
(1.32386 -0.0217267 0)
(0.912153 0.00287338 0)
(1.25074 0.0190429 0)
(0.803899 -0.000228853 0)
(1.19078 -0.00792024 0)
(0.842783 -0.0142957 0)
(1.19306 -0.00636404 0)
(0.885371 -0.000522835 0)
(1.13583 0.00802096 0)
(0.910461 0.00934016 0)
(1.0962 0.0118611 0)
(0.973931 0.00979953 0)
(1.04765 0.0100197 0)
(0.999874 0.00849658 0)
(1.02128 0.00577932 0)
(1.00335 0.00566698 0)
(1.00153 0.00310265 0)
(0.716029 -0.00408857 0)
(1.31153 0.0163892 0)
(0.689021 -0.0216874 0)
(1.25084 -0.0237476 0)
(0.943396 0.00315111 0)
(1.22281 0.0202296 0)
(0.892738 0.000214812 0)
(1.15235 -0.00807539 0)
(0.912308 -0.014537 0)
(1.14764 -0.00670051 0)
(0.951278 0.000193546 0)
(1.09148 0.00779944 0)
(0.96726 0.00982454 0)
(1.05584 0.0109342 0)
(1.01257 0.0105025 0)
(1.03136 0.0096925 0)
(1.01969 0.00890097 0)
(1.02184 0.00580544 0)
(1.01366 0.00625087 0)
(1.01045 0.00396885 0)
(0.763568 -0.004442 0)
(1.26628 0.0167555 0)
(0.779932 -0.0212751 0)
(1.16247 -0.0255285 0)
(0.977487 0.00289941 0)
(1.19264 0.0207413 0)
(0.977822 0.000947696 0)
(1.11545 -0.00809362 0)
(0.969154 -0.0145402 0)
(1.1018 -0.00712895 0)
(1.00134 0.000917899 0)
(1.06052 0.00771109 0)
(1.00365 0.0102892 0)
(1.03806 0.0102577 0)
(1.03002 0.0107653 0)
(1.0337 0.00966114 0)
(1.03017 0.0091002 0)
(1.02921 0.00593859 0)
(1.02297 0.00675228 0)
(1.01835 0.00469171 0)
(0.817327 -0.00478341 0)
(1.21235 0.0167852 0)
(0.859305 -0.0203916 0)
(1.07425 -0.0270126 0)
(1.00577 0.00212907 0)
(1.1669 0.0207161 0)
(1.04538 0.0018668 0)
(1.08956 -0.00778856 0)
(1.00398 -0.0143208 0)
(1.06588 -0.00751382 0)
(1.02739 0.00144689 0)
(1.04609 0.00779533 0)
(1.02287 0.0105556 0)
(1.03532 0.00984076 0)
(1.03837 0.0107512 0)
(1.04065 0.00966165 0)
(1.03923 0.00925979 0)
(1.03671 0.00612735 0)
(1.03113 0.00719649 0)
(1.02533 0.00549219 0)
(0.870482 -0.00509093 0)
(1.15699 0.0165677 0)
(0.919585 -0.0191396 0)
(1.00294 -0.0281947 0)
(1.02214 0.000779757 0)
(1.14886 0.0202173 0)
(1.09027 0.00287364 0)
(1.07648 -0.00707202 0)
(1.01943 -0.0138774 0)
(1.04129 -0.00781419 0)
(1.0344 0.00167019 0)
(1.04071 0.00788062 0)
(1.03273 0.0106566 0)
(1.03832 0.00956968 0)
(1.04381 0.0105926 0)
(1.04682 0.00960697 0)
(1.04647 0.00939678 0)
(1.04284 0.00639982 0)
(1.03687 0.00763779 0)
(1.03032 0.00640263 0)
(0.916114 -0.00535698 0)
(1.10803 0.0162384 0)
(0.96079 -0.0177062 0)
(0.958748 -0.0290726 0)
(1.02528 -0.00113511 0)
(1.13586 0.0193278 0)
(1.11373 0.0038729 0)
(1.07156 -0.00599247 0)
(1.02334 -0.013188 0)
(1.02436 -0.00802866 0)
(1.03059 0.00160516 0)
(1.03702 0.00781493 0)
(1.03746 0.0106113 0)
(1.04181 0.00933365 0)
(1.04747 0.0103758 0)
(1.05074 0.00952539 0)
(1.05077 0.00950755 0)
(1.04636 0.00677524 0)
(1.0398 0.00812628 0)
(1.0326 0.00738594 0)
(0.949796 -0.0055806 0)
(1.07054 0.0158934 0)
(0.987349 -0.0162726 0)
(0.941297 -0.0296312 0)
(1.01818 -0.00338074 0)
(1.12226 0.018139 0)
(1.1195 0.00481603 0)
(1.06865 -0.00468195 0)
(1.02235 -0.0122604 0)
(1.01187 -0.00812561 0)
(1.02206 0.00134249 0)
(1.03161 0.00752964 0)
(1.03804 0.0103977 0)
(1.04305 0.00908181 0)
(1.04859 0.0101504 0)
(1.05162 0.0094518 0)
(1.05158 0.00961514 0)
(1.0466 0.00725063 0)
(1.03976 0.00865721 0)
(1.03227 0.00839597 0)
(0.97088 -0.00576236 0)
(1.04535 0.0155572 0)
(1.00411 -0.0149685 0)
(0.942449 -0.0298586 0)
(1.00585 -0.0056419 0)
(1.1042 0.0167616 0)
(1.1119 0.00564869 0)
(1.06369 -0.00331638 0)
(1.01985 -0.011156 0)
(1.00269 -0.00809026 0)
(1.01238 0.000971178 0)
(1.024 0.00703701 0)
(1.03449 0.0100187 0)
(1.0406 0.00879845 0)
(1.04613 0.00991978 0)
(1.04889 0.0094047 0)
(1.04872 0.00973393 0)
(1.04357 0.00779129 0)
(1.03694 0.00919692 0)
(1.02975 0.00939041 0)
(0.981905 -0.00589977 0)
(1.03003 0.0152058 0)
(1.01443 -0.0138616 0)
(0.952564 -0.029779 0)
(0.993048 -0.0076314 0)
(1.08168 0.0153218 0)
(1.09557 0.00628705 0)
(1.05556 -0.00206935 0)
(1.01685 -0.00998311 0)
(0.996745 -0.00792144 0)
(1.0037 0.000587408 0)
(1.01517 0.00642525 0)
(1.02743 0.00951763 0)
(1.03426 0.00848104 0)
(1.03987 0.00967024 0)
(1.04257 0.00938113 0)
(1.04259 0.00984335 0)
(1.03785 0.00834377 0)
(1.032 0.00971573 0)
(1.02572 0.0103207 0)
(0.986758 -0.00599047 0)
(1.021 0.0148064 0)
(1.0202 -0.0129622 0)
(0.964721 -0.0294566 0)
(0.982801 -0.00920107 0)
(1.05757 0.0139285 0)
(1.07521 0.00672398 0)
(1.04512 -0.00104828 0)
(1.01345 -0.00885469 0)
(0.993686 -0.0076426 0)
(0.997293 0.000278902 0)
(1.00671 0.00581067 0)
(1.01846 0.00896194 0)
(1.02527 0.00814871 0)
(1.03085 0.00939412 0)
(1.03368 0.00935823 0)
(1.03427 0.00990602 0)
(1.03049 0.00885048 0)
(1.02591 0.0101826 0)
(1.02101 0.0111229 0)
(0.988849 -0.00603653 0)
(1.01523 0.0143534 0)
(1.02265 -0.0122487 0)
(0.975412 -0.0289691 0)
(0.976196 -0.0103516 0)
(1.03531 0.0126659 0)
(1.05493 0.00697357 0)
(1.0341 -0.00029487 0)
(1.00971 -0.00785719 0)
(0.992617 -0.00730566 0)
(0.993495 8.75789e-05 0)
(1.00003 0.00528419 0)
(1.00972 0.00842473 0)
(1.01575 0.00783656 0)
(1.02107 0.0090922 0)
(1.024 0.00931382 0)
(1.0253 0.00989776 0)
(1.02273 0.00925814 0)
(1.01968 0.0105626 0)
(1.01631 0.0117456 0)
(0.990209 -0.00604389 0)
(1.01097 0.0138653 0)
(1.02283 -0.0116825 0)
(0.983506 -0.0283868 0)
(0.972922 -0.0111124 0)
(1.01724 0.0115736 0)
(1.03751 0.00707244 0)
(1.02406 0.000206263 0)
(1.00596 -0.00702973 0)
(0.992475 -0.0069652 0)
(0.991856 3.2381e-06 0)
(0.995768 0.0048887 0)
(1.00292 0.00795741 0)
(1.00772 0.00757313 0)
(1.01253 0.00877751 0)
(1.01536 0.00924388 0)
(1.0172 0.00982204 0)
(1.01571 0.00953533 0)
(1.01405 0.0108393 0)
(1.0121 0.0121801 0)
(0.991594 -0.00601899 0)
(1.0075 0.0133647 0)
(1.02175 -0.011225 0)
(0.989096 -0.0277593 0)
(0.972011 -0.0115534 0)
(1.00404 0.0106491 0)
(1.02417 0.0070551 0)
(1.01595 0.000500217 0)
(1.00262 -0.00636744 0)
(0.992516 -0.00665706 0)
(0.991546 -1.64429e-05 0)
(0.993684 0.00461853 0)
(0.998702 0.00757073 0)
(1.00224 0.00737117 0)
(1.00642 0.0084745 0)
(1.00888 0.00915925 0)
(1.01093 0.00970676 0)
(1.01011 0.00968994 0)
(1.00947 0.0110262 0)
(1.0086 0.0124561 0)
(0.993041 -0.00596892 0)
(1.00467 0.0128688 0)
(1.02016 -0.0108447 0)
(0.992728 -0.0271169 0)
(0.972447 -0.0117565 0)
(0.995187 0.00986738 0)
(1.01485 0.00696096 0)
(1.01003 0.00063978 0)
(1 -0.00583819 0)
(0.992465 -0.00639091 0)
(0.991808 -1.89181e-05 0)
(0.993041 0.00443746 0)
(0.996697 0.00724484 0)
(0.999249 0.00722921 0)
(1.00284 0.00820505 0)
(1.00479 0.00907384 0)
(1.00672 0.00958853 0)
(1.00615 0.00976328 0)
(1.00608 0.0111523 0)
(1.00588 0.0126189 0)
(0.994371 -0.00589921 0)
(1.00248 0.012384 0)
(1.01851 -0.0105137 0)
(0.994987 -0.0264792 0)
(0.973469 -0.0117935 0)
(0.989651 0.00919904 0)
(1.00876 0.00681284 0)
(1.00606 0.000674359 0)
(0.998187 -0.00540608 0)
(0.992363 -0.00615733 0)
(0.992191 -3.54287e-05 0)
(0.993073 0.00430537 0)
(0.996041 0.0069526 0)
(0.997961 0.00713126 0)
(1.00112 0.00797989 0)
(1.00257 0.0089946 0)
(1.00423 0.00949758 0)
(1.00364 0.00980086 0)
(1.00376 0.0112403 0)
(1.00392 0.0127111 0)
(0.995447 -0.0058143 0)
(1.00093 0.0119096 0)
(1.01702 -0.0102125 0)
(0.996343 -0.0258541 0)
(0.974633 -0.0117231 0)
(0.98644 0.00861066 0)
(1.00495 0.00662186 0)
(1.00358 0.000642712 0)
(0.997062 -0.00504265 0)
(0.992332 -0.00594 0)
(0.992536 -7.58142e-05 0)
(0.993283 0.00419413 0)
(0.99594 0.00667444 0)
(0.99751 0.00705324 0)
(1.00041 0.00780014 0)
(1.0015 0.00892055 0)
(1.00286 0.00944657 0)
(1.00216 0.00983169 0)
(1.00228 0.0113013 0)
(1.00261 0.0127638 0)
(0.99623 -0.00571776 0)
(0.999944 0.0114412 0)
(1.01572 -0.00992718 0)
(0.997136 -0.0252416 0)
(0.975711 -0.0115842 0)
(0.98477 0.00807242 0)
(1.00264 0.00640544 0)
(1.00213 0.000569873 0)
(0.996424 -0.00472583 0)
(0.992443 -0.0057251 0)
(0.992837 -0.000136904 0)
(0.993465 0.00409087 0)
(0.995921 0.00640278 0)
(0.997297 0.00697588 0)
(1.00006 0.00765865 0)
(1.00094 0.00884972 0)
(1.00207 0.00942795 0)
(1.0013 0.00986808 0)
(1.00138 0.0113438 0)
(1.00181 0.0127952 0)
(0.996742 -0.00561204 0)
(0.999408 0.0109734 0)
(1.0146 -0.00964665 0)
(0.997609 -0.0246396 0)
(0.976604 -0.0113983 0)
(0.984071 0.00756756 0)
(1.00125 0.00616583 0)
(1.00136 0.000470563 0)
(0.996085 -0.00444146 0)
(0.992685 -0.00550358 0)
(0.993123 -0.000207092 0)
(0.993584 0.00399403 0)
(0.995811 0.00614036 0)
(0.997051 0.00689007 0)
(0.999722 0.0075426 0)
(1.00054 0.00878049 0)
(1.00149 0.00942561 0)
(1.00076 0.00990693 0)
(1.00083 0.0113703 0)
(1.00137 0.0128127 0)
(0.997023 -0.00549962 0)
(0.999221 0.010503 0)
(1.0136 -0.00936571 0)
(0.997931 -0.0240404 0)
(0.977298 -0.0111854 0)
(0.983951 0.00708297 0)
(1.00039 0.00590588 0)
(1.00102 0.000359235 0)
(0.995919 -0.0041825 0)
(0.993011 -0.00527185 0)
(0.993403 -0.000280638 0)
(0.993656 0.0039032 0)
(0.995596 0.00589418 0)
(0.996721 0.00679351 0)
(0.999314 0.0074411 0)
(1.00016 0.00870828 0)
(1.00099 0.00942884 0)
(1.00039 0.00993861 0)
(1.0005 0.0113696 0)
(1.00119 0.012815 0)
(0.99711 -0.00538218 0)
(0.999291 0.0100269 0)
(1.01268 -0.00907843 0)
(0.998205 -0.0234407 0)
(0.97784 -0.0109596 0)
(0.984172 0.00660994 0)
(0.999863 0.00562523 0)
(1.00094 0.00024151 0)
(0.995851 -0.00394423 0)
(0.993367 -0.00502802 0)
(0.993673 -0.000352554 0)
(0.993702 0.00381493 0)
(0.995324 0.00567037 0)
(0.996357 0.00668655 0)
(0.99888 0.00735059 0)
(0.999818 0.00862484 0)
(1.00057 0.00942977 0)
(1.00014 0.00996274 0)
(1.00034 0.011328 0)
(1.00119 0.0127955 0)
(0.997045 -0.0052606 0)
(0.999529 0.00954327 0)
(1.01182 -0.00878337 0)
(0.998474 -0.0228366 0)
(0.978313 -0.0107276 0)
(0.984592 0.00614251 0)
(0.999527 0.00532289 0)
(1.00099 0.000121303 0)
(0.995831 -0.00371741 0)
(0.993706 -0.00477035 0)
(0.993939 -0.000409852 0)
(0.993747 0.00372633 0)
(0.995059 0.00547108 0)
(0.996026 0.00657096 0)
(0.998494 0.00726873 0)
(0.999558 0.00852655 0)
(1.00025 0.00941342 0)
(1.00002 0.00998324 0)
(1.00032 0.0112454 0)
(1.00133 0.0127369 0)
(0.996881 -0.00513559 0)
(0.999849 0.00905136 0)
(1.011 -0.00848199 0)
(0.998735 -0.0222239 0)
(0.978798 -0.0104926 0)
(0.985124 0.00567755 0)
(0.999305 0.00500328 0)
(1.00104 2.07636e-07 0)
(0.995831 -0.00349737 0)
(0.994001 -0.00450258 0)
(0.994215 -0.000447948 0)
(0.993822 0.00363879 0)
(0.994856 0.00529367 0)
(0.995782 0.00644837 0)
(0.998209 0.00718971 0)
(0.9994 0.00841799 0)
(1.00007 0.00937082 0)
(0.999996 0.00999413 0)
(1.00041 0.011134 0)
(1.00154 0.0126163 0)
(0.996681 -0.0050068 0)
(1.00017 0.00855122 0)
(1.01023 -0.00817536 0)
(0.99896 -0.021603 0)
(0.979342 -0.0102575 0)
(0.985704 0.00521273 0)
(0.99915 0.00467189 0)
(1.00104 -0.000120612 0)
(0.995837 -0.0032861 0)
(0.994246 -0.00423432 0)
(0.99451 -0.000470921 0)
(0.99395 0.00355402 0)
(0.994741 0.00513479 0)
(0.995645 0.00631785 0)
(0.998042 0.00711111 0)
(0.999336 0.00830368 0)
(0.999989 0.0093065 0)
(1.00003 0.00999154 0)
(1.00057 0.0110078 0)
(1.00178 0.0124254 0)
(0.996502 -0.00487394 0)
(1.00042 0.00804356 0)
(1.00951 -0.00786307 0)
(0.999123 -0.0209734 0)
(0.979958 -0.0100249 0)
(0.986276 0.00475288 0)
(0.999043 0.00433009 0)
(1.00097 -0.000238171 0)
(0.995845 -0.0030766 0)
(0.994451 -0.00396643 0)
(0.994826 -0.000484742 0)
(0.994139 0.00347006 0)
(0.994716 0.00499264 0)
(0.995611 0.00617461 0)
(0.997983 0.00703325 0)
(0.999346 0.00818554 0)
(0.999996 0.00921774 0)
(1.00009 0.00997936 0)
(1.00074 0.0108869 0)
(1.00202 0.0121837 0)
(0.996383 -0.00473729 0)
(1.00058 0.00752973 0)
(1.00887 -0.00755103 0)
(0.999212 -0.0203304 0)
(0.980637 -0.00979889 0)
(0.986815 0.00429979 0)
(0.99897 0.00397897 0)
(1.00083 -0.000358564 0)
(0.995852 -0.00286967 0)
(0.99463 -0.00369834 0)
(0.995154 -0.000494467 0)
(0.994382 0.00338561 0)
(0.994757 0.00486726 0)
(0.995656 0.00601561 0)
(0.998009 0.00695107 0)
(0.999407 0.00806822 0)
(1.00006 0.0090919 0)
(1.00016 0.00994445 0)
(1.0009 0.0107914 0)
(1.00222 0.0119342 0)
(0.996342 -0.00459537 0)
(1.00064 0.00701311 0)
(1.0083 -0.00724458 0)
(0.999239 -0.0196757 0)
(0.981352 -0.0095814 0)
(0.987312 0.00385378 0)
(0.998916 0.00362242 0)
(1.00066 -0.000484238 0)
(0.995852 -0.00266906 0)
(0.994793 -0.00342756 0)
(0.995482 -0.000501387 0)
(0.994669 0.003302 0)
(0.99484 0.00476644 0)
(0.995755 0.00584875 0)
(0.998093 0.00685801 0)
(0.999498 0.00796319 0)
(1.00017 0.00893975 0)
(1.00023 0.0098584 0)
(1.00106 0.0107063 0)
(1.00237 0.0117221 0)
(0.996376 -0.00444825 0)
(1.00062 0.00649592 0)
(1.0078 -0.00694226 0)
(0.999233 -0.019012 0)
(0.982083 -0.00936792 0)
(0.987771 0.00341118 0)
(0.998865 0.00326906 0)
(1.00046 -0.000609744 0)
(0.995835 -0.00247916 0)
(0.994947 -0.00315245 0)
(0.995799 -0.000502937 0)
(0.994982 0.00321094 0)
(0.994946 0.00469323 0)
(0.995884 0.00568722 0)
(0.998216 0.00674919 0)
(0.99961 0.0078709 0)
(1.0003 0.00879554 0)
(1.00032 0.00972673 0)
(1.0012 0.0105861 0)
(1.00247 0.0115538 0)
(0.996469 -0.00429719 0)
(1.00054 0.00598147 0)
(1.00734 -0.00664992 0)
(0.999223 -0.0183348 0)
(0.982817 -0.00915879 0)
(0.988205 0.00297143 0)
(0.9988 0.00291789 0)
(1.00026 -0.000740675 0)
(0.995794 -0.00230431 0)
(0.995088 -0.00288622 0)
(0.996096 -0.000498013 0)
(0.99531 0.00310138 0)
(0.995063 0.00463716 0)
(0.996025 0.00553981 0)
(0.998361 0.00662662 0)
(0.999736 0.00777664 0)
(1.00044 0.0086687 0)
(1.00042 0.00958821 0)
(1.00135 0.0104162 0)
(1.00256 0.011387 0)
(0.996598 -0.0041421 0)
(1.00043 0.00547486 0)
(1.0069 -0.00637086 0)
(0.999229 -0.0176465 0)
(0.983545 -0.00895749 0)
(0.988628 0.00254326 0)
(0.998713 0.00257116 0)
(1.00007 -0.000874776 0)
(0.995728 -0.00214343 0)
(0.995215 -0.00262233 0)
(0.996374 -0.000489189 0)
(0.995641 0.00297644 0)
(0.995183 0.00458744 0)
(0.996167 0.00540761 0)
(0.998513 0.00649582 0)
(0.999875 0.0076764 0)
(1.00058 0.00854074 0)
(1.00052 0.00945901 0)
(1.0015 0.0102276 0)
(1.00264 0.0111785 0)
(0.996745 -0.00398262 0)
(1.00033 0.00497477 0)
(1.00645 -0.0061034 0)
(0.999261 -0.0169501 0)
(0.98427 -0.00875789 0)
(0.989052 0.00211867 0)
(0.998604 0.0022362 0)
(0.99988 -0.00100325 0)
(0.995646 -0.00199941 0)
(0.995317 -0.00235979 0)
(0.996635 -0.000477279 0)
(0.995963 0.00284242 0)
(0.995302 0.0045399 0)
(0.9963 0.00529057 0)
(0.99867 0.00635746 0)
(1.00002 0.00757687 0)
(1.00072 0.008403 0)
(1.00063 0.00931733 0)
(1.00163 0.0100544 0)
(1.00273 0.0109335 0)
(0.996892 -0.00382102 0)
(1.00024 0.00448602 0)
(1.00599 -0.00585443 0)
(0.999309 -0.0162455 0)
(0.984996 -0.00855396 0)
(0.989475 0.00169016 0)
(0.998489 0.00190654 0)
(0.999694 -0.00112678 0)
(0.995555 -0.00187307 0)
(0.995395 -0.00210362 0)
(0.996874 -0.00045494 0)
(0.996277 0.00270172 0)
(0.995422 0.00449657 0)
(0.996418 0.00519106 0)
(0.998825 0.00621319 0)
(1.00017 0.00748066 0)
(1.00086 0.00827037 0)
(1.00074 0.00913802 0)
(1.00176 0.00988902 0)
(1.00281 0.0106914 0)
(0.997036 -0.00365684 0)
(1.00017 0.00400989 0)
(1.00552 -0.00561977 0)
(0.999358 -0.0155441 0)
(0.985727 -0.00834321 0)
(0.989911 0.00126285 0)
(0.998368 0.00157936 0)
(0.99951 -0.00124322 0)
(0.995469 -0.00176656 0)
(0.995452 -0.00186024 0)
(0.997095 -0.000423963 0)
(0.996574 0.00255184 0)
(0.995545 0.00445309 0)
(0.996516 0.00510489 0)
(0.998978 0.00606358 0)
(1.00031 0.00738126 0)
(1.00097 0.00816512 0)
(1.00085 0.00893409 0)
(1.00187 0.00969381 0)
(1.0029 0.0104721 0)
(0.997181 -0.00349007 0)
(1.00012 0.00354123 0)
(1.00503 -0.0053904 0)
(0.999404 -0.0148571 0)
(0.986459 -0.00812519 0)
(0.990355 0.000844378 0)
(0.998254 0.00125871 0)
(0.999334 -0.00135402 0)
(0.995393 -0.00167622 0)
(0.995493 -0.00163545 0)
(0.9973 -0.00038735 0)
(0.996868 0.00239339 0)
(0.995666 0.00440333 0)
(0.996591 0.00503029 0)
(0.999121 0.00590551 0)
(1.00046 0.00726392 0)
(1.00106 0.00808801 0)
(1.00094 0.00874349 0)
(1.00199 0.00945144 0)
(1.00298 0.0102536 0)
(0.99732 -0.00332387 0)
(1.00008 0.00308976 0)
(1.00454 -0.00516601 0)
(0.999442 -0.0141908 0)
(0.987187 -0.00789676 0)
(0.990798 0.000439927 0)
(0.998148 0.000944285 0)
(0.999169 -0.00144945 0)
(0.99533 -0.00159695 0)
(0.99552 -0.00142568 0)
(0.997489 -0.0003404 0)
(0.997153 0.00223418 0)
(0.995792 0.00434344 0)
(0.996643 0.00497058 0)
(0.999249 0.00574141 0)
(1.00061 0.00711673 0)
(1.00114 0.00801776 0)
(1.00101 0.00859002 0)
(1.00209 0.00918435 0)
(1.00307 0.010003 0)
(0.997458 -0.00315562 0)
(1.00005 0.00264987 0)
(1.00405 -0.00493764 0)
(0.999476 -0.013553 0)
(0.9879 -0.00766217 0)
(0.991238 5.12197e-05 0)
(0.998053 0.000628951 0)
(0.999013 -0.00152823 0)
(0.995279 -0.0015261 0)
(0.995537 -0.00123376 0)
(0.997659 -0.00028977 0)
(0.997432 0.00207831 0)
(0.995927 0.0042739 0)
(0.996674 0.00492724 0)
(0.99936 0.00557757 0)
(1.00077 0.00693765 0)
(1.00122 0.00793589 0)
(1.00105 0.0084695 0)
(1.00217 0.00892712 0)
(1.00316 0.00970629 0)
(0.997591 -0.00298624 0)
(1.00003 0.00221764 0)
(1.00357 -0.00470394 0)
(0.999495 -0.012943 0)
(0.988598 -0.00742936 0)
(0.991671 -0.000310877 0)
(0.99797 0.000312662 0)
(0.998868 -0.00160331 0)
(0.995239 -0.00146104 0)
(0.995547 -0.00106486 0)
(0.997803 -0.000236398 0)
(0.997705 0.00192164 0)
(0.996072 0.00419978 0)
(0.996688 0.00490536 0)
(0.999449 0.00542041 0)
(1.00093 0.00672659 0)
(1.00129 0.00783784 0)
(1.00105 0.00837394 0)
(1.00222 0.00869998 0)
(1.00326 0.00937565 0)
(0.997721 -0.0028155 0)
(1.00002 0.00179128 0)
(1.0031 -0.00445936 0)
(0.999512 -0.0123646 0)
(0.989276 -0.0071965 0)
(0.99209 -0.000641885 0)
(0.997901 -9.06115e-06 0)
(0.998733 -0.00167929 0)
(0.99521 -0.00139643 0)
(0.99555 -0.000909749 0)
(0.997924 -0.000178238 0)
(0.99798 0.00175929 0)
(0.996234 0.00411252 0)
(0.996688 0.00490247 0)
(0.999507 0.00527599 0)
(1.0011 0.00647659 0)
(1.00137 0.00771125 0)
(1.00104 0.00830332 0)
(1.00221 0.00851265 0)
(1.00335 0.00903071 0)
(0.997846 -0.00264475 0)
(1.00001 0.00137514 0)
(1.00266 -0.00420458 0)
(0.999519 -0.0118083 0)
(0.989936 -0.00697499 0)
(0.992499 -0.000939163 0)
(0.997835 -0.000326894 0)
(0.998611 -0.00175977 0)
(0.995193 -0.00133262 0)
(0.995549 -0.00075947 0)
(0.998023 -0.000121419 0)
(0.99825 0.00158718 0)
(0.996413 0.00400439 0)
(0.996671 0.00491781 0)
(0.999524 0.00516511 0)
(1.00125 0.00619463 0)
(1.00148 0.00752906 0)
(1.001 0.00824596 0)
(1.00215 0.00837602 0)
(1.00341 0.00869033 0)
(0.997969 -0.00247296 0)
(0.999997 0.000965992 0)
(1.00223 -0.00394598 0)
(0.99952 -0.0112529 0)
(0.990586 -0.00677926 0)
(0.992891 -0.00119643 0)
(0.997768 -0.000624534 0)
(0.998499 -0.00185032 0)
(0.995189 -0.0012771 0)
(0.995545 -0.00062319 0)
(0.99809 -5.77083e-05 0)
(0.998505 0.00140777 0)
(0.996618 0.00386205 0)
(0.996656 0.00494208 0)
(0.999503 0.00510316 0)
(1.0014 0.00590657 0)
(1.00162 0.00727587 0)
(1.00097 0.00816915 0)
(1.00203 0.00830022 0)
(1.00341 0.00839817 0)
(0.998086 -0.00230117 0)
(1 0.000568106 0)
(1.00182 -0.00369908 0)
(0.999513 -0.0106952 0)
(0.99121 -0.00661344 0)
(0.99327 -0.00142093 0)
(0.99771 -0.000900582 0)
(0.998409 -0.00195116 0)
(0.995197 -0.00123117 0)
(0.995535 -0.000497978 0)
(0.998129 1.82461e-05 0)
(0.998748 0.00122833 0)
(0.996841 0.00367354 0)
(0.99665 0.0049505 0)
(0.999434 0.00508599 0)
(1.00152 0.00564252 0)
(1.00179 0.0069613 0)
(1.00097 0.00803186 0)
(1.00187 0.00825619 0)
(1.00332 0.00819573 0)
(0.9982 -0.00213257 0)
(1.00001 0.000187614 0)
(1.00143 -0.00347187 0)
(0.999493 -0.0101227 0)
(0.991825 -0.00648629 0)
(0.993628 -0.00161932 0)
(0.997659 -0.00114218 0)
(0.998335 -0.00206229 0)
(0.995218 -0.00119849 0)
(0.995526 -0.000379116 0)
(0.998137 0.000109718 0)
(0.998968 0.00106611 0)
(0.9971 0.00344642 0)
(0.996665 0.00492639 0)
(0.999327 0.00510388 0)
(1.00159 0.00542736 0)
(1.00197 0.0066171 0)
(1.00102 0.00782843 0)
(1.0017 0.008187 0)
(1.00314 0.00807159 0)
(0.998312 -0.00196674 0)
(1.00003 -0.000175849 0)
(1.00107 -0.00326678 0)
(0.999462 -0.00953025 0)
(0.992411 -0.00638792 0)
(0.993989 -0.00180146 0)
(0.997605 -0.00133324 0)
(0.998277 -0.00217849 0)
(0.99526 -0.00118358 0)
(0.995517 -0.000270628 0)
(0.998118 0.000219055 0)
(0.999162 0.000938911 0)
(0.997379 0.00318888 0)
(0.996706 0.0048543 0)
(0.999187 0.00512854 0)
(1.0016 0.00525718 0)
(1.00216 0.00625786 0)
(1.00112 0.00756838 0)
(1.00154 0.00807033 0)
(1.00291 0.00797337 0)
(0.998418 -0.00180679 0)
(1.00006 -0.00051244 0)
(1.00075 -0.00309706 0)
(0.999414 -0.00890909 0)
(0.992973 -0.00630496 0)
(0.99435 -0.00198765 0)
(0.997554 -0.00147472 0)
(0.99823 -0.0022837 0)
(0.995327 -0.0011846 0)
(0.995519 -0.000173369 0)
(0.998078 0.000338863 0)
(0.999328 0.000851984 0)
(0.997677 0.00292072 0)
(0.99679 0.0047321 0)
(0.999035 0.00514652 0)
(1.00154 0.00513918 0)
(1.00233 0.00590426 0)
(1.00126 0.00725367 0)
(1.00141 0.00792175 0)
(1.00263 0.00785335 0)
(0.998519 -0.0016547 0)
(1.00009 -0.000816857 0)
(1.00046 -0.00297492 0)
(0.99936 -0.00826222 0)
(0.993515 -0.00621277 0)
(0.994708 -0.00218815 0)
(0.997511 -0.00158464 0)
(0.998187 -0.00236042 0)
(0.995414 -0.00120499 0)
(0.995544 -8.91153e-05 0)
(0.998012 0.000479123 0)
(0.999454 0.000810485 0)
(0.997982 0.00266036 0)
(0.996923 0.0045533 0)
(0.998885 0.00512857 0)
(1.00143 0.00506556 0)
(1.00247 0.00558571 0)
(1.00145 0.00687378 0)
(1.00132 0.00774288 0)
(1.00235 0.00770978 0)
(0.998614 -0.00151395 0)
(1.00012 -0.00107969 0)
(1.00021 -0.00290167 0)
(0.999292 -0.00761559 0)
(0.994033 -0.0060885 0)
(0.995075 -0.00240273 0)
(0.997471 -0.00165661 0)
(0.998157 -0.00240705 0)
(0.995517 -0.00123867 0)
(0.995585 -3.05438e-05 0)
(0.997948 0.000616033 0)
(0.999538 0.000813277 0)
(0.998287 0.00242459 0)
(0.997097 0.00432662 0)
(0.998754 0.00505546 0)
(1.00127 0.00500633 0)
(1.00255 0.00533236 0)
(1.00167 0.00644287 0)
(1.00128 0.00750094 0)
(1.00206 0.00756027 0)
(0.998709 -0.00138407 0)
(1.00016 -0.00130563 0)
(1 -0.00286747 0)
(0.999225 -0.00697922 0)
(0.994487 -0.00591636 0)
(0.995448 -0.00263805 0)
(0.997457 -0.00170476 0)
(0.998142 -0.00240665 0)
(0.995652 -0.001273 0)
(0.995662 -1.29067e-05 0)
(0.997867 0.000721285 0)
(0.99958 0.000853506 0)
(0.99857 0.00222574 0)
(0.997305 0.00407573 0)
(0.998656 0.00493628 0)
(1.00109 0.00492473 0)
(1.00256 0.00514049 0)
(1.00189 0.00601983 0)
(1.00131 0.00717431 0)
(1.00179 0.00740709 0)
(0.998798 -0.00126829 0)
(1.0002 -0.00148647 0)
(0.999844 -0.00286884 0)
(0.999162 -0.00637699 0)
(0.994904 -0.00568247 0)
(0.995819 -0.00287714 0)
(0.997474 -0.00175853 0)
(0.998126 -0.00235307 0)
(0.995793 -0.0013011 0)
(0.995763 -2.66214e-05 0)
(0.99781 0.000798368 0)
(0.9996 0.000906337 0)
(0.998833 0.00206469 0)
(0.997542 0.00381561 0)
(0.998589 0.00478724 0)
(1.0009 0.00480779 0)
(1.00252 0.00496831 0)
(1.00209 0.00564215 0)
(1.00142 0.00678296 0)
(1.00157 0.00722478 0)
(0.998891 -0.00116992 0)
(1.00024 -0.00161692 0)
(0.999712 -0.00289827 0)
(0.999119 -0.00582658 0)
(0.995274 -0.00539202 0)
(0.99619 -0.00309501 0)
(0.997527 -0.00183315 0)
(0.998119 -0.00225452 0)
(0.995935 -0.0012969 0)
(0.995893 -6.43642e-05 0)
(0.997775 0.000835939 0)
(0.999599 0.000955268 0)
(0.999069 0.0019364 0)
(0.997794 0.00355185 0)
(0.998552 0.00462263 0)
(1.00071 0.00467858 0)
(1.00243 0.00479657 0)
(1.00225 0.00530945 0)
(1.00158 0.00636228 0)
(1.00142 0.00697621 0)
(0.998973 -0.00108798 0)
(1.00027 -0.00170047 0)
(0.999625 -0.00294704 0)
(0.999097 -0.00533744 0)
(0.995593 -0.00505415 0)
(0.996542 -0.00326823 0)
(0.99761 -0.00194933 0)
(0.998142 -0.00214468 0)
(0.99609 -0.00123906 0)
(0.996045 -0.000111436 0)
(0.997757 0.000825391 0)
(0.999594 0.000986824 0)
(0.999275 0.00183305 0)
(0.998068 0.00329107 0)
(0.99855 0.00443619 0)
(1.00053 0.00455215 0)
(1.00231 0.00463989 0)
(1.00238 0.00501685 0)
(1.00178 0.00594751 0)
(1.00136 0.00665976 0)
(0.999058 -0.00102251 0)
(1.00028 -0.00173569 0)
(0.999576 -0.00300446 0)
(0.999099 -0.00493236 0)
(0.995866 -0.00468137 0)
(0.996871 -0.00337481 0)
(0.997738 -0.00208978 0)
(0.998193 -0.00205741 0)
(0.996236 -0.00112927 0)
(0.996192 -0.000131203 0)
(0.997765 0.000794364 0)
(0.999597 0.000989513 0)
(0.999466 0.00174782 0)
(0.998352 0.00304688 0)
(0.998591 0.00423307 0)
(1.00036 0.00441899 0)
(1.00217 0.004502 0)
(1.00245 0.0047615 0)
(1.00198 0.00555687 0)
(1.00138 0.0062958 0)
(0.99913 -0.000974924 0)
(1.0003 -0.00173739 0)
(0.999546 -0.00304831 0)
(0.999128 -0.00460361 0)
(0.996118 -0.00429615 0)
(0.997159 -0.00340586 0)
(0.997883 -0.00224028 0)
(0.998291 -0.00201494 0)
(0.996392 -0.000992006 0)
(0.996341 -0.000117874 0)
(0.99779 0.000761248 0)
(0.999603 0.000959357 0)
(0.999634 0.00166096 0)
(0.998637 0.00281473 0)
(0.998674 0.00402094 0)
(1.00022 0.00426914 0)
(1.00201 0.00436387 0)
(1.00248 0.00454206 0)
(1.00217 0.00519998 0)
(1.00148 0.00590536 0)
(0.999206 -0.000933926 0)
(1.0003 -0.00171648 0)
(0.999527 -0.00308559 0)
(0.999191 -0.00436102 0)
(0.996345 -0.00392024 0)
(0.997408 -0.00333518 0)
(0.99804 -0.00236475 0)
(0.998439 -0.0020248 0)
(0.996569 -0.000845098 0)
(0.99649 -4.29342e-05 0)
(0.997815 0.000750959 0)
(0.999611 0.000921945 0)
(0.999796 0.0015663 0)
(0.998931 0.00258334 0)
(0.998795 0.00380527 0)
(1.0001 0.00412134 0)
(1.00185 0.00422019 0)
(1.00247 0.00434285 0)
(1.00232 0.00488462 0)
(1.00162 0.00551914 0)
(0.99927 -0.000910001 0)
(1.0003 -0.00165826 0)
(0.999513 -0.00305623 0)
(0.999297 -0.00419368 0)
(0.996567 -0.00359462 0)
(0.997617 -0.00321062 0)
(0.998196 -0.00244732 0)
(0.998625 -0.00207919 0)
(0.996775 -0.000730063 0)
(0.996629 6.36441e-05 0)
(0.997836 0.000759213 0)
(0.999619 0.00088369 0)
(0.999939 0.00147536 0)
(0.999232 0.00235119 0)
(0.998956 0.00356796 0)
(1.00001 0.00396807 0)
(1.00169 0.00407938 0)
(1.00243 0.00414977 0)
(1.00244 0.00459838 0)
(1.00177 0.00515172 0)
(0.999335 -0.000897055 0)
(1.00028 -0.00162276 0)
(0.999494 -0.00299219 0)
(0.999404 -0.00400737 0)
(0.996791 -0.00328466 0)
(0.997796 -0.00303282 0)
(0.998334 -0.00247562 0)
(0.99884 -0.0021766 0)
(0.99703 -0.000681992 0)
(0.996773 0.000174315 0)
(0.997837 0.000812289 0)
(0.999617 0.00085438 0)
(1.00006 0.00140079 0)
(0.999522 0.00214124 0)
(0.99916 0.00330938 0)
(0.999967 0.00379435 0)
(1.00152 0.00395095 0)
(1.00236 0.00397393 0)
(1.00253 0.00434084 0)
(1.00192 0.0048185 0)
(0.99939 -0.000866071 0)
(1.00027 -0.00159264 0)
(0.999488 -0.00296164 0)
(0.999549 -0.0039636 0)
(0.997009 -0.00303349 0)
(0.997934 -0.00276095 0)
(0.998433 -0.00235101 0)
(0.999078 -0.00224687 0)
(0.997342 -0.000722875 0)
(0.996945 0.000255375 0)
(0.997825 0.000890482 0)
(0.999595 0.000838543 0)
(1.00016 0.00132003 0)
(0.999791 0.0019463 0)
(0.999393 0.00304573 0)
(0.999974 0.00358852 0)
(1.00137 0.00381285 0)
(1.00226 0.00380922 0)
(1.00258 0.00409499 0)
(1.00206 0.00450084 0)
(0.999439 -0.000843848 0)
(1.00026 -0.0015734 0)
(0.999434 -0.00283706 0)
(0.999706 -0.00387791 0)
(0.99729 -0.00280844 0)
(0.998079 -0.00248453 0)
(0.998486 -0.00215827 0)
(0.99928 -0.0022612 0)
(0.997695 -0.000842373 0)
(0.997167 0.000267301 0)
(0.997817 0.000975772 0)
(0.999553 0.000868024 0)
(1.00025 0.00126333 0)
(1.00004 0.00177282 0)
(0.999645 0.00279786 0)
(1.00003 0.00336906 0)
(1.00125 0.00366449 0)
(1.00215 0.00366807 0)
(1.0026 0.00388163 0)
(1.0022 0.00420672 0)
(0.999477 -0.000823089 0)
(1.00024 -0.00152225 0)
(0.99942 -0.00261014 0)
(0.999858 -0.00371179 0)
(0.997549 -0.00270841 0)
(0.998203 -0.00233116 0)
(0.998507 -0.00201114 0)
(0.999449 -0.00223648 0)
(0.99805 -0.000981277 0)
(0.997432 0.000181266 0)
(0.997822 0.00103744 0)
(0.999489 0.000911615 0)
(1.00029 0.00122487 0)
(1.00028 0.00161067 0)
(0.999908 0.002549 0)
(1.00013 0.00314012 0)
(1.00116 0.00348625 0)
(1.00204 0.00352037 0)
(1.00258 0.00368875 0)
(1.00232 0.003923 0)
(0.999519 -0.000775194 0)
(1.00025 -0.00148681 0)
(0.999368 -0.00244213 0)
(0.999968 -0.00358447 0)
(0.997825 -0.00264615 0)
(0.998358 -0.00217427 0)
(0.998514 -0.00179493 0)
(0.999565 -0.0021091 0)
(0.998396 -0.00106754 0)
(0.997755 4.01306e-05 0)
(0.997876 0.00105174 0)
(0.999409 0.000958946 0)
(1.00029 0.00120734 0)
(1.00046 0.00147776 0)
(1.00017 0.00229515 0)
(1.00026 0.00289428 0)
(1.0011 0.00329257 0)
(1.00192 0.00334984 0)
(1.00251 0.00351241 0)
(1.00238 0.00365841 0)
(0.999547 -0.00073146 0)
(1.00023 -0.00143857 0)
(0.999337 -0.00222779 0)
(1.00008 -0.00339667 0)
(0.998105 -0.00259544 0)
(0.998515 -0.00207948 0)
(0.998516 -0.00160439 0)
(0.999632 -0.00194838 0)
(0.998693 -0.0011114 0)
(0.998105 -0.00013052 0)
(0.997971 0.0010041 0)
(0.999328 0.00100334 0)
(1.00026 0.00121168 0)
(1.00058 0.00139049 0)
(1.00041 0.00207951 0)
(1.00043 0.00263774 0)
(1.00108 0.00310137 0)
(1.00182 0.00316909 0)
(1.00242 0.00334801 0)
(1.00239 0.00344076 0)
(0.99957 -0.000694731 0)
(1.00025 -0.00139003 0)
(0.999274 -0.0019959 0)
(1.00014 -0.00315147 0)
(0.998348 -0.00253139 0)
(0.998703 -0.00202664 0)
(0.998528 -0.0014452 0)
(0.999669 -0.00177347 0)
(0.99894 -0.00109095 0)