/*--------------------------------*- C++ -*----------------------------------*\
| =========                 |                                                 |
| \\      /  F ield         | OpenFOAM: The Open Source CFD Toolbox           |
|  \\    /   O peration     | Version:  v1812                                 |
|   \\  /    A nd           | Web:      www.OpenFOAM.com                      |
|    \\/     M anipulation  |                                                 |
\*---------------------------------------------------------------------------*/
FoamFile
{
    version     2.0;
    format      ascii;
    class       volScalarField;
    location    "6.2";
    object      p;
}
// * * * * * * * * * * * * * * * * * * * * * * * * * * * * * * * * * * * * * //

dimensions      [0 2 -2 0 0 0 0];


internalField   nonuniform List<scalar> 
9600
(
2.7664e-11
-0.00409505
-0.00386443
-0.00601469
-0.00356605
-0.00290982
-0.00231579
-0.000468922
-0.00336658
-0.00777195
-0.00945109
-0.00863441
-0.00891925
-0.00908106
-0.00832623
-0.00721275
-0.00585128
-0.0036451
-0.000350625
0.00428047
3.53713e-06
-0.00410246
-0.00386363
-0.00601098
-0.00357638
-0.00291501
-0.00229649
-0.000497483
-0.00335433
-0.00779369
-0.00944394
-0.00861184
-0.00893682
-0.00906445
-0.0083297
-0.00721732
-0.0058395
-0.00367927
-0.000294649
0.00391549
7.09906e-06
-0.00411213
-0.00385842
-0.00600675
-0.00358963
-0.00291996
-0.00227639
-0.000539648
-0.00332132
-0.00782306
-0.00941646
-0.00856972
-0.0089655
-0.00903146
-0.00834876
-0.00721599
-0.0058337
-0.0037233
-0.000274351
0.00336642
7.3112e-06
-0.00412563
-0.0038532
-0.00600127
-0.00360535
-0.00292664
-0.00226796
-0.000601947
-0.00329049
-0.00784845
-0.00937742
-0.00851727
-0.00901086
-0.00900176
-0.00837899
-0.0072193
-0.00583253
-0.00377287
-0.000310709
0.00287066
3.70936e-06
-0.00414393
-0.00385009
-0.00599357
-0.00362408
-0.00293546
-0.00226814
-0.000689648
-0.00327093
-0.00787139
-0.00933514
-0.00846645
-0.00907384
-0.00897715
-0.00841008
-0.0072275
-0.00583011
-0.00383409
-0.000375277
0.00241115
-3.59491e-06
-0.00416798
-0.00384837
-0.00598298
-0.00364549
-0.00294569
-0.00227538
-0.000805947
-0.00326094
-0.00789141
-0.00929323
-0.00842026
-0.0091434
-0.00895332
-0.00843388
-0.00723822
-0.00582714
-0.00390376
-0.000464519
0.00196768
-1.46176e-05
-0.00419802
-0.00384641
-0.00597584
-0.00366884
-0.0029574
-0.00229087
-0.00094788
-0.00325496
-0.00790714
-0.00925312
-0.00837454
-0.00921061
-0.00892859
-0.0084469
-0.00725122
-0.00582539
-0.00397938
-0.00058069
0.00153333
-2.92557e-05
-0.00423375
-0.00384297
-0.00595813
-0.0036935
-0.00297147
-0.00231526
-0.00110828
-0.00324922
-0.00791876
-0.00921539
-0.00832584
-0.00927174
-0.00890288
-0.00844894
-0.00726645
-0.00582601
-0.00406041
-0.000726386
0.00110642
-4.72022e-05
-0.00427465
-0.00383748
-0.0059368
-0.00371908
-0.00298888
-0.00234821
-0.00127993
-0.00324162
-0.00792692
-0.00918061
-0.00827302
-0.00932526
-0.00887679
-0.00844169
-0.00728315
-0.00583012
-0.00414793
-0.000902239
0.000686643
-6.80443e-05
-0.00432012
-0.00382985
-0.00591212
-0.00374549
-0.0030103
-0.002389
-0.00145775
-0.00323082
-0.0079321
-0.00914938
-0.00821581
-0.00937065
-0.00885157
-0.00842668
-0.00730022
-0.00584003
-0.0042433
-0.00110565
0.00027217
-9.1358e-05
-0.00436961
-0.00382032
-0.0058844
-0.00377286
-0.00303587
-0.00243662
-0.00163918
-0.00321664
-0.00793443
-0.00912234
-0.00815428
-0.00940815
-0.00882824
-0.00840535
-0.0073174
-0.005858
-0.00434739
-0.00133279
-0.000140379
-0.000116757
-0.00442258
-0.00380947
-0.00585411
-0.00380143
-0.00306529
-0.00248984
-0.0018234
-0.00320035
-0.00793363
-0.00910021
-0.00808893
-0.00943825
-0.00880722
-0.00837985
-0.00733536
-0.00588449
-0.00446139
-0.00158099
-0.000553634
-0.000143924
-0.00447856
-0.00379803
-0.00582172
-0.00383143
-0.00309801
-0.0025475
-0.00201033
-0.00318403
-0.00792923
-0.0090838
-0.0080204
-0.00946152
-0.0087889
-0.00835243
-0.00735487
-0.00591922
-0.00458767
-0.00184855
-0.000967806
-0.000172622
-0.0045371
-0.00378678
-0.00578767
-0.00386311
-0.00313339
-0.00260872
-0.00219994
-0.00316982
-0.00792076
-0.00907378
-0.00794929
-0.00947895
-0.00877387
-0.00832455
-0.00737721
-0.00596163
-0.00472925
-0.00213418
-0.0013803
-0.000202702
-0.00459785
-0.0037765
-0.00575228
-0.00389671
-0.00317089
-0.00267309
-0.00239204
-0.00315954
-0.00790766
-0.00907068
-0.00787627
-0.00949177
-0.00876273
-0.00829701
-0.00740452
-0.0060103
-0.00488793
-0.0024379
-0.00178766
-0.000234095
-0.00466044
-0.00376788
-0.00571578
-0.0039325
-0.00321009
-0.00274062
-0.00258625
-0.0031546
-0.00788934
-0.00907496
-0.00780226
-0.00950078
-0.00875599
-0.00827019
-0.00743973
-0.00606345
-0.00506285
-0.00276115
-0.00218758
-0.000266808
-0.00472455
-0.00376156
-0.00567826
-0.00397071
-0.00325067
-0.00281161
-0.00278203
-0.00315623
-0.00786531
-0.00908693
-0.00772821
-0.00950646
-0.00875438
-0.0082436
-0.00748595
-0.00612028
-0.00525154
-0.00310655
-0.00257935
-0.000300923
-0.00478982
-0.00375805
-0.00563984
-0.00401166
-0.00329235
-0.00288641
-0.00297867
-0.00316566
-0.00783524
-0.00910678
-0.00765484
-0.00950896
-0.00875935
-0.00821564
-0.00754586
-0.00618174
-0.00545021
-0.00347755
-0.00296287
-0.000336597
-0.00485592
-0.00375771
-0.00560055
-0.00405568
-0.00333485
-0.00296533
-0.00317528
-0.00318411
-0.007799
-0.00913464
-0.00758293
-0.00950767
-0.00877279
-0.00818431
-0.00762111
-0.00625113
-0.00565322
-0.00387679
-0.00333986
-0.000374053
-0.00492254
-0.00376088
-0.00556038
-0.0041031
-0.00337799
-0.00304866
-0.00337087
-0.00321274
-0.00775668
-0.0091705
-0.00751356
-0.00950125
-0.00879701
-0.00814779
-0.00771154
-0.00633422
-0.00585297
-0.00430345
-0.00371745
-0.000413556
-0.00498938
-0.00376787
-0.00551922
-0.00415426
-0.00342163
-0.00313668
-0.00356467
-0.00325265
-0.0077085
-0.00921408
-0.0074479
-0.00948801
-0.00883484
-0.00810535
-0.00781547
-0.00643759
-0.0060422
-0.00475341
-0.00410662
-0.000455395
-0.00505621
-0.00377906
-0.00547694
-0.00420951
-0.00346576
-0.00322964
-0.00375613
-0.00330484
-0.0076547
-0.00926488
-0.00738762
-0.00946586
-0.00888876
-0.00805842
-0.00792852
-0.00656823
-0.00621764
-0.00521954
-0.00451784
-0.000499875
-0.00512276
-0.00379486
-0.00543338
-0.00426917
-0.00351046
-0.00332779
-0.00394493
-0.00336995
-0.00759568
-0.00932197
-0.00733492
-0.0094326
-0.00896016
-0.00800953
-0.0080441
-0.00673361
-0.00638031
-0.00568993
-0.00496053
-0.000547303
-0.00518877
-0.00381577
-0.00538837
-0.00433363
-0.00355574
-0.00343138
-0.00413096
-0.00344812
-0.00753255
-0.00938363
-0.00729216
-0.00938674
-0.00904921
-0.00796072
-0.00815559
-0.00693919
-0.0065347
-0.00614902
-0.00544209
-0.000597987
-0.00525397
-0.00384232
-0.00534177
-0.00440322
-0.00360171
-0.00354055
-0.00431428
-0.0035394
-0.0074668
-0.00944786
-0.00726178
-0.00932708
-0.00915507
-0.00789926
-0.00825652
-0.00718675
-0.00668998
-0.00658059
-0.00596405
-0.000652249
-0.00531804
-0.00387511
-0.00529349
-0.00447822
-0.00364863
-0.00365508
-0.00449531
-0.00364373
-0.00739962
-0.009513
-0.00724656
-0.00925238
-0.00927666
-0.00787462
-0.00834052
-0.00747391
-0.00685976
-0.00697131
-0.00652005
-0.000710425
-0.00538061
-0.00391479
-0.00524343
-0.00455883
-0.00369688
-0.00377443
-0.00467491
-0.00376025
-0.00733253
-0.00957762
-0.00724842
-0.0091629
-0.0094117
-0.00787228
-0.00840264
-0.00779445
-0.00706021
-0.00731299
-0.00709339
-0.000772866
-0.00544132
-0.00396203
-0.00519152
-0.0046452
-0.003747
-0.00389783
-0.00485408
-0.00388754
-0.00726752
-0.00964016
-0.00726864
-0.00906073
-0.00955641
-0.00789833
-0.00844086
-0.00813819
-0.00730746
-0.00760588
-0.00765894
-0.000839967
-0.00549974
-0.00401754
-0.00513779
-0.00473721
-0.00379985
-0.0040243
-0.00503392
-0.00402434
-0.00720598
-0.00969958
-0.00730874
-0.00894759
-0.00970691
-0.00795964
-0.00845523
-0.00849129
-0.00761416
-0.00785952
-0.00818726
-0.000912164
-0.00555545
-0.00408197
-0.0050824
-0.00483461
-0.00385661
-0.00415208
-0.00521586
-0.00416969
-0.00714884
-0.00975615
-0.00736939
-0.00882493
-0.00985844
-0.00806269
-0.00844978
-0.00883753
-0.00798461
-0.00809249
-0.00865136
-0.000989887
-0.00560796
-0.00415606
-0.00502554
-0.00493704
-0.00391873
-0.00427899
-0.00540136
-0.00432288
-0.0070967
-0.00981045
-0.00745122
-0.00869519
-0.0100051
-0.00821252
-0.00843304
-0.00915941
-0.00841362
-0.00833324
-0.00903579
-0.00107356
-0.00565679
-0.00424052
-0.00496759
-0.00504363
-0.003988
-0.00440295
-0.00559127
-0.00448401
-0.00704912
-0.00986302
-0.00755577
-0.00856169
-0.0101411
-0.00841155
-0.00841443
-0.00944114
-0.00889078
-0.00861119
-0.00934032
-0.00116367
-0.00570143
-0.00433582
-0.00490927
-0.00515326
-0.00406636
-0.00452149
-0.00578591
-0.00465423
-0.00700568
-0.0099141
-0.00768433
-0.00842819
-0.0102607
-0.00865858
-0.00840403
-0.00967249
-0.00939762
-0.008945
-0.00958114
-0.00126074
-0.00574133
-0.00444239
-0.00485149
-0.00526457
-0.00414348
-0.00463232
-0.00598522
-0.00483531
-0.00696582
-0.00996307
-0.0078385
-0.00829926
-0.0103575
-0.00895001
-0.0084197
-0.00984895
-0.00991102
-0.00934531
-0.00979643
-0.00136529
-0.00577595
-0.0045606
-0.00479541
-0.00537573
-0.00424635
-0.00473443
-0.00618694
-0.00502935
-0.00692899
-0.0100081
-0.00802051
-0.00818145
-0.0104247
-0.00928089
-0.00848768
-0.00997188
-0.0104042
-0.00981899
-0.0100255
-0.00147785
-0.00580476
-0.0046904
-0.00474279
-0.0054841
-0.00436729
-0.0048277
-0.00638768
-0.00523925
-0.00689611
-0.0100467
-0.00823169
-0.00808246
-0.0104556
-0.00964396
-0.00861564
-0.0100487
-0.0108507
-0.0103482
-0.0103042
-0.001599
-0.00582737
-0.00483151
-0.00469579
-0.00558686
-0.00450777
-0.00491288
-0.00658353
-0.0054679
-0.00686959
-0.0100748
-0.00847167
-0.00801118
-0.0104461
-0.0100274
-0.0088126
-0.0100904
-0.0112331
-0.0109057
-0.0106532
-0.00172921
-0.00584354
-0.00498344
-0.00465688
-0.005681
-0.0046687
-0.00499246
-0.00676903
-0.00571721
-0.00685356
-0.0100879
-0.00873792
-0.00797849
-0.0103958
-0.0104143
-0.00908233
-0.010029
-0.0115417
-0.0114656
-0.0110709
-0.00186899
-0.00585313
-0.00514507
-0.00462924
-0.00576344
-0.00485024
-0.00507016
-0.00693873
-0.00598787
-0.00685386
-0.0100819
-0.00902503
-0.00799554
-0.0103098
-0.0107855
-0.00943152
-0.0100789
-0.0117751
-0.0120031
-0.0115441
-0.00201879
-0.00585624
-0.00531468
-0.00461636
-0.00583191
-0.0050521
-0.00515112
-0.00708709
-0.00627778
-0.006878
-0.0100546
-0.00932484
-0.0080734
-0.0101988
-0.0111201
-0.00985405
-0.010167
-0.011928
-0.0124969
-0.0120566
-0.00217896
-0.00585304
-0.0054902
-0.00462192
-0.00588509
-0.00527235
-0.00524166
-0.00721009
-0.00658283
-0.00693382
-0.0100068
-0.00962791
-0.00821951
-0.0100787
-0.0113994
-0.0103331
-0.0103185
-0.0120198
-0.0129252
-0.0125913
-0.00234986
-0.00584401
-0.00566883
-0.00464977
-0.00592279
-0.00550707
-0.00534874
-0.00730643
-0.00689658
-0.00702841
-0.00994219
-0.00992256
-0.00843512
-0.00997101
-0.0116111
-0.0108417
-0.0105551
-0.0120755
-0.0132636
-0.0131251
-0.00253183
-0.00583
-0.00584715
-0.0047037
-0.00594563
-0.00574995
-0.00547968
-0.0073777
-0.00720946
-0.00716712
-0.00986768
-0.0101976
-0.00871782
-0.00989738
-0.0117517
-0.0113472
-0.0108813
-0.0121345
-0.0135085
-0.0136258
-0.00272503
-0.005812
-0.00602169
-0.00478703
-0.00595514
-0.00599312
-0.00563994
-0.00742855
-0.00751097
-0.00735175
-0.0097941
-0.0104441
-0.00905842
-0.00987699
-0.0118281
-0.0118189
-0.0112826
-0.0122353
-0.0136761
-0.0140601
-0.00292923
-0.00579142
-0.00618934
-0.00490179
-0.00595397
-0.00622876
-0.00583271
-0.00746819
-0.0077917
-0.00758015
-0.00973555
-0.0106547
-0.00944102
-0.00992558
-0.0118554
-0.0122333
-0.0117369
-0.0124013
-0.0137987
-0.0144111
-0.00314382
-0.00577077
-0.00634904
-0.00504861
-0.00595222
-0.00644748
-0.00605811
-0.00750955
-0.00804581
-0.00784487
-0.00970649
-0.0108269
-0.00984429
-0.0100509
-0.0118574
-0.012577
-0.0122172
-0.0126394
-0.0139124
-0.0146863
-0.00336818
-0.00575385
-0.00648931
-0.00522673
-0.00595812
-0.00664066
-0.00631227
-0.00756631
-0.00827219
-0.00813426
-0.00971717
-0.0109642
-0.0102463
-0.0102506
-0.0118634
-0.0128494
-0.0126943
-0.0129431
-0.0140437
-0.0149056
-0.00360134
-0.00574351
-0.0066122
-0.00543356
-0.00598084
-0.00680736
-0.00658487
-0.00764762
-0.00847339
-0.00843735
-0.00977216
-0.0110739
-0.0106302
-0.0105142
-0.0118998
-0.0130604
-0.0131417
-0.0132974
-0.0142079
-0.0150932
-0.00384171
-0.00574356
-0.0067164
-0.00566394
-0.0060309
-0.00694793
-0.00686233
-0.00775694
-0.00865587
-0.00874479
-0.00987171
-0.0111671
-0.0109844
-0.0108263
-0.0119842
-0.0132279
-0.0135428
-0.0136824
-0.0144115
-0.0152659
-0.00408748
-0.00575757
-0.00680219
-0.00590921
-0.00611581
-0.00707042
-0.00713513
-0.00789435
-0.00882676
-0.00904937
-0.010013
-0.0112568
-0.0113037
-0.0111682
-0.0121232
-0.0133748
-0.0138938
-0.0140771
-0.0146557
-0.0154357
-0.00433669
-0.00578858
-0.00687137
-0.00615927
-0.00623872
-0.00718773
-0.00739749
-0.00805616
-0.00899212
-0.00934661
-0.0101912
-0.0113538
-0.0115882
-0.0115219
-0.0123141
-0.0135223
-0.0142004
-0.014463
-0.014935
-0.0156161
-0.0045873
-0.00583849
-0.00692954
-0.00640659
-0.00639964
-0.00731187
-0.00764793
-0.00823609
-0.00915563
-0.00963298
-0.0104004
-0.0114674
-0.0118431
-0.0118717
-0.0125478
-0.0136851
-0.0144723
-0.0148287
-0.0152379
-0.0158178
-0.00483751
-0.00590805
-0.0069825
-0.00664584
-0.00659349
-0.00745128
-0.00788869
-0.00843016
-0.00931889
-0.00990494
-0.0106335
-0.0116057
-0.0120771
-0.0122066
-0.0128106
-0.013869
-0.0147225
-0.0151714
-0.015552
-0.0160424
-0.00508571
-0.00599707
-0.00703636
-0.00687434
-0.00681263
-0.00761057
-0.00812662
-0.00863681
-0.00948223
-0.0101589
-0.0108826
-0.0117732
-0.0123
-0.0125226
-0.0130883
-0.0140723
-0.0149616
-0.0154935
-0.0158687
-0.0162837
-0.00533069
-0.00610442
-0.00709642
-0.00709173
-0.0070488
-0.00779183
-0.00836884
-0.00885552
-0.00964712
-0.0103925
-0.0111385
-0.011969
-0.0125229
-0.0128231
-0.013371
-0.0142902
-0.0151921
-0.0157965
-0.0161849
-0.0165365
-0.00557148
-0.00622843
-0.00716748
-0.00730005
-0.00729591
-0.00799315
-0.00861831
-0.00908884
-0.0098156
-0.0106049
-0.0113915
-0.0121888
-0.0127554
-0.013112
-0.0136534
-0.0145186
-0.015415
-0.0160781
-0.0164987
-0.0168011
-0.0058077
-0.00636629
-0.00725313
-0.00750531
-0.00755053
-0.00820773
-0.00887517
-0.00934
-0.00999193
-0.0107979
-0.0116328
-0.0124256
-0.0130021
-0.0133959
-0.0139328
-0.0147553
-0.0156345
-0.0163357
-0.0168019
-0.0170778
-0.00604037
-0.0065155
-0.00735502
-0.00771196
-0.00781003
-0.00842955
-0.00913548
-0.00960912
-0.010186
-0.0109771
-0.0118559
-0.0126695
-0.013262
-0.013683
-0.0142108
-0.0149956
-0.0158558
-0.0165727
-0.0170825
-0.0173607
-0.00627188
-0.0066781
-0.00747123
-0.00791991
-0.00807299
-0.00865482
-0.00939066
-0.00989177
-0.0104071
-0.0111533
-0.012059
-0.0129092
-0.0135298
-0.0139776
-0.0144933
-0.0152358
-0.0160782
-0.016799
-0.0173349
-0.0176372
-0.00650357
-0.00685324
-0.00760114
-0.00812733
-0.00834042
-0.00888473
-0.00963566
-0.0101832
-0.0106582
-0.0113407
-0.0122463
-0.0131341
-0.0137973
-0.0142763
-0.0147856
-0.0154805
-0.0162968
-0.0170208
-0.0175655
-0.0178944
-0.00673594
-0.00704036
-0.00774393
-0.00833388
-0.00861234
-0.0091217
-0.00987006
-0.0104731
-0.0109356
-0.0115499
-0.0124248
-0.0133403
-0.014055
-0.0145726
-0.0150852
-0.0157377
-0.0165125
-0.0172374
-0.0177854
-0.018127
-0.00696945
-0.00723884
-0.00790033
-0.00853946
-0.00888606
-0.00936876
-0.0100975
-0.0107506
-0.0112311
-0.0117871
-0.0126058
-0.0135294
-0.0142951
-0.0148597
-0.0153846
-0.0160086
-0.0167342
-0.0174466
-0.0179993
-0.0183406
-0.00720468
-0.00744814
-0.00807016
-0.00874406
-0.00915875
-0.00962748
-0.0103232
-0.0110115
-0.0115317
-0.0120517
-0.0128023
-0.0137053
-0.0145122
-0.0151322
-0.0156783
-0.016285
-0.0169674
-0.0176508
-0.0182061
-0.0185437
-0.00744174
-0.00766628
-0.00825357
-0.00894894
-0.00942891
-0.00989644
-0.0105528
-0.0112578
-0.0118222
-0.0123343
-0.0130229
-0.0138798
-0.0147068
-0.0153811
-0.0159596
-0.0165591
-0.0172097
-0.0178574
-0.0184058
-0.0187427
-0.00768076
-0.00789264
-0.00845033
-0.00915583
-0.00969412
-0.010172
-0.0107907
-0.0114943
-0.0120966
-0.0126223
-0.0132651
-0.0140653
-0.014886
-0.0156008
-0.016219
-0.0168233
-0.0174528
-0.0180694
-0.0186016
-0.0189389
-0.00792196
-0.00812531
-0.00866039
-0.00936628
-0.00995231
-0.0104502
-0.0110383
-0.0117255
-0.0123545
-0.0129039
-0.0135194
-0.0142657
-0.0150625
-0.0157987
-0.0164509
-0.0170687
-0.0176858
-0.0182781
-0.01879
-0.0191252
-0.00816611
-0.00836374
-0.00888085
-0.0095817
-0.0102045
-0.0107284
-0.0112949
-0.0119568
-0.0125984
-0.0131725
-0.013775
-0.0144728
-0.015237
-0.0159797
-0.0166578
-0.0172933
-0.0179072
-0.0184802
-0.01897
-0.0192951
-0.00841271
-0.00860542
-0.00911072
-0.00980439
-0.0104516
-0.011002
-0.0115568
-0.0121911
-0.012831
-0.0134267
-0.014028
-0.0146863
-0.0154076
-0.0161395
-0.0168327
-0.0174874
-0.0181122
-0.0186784
-0.0191513
-0.0194625
-0.00866238
-0.00885085
-0.00934734
-0.0100332
-0.0106952
-0.0112692
-0.0118211
-0.0124297
-0.0130555
-0.0136614
-0.0142668
-0.0149019
-0.0155822
-0.0162852
-0.0169757
-0.0176362
-0.0182759
-0.0188531
-0.0193228
-0.0196282
-0.0089149
-0.00910169
-0.00958834
-0.0102674
-0.0109373
-0.0115301
-0.0120831
-0.0126713
-0.0132795
-0.0138832
-0.0144825
-0.0151002
-0.015749
-0.01642
-0.0170964
-0.0177481
-0.0183853
-0.0189763
-0.0194582
-0.01977
-0.00916848
-0.0093505
-0.00983315
-0.010507
-0.0111796
-0.0117859
-0.0123411
-0.0129117
-0.0135028
-0.0140988
-0.0146849
-0.0152795
-0.0158972
-0.0165308
-0.0171833
-0.0178226
-0.0184467
-0.0190354
-0.0195291
-0.0198616
-0.0094241
-0.00960367
-0.0100791
-0.0107472
-0.0114202
-0.012036
-0.0125962
-0.013154
-0.0137244
-0.0143044
-0.0148703
-0.0154367
-0.0160211
-0.0166119
-0.0172291
-0.0178489
-0.0184517
-0.0190239
-0.0195166
-0.0198634
-0.00968094
-0.00985997
-0.0103263
-0.0109867
-0.0116598
-0.0122798
-0.0128432
-0.0133969
-0.0139543
-0.0145101
-0.0150409
-0.0155626
-0.0160968
-0.0166401
-0.0172209
-0.0178211
-0.0184098
-0.0189689
-0.0194516
-0.0197853
-0.0099358
-0.0101122
-0.0105735
-0.011226
-0.0118964
-0.0125196
-0.0130852
-0.013638
-0.0142001
-0.0147424
-0.0152269
-0.0156648
-0.0160889
-0.0165176
-0.0169924
-0.0175345
-0.0181272
-0.0187529
-0.0193704
-0.0198802
-0.0101879
-0.0103642
-0.0108187
-0.011459
-0.0121223
-0.012749
-0.0133192
-0.0138787
-0.0144609
-0.0150483
-0.0155827
-0.0159975
-0.0162887
-0.0165477
-0.0168465
-0.0171677
-0.0174481
-0.0176477
-0.0177924
-0.01796
-0.0104468
-0.0106156
-0.0110559
-0.0116685
-0.01231
-0.0129337
-0.0135343
-0.0141135
-0.0146124
-0.0150269
-0.0153943
-0.0157487
-0.0161168
-0.0164743
-0.0168231
-0.0171715
-0.0175027
-0.0178087
-0.0181153
-0.0184711
-0.0107159
-0.010908
-0.0113282
-0.0118965
-0.0124755
-0.0130236
-0.0135267
-0.0140239
-0.014534
-0.015035
-0.0155198
-0.0159784
-0.0164077
-0.0167963
-0.0171002
-0.0173264
-0.0174886
-0.0175896
-0.0176744
-0.0178269
-0.0109399
-0.0110624
-0.0114335
-0.0119666
-0.0125215
-0.0130603
-0.0135617
-0.0140714
-0.0146152
-0.0151317
-0.0155915
-0.0160034
-0.0163729
-0.0167387
-0.0171407
-0.0176161
-0.0182039
-0.0188779
-0.0195804
-0.020214
-0.011198
-0.0113493
-0.011636
-0.0120637
-0.0125618
-0.0130876
-0.0136002
-0.0141343
-0.0146961
-0.0152373
-0.0157155
-0.0161395
-0.0165238
-0.016853
-0.0171258
-0.0173238
-0.0174605
-0.0175658
-0.0176997
-0.017945
-0.0113726
-0.0114982
-0.0117497
-0.0121375
-0.012601
-0.0131083
-0.0136201
-0.014169
-0.0147379
-0.0152754
-0.0157556
-0.0161713
-0.0165485
-0.0168789
-0.0171683
-0.0174415
-0.0177291
-0.0180493
-0.0184029
-0.0188249
0.0136677
0.00305794
-0.00824701
-0.0156897
-0.0183114
-0.0184728
-0.0187989
-0.019738
-0.0207368
-0.0213152
-0.0214152
-0.0213837
-0.0215657
-0.0219691
-0.0224798
-0.0230603
-0.0235995
-0.0240232
-0.0244657
-0.0250114
-0.0255536
-0.0260223
-0.026442
-0.0268938
-0.0274717
-0.0281298
-0.0287372
-0.0293353
-0.0300709
-0.0309632
-0.0318679
-0.0326272
-0.033183
-0.033664
-0.0342123
-0.0348262
-0.0354476
-0.0360726
-0.0367163
-0.0373992
-0.0381281
-0.0389069
-0.0397486
-0.0406206
-0.0414292
-0.0421496
-0.0428473
-0.043557
-0.0443033
-0.0450951
-0.0459291
-0.0467892
-0.0476463
-0.0484864
-0.0493403
-0.0502157
-0.0511318
-0.052057
-0.0529947
-0.0539653
-0.0549653
-0.0559312
-0.056877
-0.0578714
-0.0588828
-0.0598979
-0.0609496
-0.0620397
-0.0631294
-0.0642253
-0.0653502
-0.0664918
-0.0676597
-0.0688239
-0.0700144
-0.0712525
-0.0725579
-0.0738667
-0.0751808
-0.0764996
-0.0778158
-0.0791855
-0.0805815
-0.0820315
-0.0834848
-0.0849826
-0.0864723
-0.0880078
-0.0895558
-0.0911659
-0.0927778
-0.0944119
-0.096133
-0.0978115
-0.0995446
-0.101265
-0.103014
-0.104708
-0.106436
-0.108193
0.0121548
0.00285854
-0.00817166
-0.0155423
-0.0182147
-0.0184232
-0.0187699
-0.0197214
-0.0207269
-0.0213091
-0.0214107
-0.0213792
-0.0215609
-0.0219644
-0.0224755
-0.0230566
-0.0235965
-0.0240203
-0.0244626
-0.0250086
-0.0255511
-0.02602
-0.0264398
-0.0268914
-0.0274693
-0.0281278
-0.0287354
-0.0293334
-0.0300689
-0.0309614
-0.0318664
-0.0326259
-0.0331818
-0.0336628
-0.0342111
-0.0348251
-0.0354466
-0.0360716
-0.0367154
-0.0373983
-0.0381273
-0.0389061
-0.0397479
-0.04062
-0.0414287
-0.0421491
-0.0428468
-0.0435565
-0.0443029
-0.0450946
-0.0459287
-0.0467888
-0.0476459
-0.048486
-0.0493399
-0.0502154
-0.0511314
-0.0520567
-0.0529944
-0.053965
-0.054965
-0.0559309
-0.0568767
-0.0578711
-0.0588826
-0.0598977
-0.0609494
-0.0620395
-0.0631292
-0.064225
-0.06535
-0.0664916
-0.0676595
-0.0688237
-0.0700142
-0.0712523
-0.0725577
-0.0738665
-0.0751806
-0.0764995
-0.0778157
-0.0791853
-0.0805814
-0.0820314
-0.0834846
-0.0849825
-0.0864722
-0.0880077
-0.0895557
-0.0911658
-0.0927777
-0.0944118
-0.0961329
-0.0978114
-0.0995445
-0.101265
-0.103014
-0.104708
-0.106436
-0.108193
0.0109562
0.00271142
-0.00800913
-0.0152829
-0.0180646
-0.0183707
-0.0187397
-0.0196949
-0.0207065
-0.0212953
-0.0214022
-0.0213739
-0.0215571
-0.0219606
-0.0224713
-0.0230527
-0.0235935
-0.0240177
-0.0244602
-0.0250063
-0.0255489
-0.0260179
-0.0264378
-0.0268895
-0.0274673
-0.0281259
-0.0287336
-0.0293316
-0.0300671
-0.03096
-0.0318653
-0.032625
-0.0331808
-0.0336616
-0.0342099
-0.034824
-0.0354457
-0.0360708
-0.0367146
-0.0373975
-0.0381265
-0.0389054
-0.0397472
-0.0406196
-0.0414283
-0.0421487
-0.0428464
-0.0435561
-0.0443024
-0.0450942
-0.0459283
-0.0467885
-0.0476456
-0.0484857
-0.0493396
-0.0502151
-0.0511312
-0.0520565
-0.0529941
-0.0539647
-0.0549648
-0.0559307
-0.0568765
-0.0578709
-0.0588824
-0.0598974
-0.0609492
-0.0620393
-0.063129
-0.0642249
-0.0653498
-0.0664915
-0.0676593
-0.0688235
-0.070014
-0.0712522
-0.0725576
-0.0738664
-0.0751805
-0.0764993
-0.0778156
-0.0791852
-0.0805813
-0.0820313
-0.0834845
-0.0849824
-0.0864721
-0.0880076
-0.0895556
-0.0911657
-0.0927776
-0.0944117
-0.0961328
-0.0978114
-0.0995444
-0.101265
-0.103014
-0.104708
-0.106436
-0.108194
0.00986893
0.00253651
-0.0078215
-0.0149721
-0.0178706
-0.018302
-0.0186964
-0.0196506
-0.0206668
-0.0212647
-0.0213831
-0.021365
-0.0215535
-0.0219574
-0.0224664
-0.0230469
-0.0235888
-0.0240148
-0.0244582
-0.0250041
-0.0255462
-0.0260155
-0.0264361
-0.0268879
-0.0274656
-0.0281239
-0.0287316
-0.0293297
-0.0300654
-0.0309585
-0.0318641
-0.0326241
-0.0331798
-0.0336604
-0.0342086
-0.0348228
-0.0354446
-0.0360698
-0.0367137
-0.0373966
-0.0381256
-0.0389045
-0.0397466
-0.0406191
-0.0414279
-0.0421483
-0.0428459
-0.0435556
-0.0443019
-0.0450938
-0.0459279
-0.0467881
-0.0476453
-0.0484854
-0.0493393
-0.0502148
-0.0511309
-0.0520562
-0.0529939
-0.0539645
-0.0549646
-0.0559305
-0.0568762
-0.0578707
-0.0588822
-0.0598972
-0.0609489
-0.0620391
-0.0631288
-0.0642247
-0.0653497
-0.0664913
-0.0676592
-0.0688234
-0.0700139
-0.071252
-0.0725574
-0.0738662
-0.0751804
-0.0764992
-0.0778154
-0.0791851
-0.0805811
-0.0820312
-0.0834844
-0.0849823
-0.086472
-0.0880075
-0.0895555
-0.0911656
-0.0927775
-0.0944116
-0.0961327
-0.0978113
-0.0995443
-0.101265
-0.103014
-0.104708
-0.106436
-0.108194
0.00878776
0.00230428
-0.00763597
-0.0146475
-0.0176585
-0.0182256
-0.018647
-0.0195932
-0.0206083
-0.0212152
-0.0213506
-0.0213499
-0.0215487
-0.0219545
-0.0224607
-0.0230387
-0.0235813
-0.0240107
-0.0244565
-0.0250021
-0.025543
-0.0260124
-0.0264345
-0.0268873
-0.0274643
-0.0281216
-0.0287291
-0.0293277
-0.0300638
-0.0309569
-0.0318625
-0.0326228
-0.0331787
-0.0336592
-0.0342072
-0.0348213
-0.0354432
-0.0360686
-0.0367126
-0.0373954
-0.0381243
-0.0389034
-0.0397457
-0.0406185
-0.0414274
-0.0421478
-0.0428454
-0.043555
-0.0443014
-0.0450933
-0.0459275
-0.0467877
-0.047645
-0.0484851
-0.049339
-0.0502144
-0.0511305
-0.0520559
-0.0529936
-0.0539642
-0.0549643
-0.0559303
-0.056876
-0.0578704
-0.0588819
-0.059897
-0.0609487
-0.0620389
-0.0631286
-0.0642245
-0.0653495
-0.0664911
-0.067659
-0.0688232
-0.0700137
-0.0712518
-0.0725572
-0.0738661
-0.0751802
-0.0764991
-0.0778153
-0.0791849
-0.080581
-0.0820311
-0.0834843
-0.0849822
-0.0864719
-0.0880074
-0.0895554
-0.0911655
-0.0927774
-0.0944115
-0.0961326
-0.0978112
-0.0995442
-0.101265
-0.103014
-0.104708
-0.106436
-0.108195
0.00771079
0.00202413
-0.00745771
-0.0143209
-0.0174362
-0.0181452
-0.0185983
-0.019532
-0.0205402
-0.0211533
-0.0213073
-0.0213287
-0.0215419
-0.0219514
-0.0224543
-0.0230282
-0.0235712
-0.024005
-0.0244545
-0.0249999
-0.0255389
-0.0260085
-0.0264333
-0.0268878
-0.0274638
-0.0281191
-0.0287264
-0.0293261
-0.0300626
-0.0309552
-0.0318601
-0.0326206
-0.0331771
-0.0336578
-0.0342056
-0.0348195
-0.0354415
-0.0360673
-0.0367113
-0.0373938
-0.0381226
-0.038902
-0.0397446
-0.0406176
-0.0414267
-0.042147
-0.0428446
-0.0435543
-0.0443007
-0.0450926
-0.0459269
-0.0467873
-0.0476446
-0.0484846
-0.0493385
-0.050214
-0.0511302
-0.0520556
-0.0529932
-0.0539639
-0.054964
-0.0559301
-0.0568757
-0.0578702
-0.0588817
-0.0598968
-0.0609485
-0.0620387
-0.0631284
-0.0642243
-0.0653493
-0.0664909
-0.0676588
-0.068823
-0.0700135
-0.0712516
-0.0725571
-0.073866
-0.0751801
-0.076499
-0.0778151
-0.0791848
-0.0805808
-0.0820309
-0.0834842
-0.0849821
-0.0864718
-0.0880073
-0.0895553
-0.0911654
-0.0927773
-0.0944114
-0.0961326
-0.0978112
-0.0995442
-0.101265
-0.103014
-0.104708
-0.106436
-0.108195
0.00664975
0.00170492
-0.00729187
-0.013997
-0.0172049
-0.0180601
-0.0185514
-0.0194707
-0.020468
-0.0210847
-0.0212573
-0.0213031
-0.0215331
-0.0219474
-0.022447
-0.0230163
-0.0235593
-0.0239981
-0.0244518
-0.0249969
-0.0255339
-0.026004
-0.0264323
-0.0268896
-0.0274641
-0.0281165
-0.0287235
-0.0293252
-0.0300626
-0.0309539
-0.0318572
-0.0326174
-0.0331747
-0.0336559
-0.0342035
-0.0348171
-0.0354394
-0.036066
-0.03671
-0.037392
-0.0381205
-0.0389001
-0.0397432
-0.0406164
-0.0414256
-0.042146
-0.0428437
-0.0435533
-0.0442998
-0.0450919
-0.0459263
-0.0467867
-0.047644
-0.0484841
-0.049338
-0.0502134
-0.0511297
-0.0520551
-0.0529928
-0.0539635
-0.0549637
-0.0559299
-0.0568755
-0.0578699
-0.0588814
-0.0598965
-0.0609482
-0.0620384
-0.0631282
-0.064224
-0.065349
-0.0664907
-0.0676586
-0.0688228
-0.0700132
-0.0712513
-0.0725569
-0.0738658
-0.0751799
-0.0764988
-0.077815
-0.0791846
-0.0805807
-0.0820308
-0.0834841
-0.084982
-0.0864717
-0.0880072
-0.0895551
-0.0911653
-0.0927772
-0.0944112
-0.0961325
-0.0978111
-0.0995441
-0.101265
-0.103014
-0.104708
-0.106436
-0.108196
0.00561656
0.00135048
-0.00714588
-0.0136807
-0.0169646
-0.0179678
-0.0185051
-0.0194099
-0.0203932
-0.0210118
-0.0212027
-0.0212739
-0.0215223
-0.0219425
-0.0224391
-0.0230034
-0.0235464
-0.0239905
-0.0244485
-0.0249931
-0.0255278
-0.0259989
-0.0264318
-0.0268923
-0.027465
-0.0281138
-0.0287206
-0.0293252
-0.030064
-0.0309536
-0.0318541
-0.0326133
-0.0331714
-0.0336532
-0.0342004
-0.0348137
-0.0354367
-0.0360646
-0.036709
-0.0373901
-0.038118
-0.0388979
-0.0397414
-0.0406147
-0.0414239
-0.0421446
-0.0428424
-0.0435521
-0.0442987
-0.045091
-0.0459255
-0.0467859
-0.0476433
-0.0484834
-0.0493373
-0.0502127
-0.051129
-0.0520546
-0.0529924
-0.053963
-0.0549633
-0.0559295
-0.0568752
-0.0578695
-0.0588811
-0.0598962
-0.060948
-0.0620382
-0.063128
-0.0642238
-0.0653488
-0.0664904
-0.0676584
-0.0688226
-0.070013
-0.0712511
-0.0725567
-0.0738657
-0.0751797
-0.0764986
-0.0778148
-0.0791844
-0.0805805
-0.0820306
-0.0834839
-0.0849818
-0.0864715
-0.088007
-0.089555
-0.0911652
-0.0927771
-0.0944111
-0.0961324
-0.097811
-0.0995441
-0.101265
-0.103014
-0.104708
-0.106436
-0.108198
0.00461893
0.000960608
-0.00702758
-0.0133758
-0.0167137
-0.0178642
-0.0184576
-0.0193498
-0.0203169
-0.0209356
-0.0211443
-0.0212417
-0.0215096
-0.0219365
-0.0224305
-0.02299
-0.0235331
-0.0239825
-0.0244447
-0.0249885
-0.025521
-0.0259935
-0.0264315
-0.0268956
-0.0274664
-0.028111
-0.0287177
-0.0293259
-0.0300667
-0.0309547
-0.0318519
-0.0326093
-0.0331675
-0.0336497
-0.0341962
-0.0348088
-0.035433
-0.036063
-0.0367082
-0.0373884
-0.0381155
-0.0388957
-0.0397397
-0.0406127
-0.0414217
-0.0421427
-0.0428408
-0.0435505
-0.0442974
-0.0450899
-0.0459245
-0.046785
-0.0476424
-0.0484825
-0.0493365
-0.0502118
-0.0511281
-0.0520538
-0.0529917
-0.0539624
-0.0549627
-0.0559291
-0.0568748
-0.0578691
-0.0588807
-0.0598959
-0.0609477
-0.0620379
-0.0631278
-0.0642236
-0.0653486
-0.0664902
-0.0676582
-0.0688224
-0.0700127
-0.0712508
-0.0725565
-0.0738655
-0.0751795
-0.0764984
-0.0778145
-0.0791842
-0.0805803
-0.0820304
-0.0834837
-0.0849816
-0.0864713
-0.0880069
-0.0895548
-0.091165
-0.092777
-0.094411
-0.0961323
-0.0978109
-0.099544
-0.101265
-0.103014
-0.104708
-0.106437
-0.108199
0.00365778
0.000534836
-0.00693969
-0.0130819
-0.0164503
-0.0177465
-0.0184086
-0.0192923
-0.0202404
-0.0208566
-0.0210824
-0.0212065
-0.0214951
-0.0219296
-0.0224213
-0.0229761
-0.0235192
-0.0239741
-0.0244405
-0.0249834
-0.0255137
-0.0259877
-0.0264312
-0.0268994
-0.0274682
-0.0281084
-0.0287149
-0.0293271
-0.0300705
-0.0309572
-0.0318508
-0.032606
-0.033164
-0.0336457
-0.0341909
-0.0348026
-0.0354281
-0.0360608
-0.0367074
-0.0373871
-0.0381134
-0.0388939
-0.0397382
-0.0406106
-0.0414192
-0.0421403
-0.0428386
-0.0435485
-0.0442957
-0.0450886
-0.0459234
-0.0467838
-0.0476412
-0.0484815
-0.0493355
-0.0502107
-0.0511269
-0.0520527
-0.0529908
-0.0539615
-0.0549619
-0.0559286
-0.0568744
-0.0578686
-0.0588801
-0.0598955
-0.0609474
-0.0620376
-0.0631275
-0.0642234
-0.0653483
-0.0664899
-0.0676579
-0.0688221
-0.0700123
-0.0712504
-0.0725562
-0.0738653
-0.0751793
-0.0764982