/*--------------------------------*- C++ -*----------------------------------*\
| =========                 |                                                 |
| \\      /  F ield         | OpenFOAM: The Open Source CFD Toolbox           |
|  \\    /   O peration     | Version:  v1906                                 |
|   \\  /    A nd           | Web:      www.OpenFOAM.com                      |
|    \\/     M anipulation  |                                                 |
\*---------------------------------------------------------------------------*/
FoamFile
{
    version     2.0;
    format      ascii;
    class       surfaceScalarField;
    location    "6.2";
    object      phi;
}
// * * * * * * * * * * * * * * * * * * * * * * * * * * * * * * * * * * * * * //

dimensions      [0 3 -1 0 0 0 0];
oriented        oriented;


internalField   nonuniform List<scalar> 
19000
(
1.19964e-06
1.60905e-06
1.13734e-06
-2.10889e-06
1.16552e-06
1.50015e-06
1.16414e-06
1.00373e-07
1.11253e-06
-6.82313e-07
1.13558e-06
-5.82141e-07
1.20535e-06
1.26396e-06
1.10578e-06
-1.15371e-06
1.17401e-06
1.48392e-06
1.104e-06
5.50538e-07
1.12805e-06
6.11482e-07
1.13237e-06
1.01177e-06
1.10008e-06
2.26327e-07
1.13132e-06
3.76195e-07
1.12261e-06
-2.64561e-07
1.1235e-06
-2.19152e-07
1.13568e-06
-4.62422e-07
1.12862e-06
-3.69072e-07
1.15105e-06
-2.45827e-07
-3.3856e-07
1.10169e-06
1.25376e-06
1.57955e-06
1.19212e-06
-2.04725e-06
1.21403e-06
1.47824e-06
1.21787e-06
9.65362e-08
1.16542e-06
-6.29866e-07
1.19069e-06
-6.07406e-07
1.25877e-06
1.19587e-06
1.15718e-06
-1.05211e-06
1.21911e-06
1.42198e-06
1.16533e-06
6.04314e-07
1.16843e-06
6.08381e-07
1.20616e-06
9.74047e-07
1.15672e-06
2.75773e-07
1.19912e-06
3.3379e-07
1.18157e-06
-2.47006e-07
1.19578e-06
-2.33368e-07
1.18684e-06
-4.53479e-07
1.20125e-06
-3.83483e-07
1.19415e-06
-2.38728e-07
-3.3031e-07
1.1859e-06
1.31063e-06
1.55171e-06
1.24938e-06
-1.986e-06
1.26507e-06
1.46254e-06
1.2742e-06
8.74051e-08
1.22445e-06
-5.80112e-07
1.24529e-06
-6.28249e-07
1.31357e-06
1.1276e-06
1.21581e-06
-9.54351e-07
1.26444e-06
1.37335e-06
1.23243e-06
6.36325e-07
1.2116e-06
6.29209e-07
1.26683e-06
9.18822e-07
1.21952e-06
3.23077e-07
1.24875e-06
3.04565e-07
1.23964e-06
-2.37897e-07
1.24851e-06
-2.42242e-07
1.23991e-06
-4.4488e-07
1.25089e-06
-3.9446e-07
1.25018e-06
-2.38012e-07
-3.17699e-07
1.23757e-06
1.3697e-06
1.52611e-06
1.31114e-06
-1.92744e-06
1.31907e-06
1.45462e-06
1.33483e-06
7.16397e-08
1.28891e-06
-5.34183e-07
1.30195e-06
-6.41298e-07
1.36921e-06
1.06034e-06
1.28373e-06
-8.68869e-07
1.31342e-06
1.34366e-06
1.30484e-06
6.44905e-07
1.26434e-06
6.69712e-07
1.31391e-06
8.69257e-07
1.28789e-06
3.49088e-07
1.30243e-06
2.90028e-07
1.30179e-06
-2.37261e-07
1.30875e-06
-2.49193e-07
1.30018e-06
-4.36313e-07
1.30778e-06
-4.02061e-07
1.30853e-06
-2.3876e-07
-3.04089e-07
1.29492e-06
1.43136e-06
1.50311e-06
1.37731e-06
-1.8734e-06
1.37827e-06
1.45366e-06
1.39937e-06
5.05422e-08
1.35885e-06
-4.93666e-07
1.36221e-06
-6.44662e-07
1.42644e-06
9.96112e-07
1.35969e-06
-8.02118e-07
1.37145e-06
1.3319e-06
1.37736e-06
6.38992e-07
1.33204e-06
7.15029e-07
1.36494e-06
8.36357e-07
1.36073e-06
3.53298e-07
1.37011e-06
2.80645e-07
1.37044e-06
-2.37587e-07
1.37794e-06
-2.56695e-07
1.3678e-06
-4.26173e-07
1.37164e-06
-4.05896e-07
1.37259e-06
-2.39713e-07
-2.90756e-07
1.35926e-06
1.49602e-06
1.48276e-06
1.44738e-06
-1.82476e-06
1.44436e-06
1.45668e-06
1.46736e-06
2.75377e-08
1.43368e-06
-4.59984e-07
1.42779e-06
-6.38771e-07
1.4866e-06
9.37301e-07
1.43984e-06
-7.55351e-07
1.43935e-06
1.33239e-06
1.44954e-06
6.28808e-07
1.41179e-06
7.52776e-07
1.43005e-06
8.18097e-07
1.43808e-06
3.45261e-07
1.44817e-06
2.70559e-07
1.44586e-06
-2.35272e-07
1.45187e-06
-2.62711e-07
1.44051e-06
-4.14808e-07
1.44024e-06
-4.05627e-07
1.44054e-06
-2.40017e-07
-2.77995e-07
1.42778e-06
1.56414e-06
1.46484e-06
1.52084e-06
-1.78146e-06
1.51777e-06
1.45975e-06
1.53885e-06
6.46018e-09
1.51228e-06
-4.33413e-07
1.49967e-06
-6.26161e-07
1.55109e-06
8.85874e-07
1.52012e-06
-7.24378e-07
1.51421e-06
1.3383e-06
1.52335e-06
6.19664e-07
1.49778e-06
7.78352e-07
1.50806e-06
8.07817e-07
1.52035e-06
3.32969e-07
1.53156e-06
2.59346e-07
1.52637e-06
-2.3008e-07
1.52944e-06
-2.65783e-07
1.51669e-06
-4.02055e-07
1.51289e-06
-4.01825e-07
1.51173e-06
-2.38863e-07
-2.65151e-07
1.49889e-06
1.63606e-06
1.44891e-06
1.59743e-06
-1.74284e-06
1.59776e-06
1.45943e-06
1.61412e-06
-9.9061e-09
1.59347e-06
-4.12756e-07
1.57772e-06
-6.10419e-07
1.62075e-06
8.42852e-07
1.59863e-06
-7.02258e-07
1.59279e-06
1.34414e-06
1.60031e-06
6.12142e-07
1.58646e-06
7.92198e-07
1.59405e-06
8.00234e-07
1.60702e-06
3.19999e-07
1.61809e-06
2.4827e-07
1.61056e-06
-2.22549e-07
1.61076e-06
-2.6598e-07
1.59652e-06
-3.87821e-07
1.58957e-06
-3.94867e-07
1.58679e-06
-2.36082e-07
-2.51427e-07
1.57306e-06
1.71204e-06
1.43445e-06
1.67721e-06
-1.70801e-06
1.68305e-06
1.45359e-06
1.69344e-06
-2.03004e-08
1.67661e-06
-3.95921e-07
1.66102e-06
-5.94836e-07
1.69561e-06
8.08263e-07
1.67606e-06
-6.82705e-07
1.67382e-06
1.34638e-06
1.68086e-06
6.05102e-07
1.67707e-06
7.95989e-07
1.68458e-06
7.92722e-07
1.69718e-06
3.074e-07
1.70723e-06
2.38225e-07
1.69789e-06
-2.13211e-07
1.69569e-06
-2.6378e-07
1.6804e-06
-3.72527e-07
1.67056e-06
-3.85031e-07
1.66621e-06
-2.31738e-07
-2.36568e-07
1.65136e-06
1.79226e-06
1.42091e-06
1.76033e-06
-1.67607e-06
1.77247e-06
1.44145e-06
1.77687e-06
-2.4695e-08
1.76177e-06
-3.80823e-07
1.74836e-06
-5.81426e-07
1.77535e-06
7.81268e-07
1.75464e-06
-6.6199e-07
1.75782e-06
1.3432e-06
1.76509e-06
5.97823e-07
1.77004e-06
7.91045e-07
1.77831e-06
7.84452e-07
1.79021e-06
2.95495e-07
1.79877e-06
2.29669e-07
1.78806e-06
-2.02505e-07
1.78387e-06
-2.59583e-07
1.76809e-06
-3.56752e-07
1.75591e-06
-3.72846e-07
1.75009e-06
-2.25925e-07
-2.208e-07
1.73432e-06
1.87685e-06
1.40781e-06
1.84699e-06
-1.64621e-06
1.86526e-06
1.42317e-06
1.86434e-06
-2.37811e-08
1.84953e-06
-3.6601e-07
1.83879e-06
-5.70688e-07
1.85975e-06
7.60313e-07
1.83664e-06
-6.38881e-07
1.84582e-06
1.33402e-06
1.85332e-06
5.90325e-07
1.86596e-06
7.78404e-07
1.87491e-06
7.75502e-07
1.88582e-06
2.84589e-07
1.89255e-06
2.22936e-07
1.88077e-06
-1.90727e-07
1.8749e-06
-2.53711e-07
1.85907e-06
-3.40919e-07
1.84531e-06
-3.5909e-07
1.83816e-06
-2.18776e-07
-2.04591e-07
1.82195e-06
1.9659e-06
1.39475e-06
1.93736e-06
-1.61767e-06
1.96102e-06
1.39951e-06
1.95582e-06
-1.85832e-08
1.94064e-06
-3.50828e-07
1.9319e-06
-5.61952e-07
1.94881e-06
7.43403e-07
1.92349e-06
-6.13557e-07
1.93858e-06
1.31892e-06
1.94604e-06
5.82872e-07
1.96516e-06
7.59281e-07
1.97429e-06
7.66373e-07
1.98388e-06
2.74999e-07
1.98851e-06
2.18303e-07
1.97584e-06
-1.78056e-07
1.96858e-06
-2.46451e-07
1.95286e-06
-3.25194e-07
1.93834e-06
-3.44575e-07
1.93007e-06
-2.10504e-07
-1.88473e-07
1.91395e-06
2.05952e-06
1.38142e-06
2.03164e-06
-1.58979e-06
2.05968e-06
1.37147e-06
2.05134e-06
-1.02441e-08
2.03578e-06
-3.35271e-07
2.02778e-06
-5.53949e-07
2.04264e-06
7.28546e-07
2.01567e-06
-5.86594e-07
2.03628e-06
1.29831e-06
2.04348e-06
5.7568e-07
2.0675e-06
7.35254e-07
2.07621e-06
7.57671e-07
2.08438e-06
2.66829e-07
2.08684e-06
2.15839e-07
2.07344e-06
-1.64659e-07
2.06511e-06
-2.38118e-07
2.04937e-06
-3.09449e-07
2.0348e-06
-3.30007e-07
2.02563e-06
-2.01334e-07
-1.72905e-07
2.01006e-06
2.15786e-06
1.36756e-06
2.13006e-06
-1.56198e-06
2.16138e-06
1.34014e-06
2.15102e-06
1.12537e-10
2.13547e-06
-3.19721e-07
2.12687e-06
-5.45346e-07
2.14121e-06
7.1421e-07
2.11309e-06
-5.58474e-07
2.13874e-06
1.27266e-06
2.14533e-06
5.69081e-07
2.17254e-06
7.08054e-07
2.18036e-06
7.4985e-07
2.18738e-06
2.59801e-07
2.188e-06
2.15218e-07
2.17409e-06
-1.50741e-07
2.1651e-06
-2.29127e-07
2.14898e-06
-2.9333e-07
2.13483e-06
-3.15865e-07
2.125e-06
-1.91502e-07
-1.58117e-07
2.11022e-06
2.26108e-06
1.35297e-06
2.2329e-06
-1.5338e-06
2.26643e-06
1.30662e-06
2.25503e-06
1.15082e-08
2.24002e-06
-3.0471e-07
2.22977e-06
-5.35096e-07
2.24443e-06
6.99548e-07
2.21548e-06
-5.29519e-07
2.24573e-06
1.24241e-06
2.25105e-06
5.63759e-07
2.27991e-06
6.79195e-07
2.2867e-06
7.43056e-07
2.29314e-06
2.5336e-07
2.29267e-06
2.15696e-07
2.27842e-06
-1.36499e-07
2.2693e-06
-2.20003e-07
2.25242e-06
-2.76449e-07
2.23888e-06
-3.02325e-07
2.22872e-06
-1.8134e-07
-1.43954e-07
2.21455e-06
2.36938e-06
1.33746e-06
2.34042e-06
-1.50484e-06
2.37524e-06
1.27179e-06
2.36354e-06
2.32154e-08
2.34958e-06
-2.90758e-07
2.337e-06
-5.22509e-07
2.35227e-06
6.84272e-07
2.32271e-06
-4.99956e-07
2.35718e-06
1.20794e-06
2.36029e-06
5.60645e-07
2.38974e-06
6.49748e-07
2.39566e-06
7.37133e-07
2.40205e-06
2.4697e-07
2.40148e-06
2.16268e-07
2.387e-06
-1.22022e-07
2.37833e-06
-2.11337e-07
2.36046e-06
-2.5857e-07
2.34743e-06
-2.89301e-07
2.33736e-06
-1.71273e-07
-1.29985e-07
2.32339e-06
2.48297e-06
1.32089e-06
2.45286e-06
-1.47473e-06
2.48832e-06
1.23633e-06
2.47674e-06
3.48002e-08
2.46426e-06
-2.78279e-07
2.44889e-06
-5.0714e-07
2.46487e-06
6.68291e-07
2.43481e-06
-4.69889e-07
2.47301e-06
1.16974e-06
2.4732e-06
5.60457e-07
2.50262e-06
6.20324e-07
2.50801e-06
7.31749e-07
2.51461e-06
2.40366e-07
2.51495e-06
2.15934e-07
2.50018e-06
-1.07252e-07
2.4925e-06
-2.0366e-07
2.47367e-06
-2.3974e-07
2.46083e-06
-2.76459e-07
2.45137e-06
-1.61813e-07
-1.15788e-07
2.43717e-06
2.60207e-06
1.30311e-06
2.57041e-06
-1.44306e-06
2.60618e-06
1.20055e-06
2.59488e-06
4.61065e-08
2.58413e-06
-2.67536e-07
2.56567e-06
-4.88677e-07
2.58255e-06
6.51415e-07
2.5519e-06
-4.39239e-07
2.59316e-06
1.12847e-06
2.59032e-06
5.63299e-07
2.61947e-06
5.91176e-07
2.6247e-06
7.26524e-07
2.63145e-06
2.3361e-07
2.63347e-06
2.13913e-07
2.61823e-06
-9.20108e-08
2.61188e-06
-1.97303e-07
2.59247e-06
-2.20333e-07
2.57924e-06
-2.63235e-07
2.57094e-06
-1.53511e-07
-1.01224e-07
2.55638e-06
2.72689e-06
1.28404e-06
2.69332e-06
-1.40949e-06
2.72937e-06
1.1645e-06
2.71827e-06
5.72159e-08
2.70937e-06
-2.58637e-07
2.68764e-06
-4.66953e-07
2.70573e-06
6.33325e-07
2.67426e-06
-4.0777e-07
2.71776e-06
1.08498e-06
2.71239e-06
5.68661e-07
2.74125e-06
5.62324e-07
2.74667e-06
7.21099e-07
2.75326e-06
2.2702e-07
2.75748e-06
2.09693e-07
2.74153e-06
-7.60558e-08
2.73652e-06
-1.92297e-07
2.71716e-06
-2.00974e-07
2.70284e-06
-2.48913e-07
2.69615e-06
-1.46817e-07
-8.65623e-08
2.68148e-06
2.85766e-06
1.26365e-06
2.82194e-06
-1.37377e-06
2.85846e-06
1.12798e-06
2.84728e-06
6.83967e-08
2.8402e-06
-2.51559e-07
2.81528e-06
-4.42029e-07
2.83488e-06
6.13719e-07
2.80234e-06
-3.75231e-07
2.84728e-06
1.04003e-06
2.84019e-06
5.7575e-07
2.86883e-06
5.3369e-07
2.87481e-06
7.15114e-07
2.88073e-06
2.21105e-07
2.88742e-06
2.02996e-07
2.87055e-06
-5.91791e-08
2.86657e-06
-1.88316e-07
2.84804e-06
-1.82446e-07
2.83192e-06
-2.32792e-07
2.82701e-06
-1.41905e-07
-7.24056e-08
2.81285e-06
2.99463e-06
1.24192e-06
2.95665e-06
-1.3358e-06
2.99394e-06
1.0907e-06
2.98231e-06
8.00283e-08
2.97695e-06
-2.46194e-07
2.94912e-06
-4.14203e-07
2.97039e-06
5.92444e-07
2.93666e-06
-3.41496e-07
2.9825e-06
9.94195e-07
2.97443e-06
5.83819e-07
3.00288e-06
5.0524e-07
3.00981e-06
7.08187e-07
3.01448e-06
2.16426e-07
3.0237e-06
1.93784e-07
3.00586e-06
-4.13373e-08
3.00225e-06
-1.84708e-07
2.98534e-06
-1.65535e-07
2.96701e-06
-2.14464e-07
2.96353e-06
-1.3843e-07
-5.9618e-08
2.95075e-06
3.13808e-06
1.21885e-06
3.09786e-06
-1.29558e-06
3.13622e-06
1.05234e-06
3.12374e-06
9.25109e-08
3.11995e-06
-2.42405e-07
3.08966e-06
-3.83914e-07
3.11258e-06
5.69528e-07
3.07771e-06
-3.06631e-07
3.12412e-06
9.47788e-07
3.11566e-06
5.92275e-07
3.1438e-06
4.77103e-07
3.15213e-06
6.9986e-07
3.15501e-06
2.13548e-07
3.1666e-06
1.82192e-07
3.14797e-06
-2.27041e-08
3.14386e-06
-1.80601e-07
3.12928e-06
-1.50959e-07
3.10875e-06
-1.9393e-07
3.10583e-06
-1.35507e-07
-4.91427e-08
3.09535e-06
3.28833e-06
1.19442e-06
3.24592e-06
-1.25317e-06
3.2856e-06
1.01266e-06
3.27192e-06
1.06188e-07
3.26958e-06
-2.40059e-07
3.23729e-06
-3.51624e-07
3.26168e-06
5.45129e-07
3.22592e-06
-2.70867e-07
3.27264e-06
9.01068e-07
3.2643e-06
6.0061e-07
3.29182e-06
4.49589e-07
3.30204e-06
6.89635e-07
3.30266e-06
2.12929e-07
3.31634e-06
1.68518e-07
3.29733e-06
-3.69512e-09
3.29177e-06
-1.75048e-07
3.28008e-06
-1.39269e-07
3.25777e-06
-1.71612e-07
3.2542e-06
-1.3194e-07
-4.17025e-08
3.24676e-06
3.44573e-06
1.16863e-06
3.40117e-06
-1.20861e-06
3.44234e-06
9.71498e-07
3.42721e-06
1.21309e-07
3.4262e-06
-2.39042e-07
3.39231e-06
-3.17737e-07
3.41793e-06
5.19507e-07
3.38163e-06
-2.34569e-07
3.42836e-06
8.54345e-07
3.42063e-06
6.08335e-07
3.44709e-06
4.23127e-07
3.45967e-06
6.7706e-07
3.45778e-06
2.14818e-07
3.47307e-06
1.53229e-07
3.4543e-06
1.50716e-08
3.44646e-06
-1.67202e-07
3.43784e-06
-1.30651e-07
3.41461e-06
-1.48388e-07
3.40912e-06
-1.2645e-07
-3.75816e-08
3.405e-06
3.6106e-06
1.14144e-06
3.56394e-06
-1.16195e-06
3.60669e-06
9.28744e-07
3.58997e-06
1.38027e-07
3.59019e-06
-2.39261e-07
3.55506e-06
-2.82599e-07
3.58155e-06
4.93012e-07
3.5452e-06
-1.98215e-07
3.59148e-06
8.08061e-07
3.58489e-06
6.14923e-07
3.60982e-06
3.98196e-07
3.6251e-06
6.61787e-07
3.62069e-06
2.1922e-07
3.63699e-06
1.36936e-07
3.61923e-06
3.28248e-08
3.60845e-06
-1.5642e-07
3.60264e-06
-1.24838e-07
3.5797e-06
-1.25452e-07
3.57128e-06
-1.18029e-07
-3.6457e-08
3.57016e-06
3.7833e-06
1.11285e-06
3.73456e-06
-1.11321e-06
3.77897e-06
8.84332e-07
3.76059e-06
1.56406e-07
3.76195e-06
-2.40619e-07
3.72587e-06
-2.46524e-07
3.75279e-06
4.66092e-07
3.71697e-06
-1.62389e-07
3.76224e-06
7.62791e-07
3.75732e-06
6.19838e-07
3.78028e-06
3.75233e-07
3.79843e-06
6.43646e-07
3.79176e-06
2.2589e-07
3.80835e-06
1.20342e-07
3.79237e-06
4.88064e-08
3.77835e-06
-1.424e-07
3.77471e-06
-1.21197e-07
3.75323e-06
-1.03976e-07
3.74155e-06
-1.06349e-07
-3.72197e-08
3.74231e-06
3.96418e-06
1.08285e-06
3.91339e-06
-1.06242e-06
3.9595e-06
8.38225e-07
3.93947e-06
1.76437e-07
3.94184e-06
-2.42993e-07
3.90516e-06
-2.09845e-07
3.93194e-06
4.39312e-07
3.89732e-06
-1.27768e-07
3.94093e-06
7.19178e-07
3.93818e-06
6.22591e-07
3.95886e-06
3.54552e-07
3.9798e-06
6.22703e-07
3.97134e-06
2.34355e-07
3.98746e-06
1.04217e-07
3.97394e-06
6.23293e-08
3.95674e-06
-1.25198e-07
3.95429e-06
-1.18752e-07
3.9354e-06
-8.50863e-08
3.92065e-06
-9.15953e-08
-3.83667e-08
3.9218e-06
4.15363e-06
1.05148e-06
4.10083e-06
-1.00963e-06
4.14864e-06
7.90417e-07
4.12704e-06
1.98038e-07
4.13024e-06
-2.46196e-07
4.09336e-06
-1.72957e-07
4.11932e-06
4.13352e-07
4.08662e-06
-9.50728e-08
4.12799e-06
6.77814e-07
4.12774e-06
6.22838e-07
4.146e-06
3.36294e-07
4.1695e-06
5.99198e-07
4.15977e-06
2.44087e-07
4.17472e-06
8.92652e-08
4.16418e-06
7.28716e-08
4.1441e-06
-1.05121e-07
4.14182e-06
-1.16469e-07
4.12628e-06
-6.95408e-08
4.10923e-06
-7.45495e-08
-3.82551e-08
4.10912e-06
4.35203e-06
1.01875e-06
4.29729e-06
-9.54891e-07
4.34677e-06
7.40935e-07
4.32376e-06
2.21055e-07
4.32753e-06
-2.49964e-07
4.29091e-06
-1.36345e-07
4.31529e-06
3.88976e-07
4.28524e-06
-6.50199e-08
4.32389e-06
6.39163e-07
4.3263e-06
6.20424e-07
4.34219e-06
3.2041e-07
4.36785e-06
5.73532e-07
4.3574e-06
2.54535e-07
4.37056e-06
7.61123e-08
4.36326e-06
8.01668e-08
4.34089e-06
-8.27506e-08
4.3377e-06
-1.13281e-07
4.32592e-06
-5.77624e-08
4.30777e-06
-5.63919e-08
-3.55317e-08
4.30504e-06
4.55982e-06
9.847e-07
4.50322e-06
-8.98287e-07
4.55429e-06
6.89865e-07
4.53008e-06
2.45259e-07
4.53406e-06
-2.53935e-07
4.49831e-06
-1.00595e-07
4.52029e-06
3.66995e-07
4.49353e-06
-3.82613e-08
4.5292e-06
6.03487e-07
4.53422e-06
6.15407e-07
4.54795e-06
3.06685e-07
4.57526e-06
5.46221e-07
4.56463e-06
2.65159e-07
4.57541e-06
6.53335e-08
4.57143e-06
8.4153e-08
4.54754e-06
-5.8861e-08
4.54239e-06
-1.08139e-07
4.53444e-06
-4.98096e-08
4.51659e-06
-3.85403e-08
-2.94321e-08
4.51049e-06
4.77745e-06
9.49363e-07
4.71908e-06
-8.39915e-07
4.77158e-06
6.37361e-07
4.7465e-06
2.70345e-07
4.75022e-06
-2.57653e-07
4.71602e-06
-6.63972e-08
4.73488e-06
3.48129e-07
4.71182e-06
-1.51962e-08
4.74457e-06
5.70741e-07
4.75186e-06
6.08112e-07
4.76377e-06
2.94777e-07
4.79221e-06
5.1778e-07
4.78184e-06
2.75528e-07
4.78979e-06
5.73855e-08
4.78902e-06
8.49212e-08
4.76446e-06
-3.43018e-08
4.75657e-06
-1.00251e-07
4.75203e-06
-4.52713e-08
4.73591e-06
-2.24145e-08
-1.99963e-08
4.72647e-06
5.00539e-06
9.12767e-07
4.94538e-06
-7.79897e-07
4.99908e-06
5.83653e-07
4.97349e-06
2.95942e-07
4.97642e-06
-2.60585e-07
4.94455e-06
-3.45301e-08
4.95972e-06
3.32963e-07
4.94046e-06
4.05746e-09
4.97057e-06
5.40637e-07
4.97968e-06
5.99e-07
4.99012e-06
2.84341e-07
5.01925e-06
4.88648e-07
5.00946e-06
2.85318e-07
5.0143e-06
5.25449e-08
5.01644e-06
8.27806e-08
4.99219e-06
-1.00458e-08
4.98115e-06
-8.92185e-08
4.97898e-06
-4.31017e-08
4.96585e-06
-9.28659e-09
-7.97674e-09
4.95384e-06
5.24414e-06
8.74944e-07
5.18263e-06
-7.18389e-07
5.23723e-06
5.29052e-07
5.21157e-06
3.21604e-07
5.21311e-06
-2.62124e-07
5.18442e-06
-5.83907e-09
5.19545e-06
3.21932e-07
5.17982e-06
1.96894e-08
5.20782e-06
5.12633e-07
5.21817e-06
5.8865e-07
5.22742e-06
2.75096e-07
5.25696e-06
4.59106e-07
5.248e-06
2.94274e-07
5.24952e-06
5.1022e-08
5.25421e-06
7.80951e-08
5.23123e-06
1.29367e-08
5.21704e-06
-7.50271e-08
5.21576e-06
-4.18241e-08
5.20639e-06
7.82072e-11
5.06226e-09
5.19335e-06
5.4942e-06
8.35937e-07
5.4314e-06
-6.55589e-07
5.4865e-06
4.73945e-07
5.4613e-06
3.4681e-07
5.46077e-06
-2.61596e-07
5.43613e-06
1.8804e-08
5.44277e-06
3.15292e-07
5.43027e-06
3.21868e-08
5.45689e-06
4.86013e-07
5.4679e-06
5.77635e-07
5.47611e-06
2.66895e-07
5.50588e-06
4.2933e-07
5.49805e-06
3.02109e-07
5.49607e-06
5.29959e-08
5.50285e-06
7.1317e-08
5.48214e-06
3.36515e-08
5.46497e-06
-5.78609e-08
5.46324e-06
-4.00934e-08
5.45742e-06
5.89936e-09
1.71138e-08
5.44537e-06
5.75609e-06
7.95808e-07
5.69224e-06
-5.91743e-07
5.74739e-06
4.18795e-07
5.72325e-06
3.70947e-07
5.71993e-06
-2.58272e-07
5.70008e-06
3.86593e-08
5.70238e-06
3.12987e-07
5.69226e-06
4.23024e-08
5.71831e-06
4.59968e-07
5.72953e-06
5.66417e-07
5.73661e-06
2.5981e-07
5.76658e-06
3.99365e-07
5.7602e-06
3.08482e-07
5.75457e-06
5.86316e-08
5.76291e-06
6.29727e-08
5.74529e-06
5.12763e-08
5.72563e-06
-3.82009e-08
5.72245e-06
-3.6919e-08
5.7195e-06
8.85374e-09
2.70617e-08
5.70955e-06
6.03035e-06
7.54647e-07
5.96576e-06
-5.2715e-07
6.02043e-06
3.64129e-07
5.99806e-06
3.93317e-07
5.99117e-06
-2.51381e-07
5.97663e-06
5.31971e-08
5.975e-06
3.14616e-07
5.96631e-06
5.09877e-08
5.99254e-06
4.33741e-07
6.00377e-06
5.5519e-07
6.00944e-06
2.54141e-07
6.03955e-06
3.69257e-07
6.03507e-06
3.12963e-07
6.02583e-06
6.78628e-08
6.03482e-06
5.39853e-08
6.02102e-06
6.50823e-08
5.99967e-06
-1.68539e-08
5.99435e-06
-3.15965e-08
5.9931e-06
1.01027e-08
3.42188e-08
5.98594e-06
6.31756e-06
7.12572e-07
6.25258e-06
-4.62165e-07
6.30617e-06
3.10541e-07
6.28635e-06
4.13133e-07
6.2751e-06
-2.40132e-07
6.26615e-06
6.21435e-08
6.26134e-06
3.19431e-07
6.253e-06
5.93266e-08
6.28003e-06
4.06713e-07
6.29135e-06
5.43864e-07
6.29515e-06
2.50346e-07
6.3253e-06
3.39104e-07
6.32324e-06
3.15029e-07
6.31066e-06
8.04409e-08
6.31913e-06
4.55145e-08
6.30969e-06
7.45217e-08
6.28763e-06
5.20216e-09
6.27978e-06
-2.37412e-08
6.27925e-06
1.06309e-08
3.88241e-08
6.27465e-06
6.61831e-06
6.69733e-07
6.55334e-06
-3.97201e-07
6.60523e-06
2.58657e-07
6.58879e-06
4.29568e-07
6.57247e-06
-2.23814e-07
6.56907e-06
6.55497e-08
6.56213e-06
3.26367e-07
6.55303e-06
6.84306e-08
6.58118e-06
3.78558e-07
6.59299e-06
5.32056e-07
6.59453e-06
2.48803e-07
6.62431e-06
3.09332e-07
6.62532e-06
3.14014e-07
6.60983e-06
9.59318e-08
6.61642e-06
3.8929e-08
6.61161e-06
7.93316e-08
6.59012e-06
2.66861e-08
6.57953e-06
-1.31466e-08
6.57898e-06
1.11778e-08
4.1573e-08
6.57623e-06
6.93321e-06
6.26315e-07
6.86873e-06
-3.32723e-07
6.91826e-06
2.09125e-07
6.90604e-06
4.41789e-07
6.88419e-06
-2.01965e-07
6.88583e-06
6.39168e-08
6.87813e-06
3.34065e-07
6.8672e-06
7.93551e-08
6.89645e-06
3.49315e-07
6.90937e-06
5.19128e-07
6.90838e-06
2.49799e-07
6.93716e-06
2.80554e-07
6.94177e-06
3.09399e-07
6.92416e-06
1.1354e-07
6.92752e-06
3.55685e-08
6.92715e-06
7.97088e-08
6.90756e-06
4.62725e-08
6.89435e-06
6.22287e-11
6.89314e-06
1.23873e-08
4.30172e-08
6.8917e-06
7.26292e-06
5.82535e-07
7.19944e-06
-2.69251e-07
7.24594e-06
1.62626e-07
7.23874e-06
4.48995e-07
7.21122e-06
-1.74448e-07
7.21698e-06
5.81563e-08
7.21002e-06
3.41024e-07
7.19642e-06
9.29581e-08
7.22634e-06
3.19396e-07
7.24111e-06
5.04353e-07
7.23755e-06
2.53366e-07
7.26451e-06
2.53593e-07
7.27299e-06
3.00916e-07
7.25439e-06
1.32139e-07
7.25347e-06
3.64928e-08
7.25667e-06
7.65014e-08
7.2404e-06
6.2542e-08
7.22506e-06
1.54018e-08
7.22248e-06
1.4971e-08
4.34508e-08
7.22205e-06
7.60811e-06
5.38653e-07
7.54621e-06
-2.07357e-07
7.58898e-06
1.19857e-07
7.58748e-06
4.50501e-07
7.55451e-06
-1.41486e-07
7.56318e-06
4.94878e-08
7.55843e-06
3.45774e-07
7.5417e-06
1.09692e-07
7.57144e-06
2.89653e-07
7.58872e-06
4.87071e-07
7.58298e-06
2.59114e-07
7.60718e-06
2.29391e-07
7.61927e-06
2.88825e-07
7.60108e-06
1.50328e-07
7.59554e-06
4.2033e-08
7.60062e-06
7.14158e-08
7.58891e-06
7.42592e-08
7.57249e-06
3.1821e-08
7.56789e-06
1.95685e-08
4.32816e-08
7.56806e-06
7.9695e-06
4.94963e-07
7.90977e-06
-1.4763e-07
7.94811e-06
8.15177e-08
7.95275e-06
4.45869e-07
7.91505e-06
-1.03791e-07
7.9251e-06
3.94375e-08
7.92391e-06
3.46969e-07
7.90412e-06
1.29479e-07
7.93241e-06
2.61359e-07
7.95272e-06
4.66761e-07
7.94553e-06
2.66307e-07
7.96585e-06
2.09075e-07
7.98112e-06
2.73546e-07
7.96469e-06
1.6676e-07
7.95498e-06
5.17421e-08
7.96015e-06
6.62493e-08
7.95312e-06
8.12928e-08
7.93736e-06
4.75796e-08
7.93028e-06
2.66483e-08
4.31095e-08
7.93045e-06
8.34784e-06
4.51809e-07
8.29088e-06
-9.06766e-08
8.32409e-06
4.83049e-08
8.33506e-06
4.34901e-07
8.29378e-06
-6.25077e-08
8.30347e-06
2.97472e-08
8.30694e-06
3.435e-07
8.2847e-06
1.5172e-07
8.31003e-06
2.36026e-07
8.33353e-06
4.43265e-07
8.32586e-06
2.73972e-07
8.34131e-06
1.93625e-07
8.35911e-06
2.55749e-07
8.34563e-06
1.80243e-07
8.33278e-06
6.45931e-08
8.33638e-06
6.26468e-08
8.33359e-06
8.40817e-08
8.31985e-06
6.13197e-08
8.31084e-06
3.56534e-08
4.38582e-08
8.3101e-06
8.74389e-06
4.09576e-07
8.69042e-06
-3.72067e-08
8.71773e-06
2.09993e-08
8.73498e-06
4.17647e-07
8.69156e-06
-1.90845e-08
8.69911e-06
2.21996e-08
8.70784e-06
3.34766e-07
8.68436e-06
1.752e-07
8.70518e-06
2.15207e-07
8.73148e-06
4.1697e-07
8.72444e-06
2.81008e-07
8.73441e-06
1.8366e-07
8.75374e-06
2.36416e-07
8.74434e-06
1.89638e-07
8.72969e-06
7.92462e-08
8.73072e-06
6.16184e-08
8.73106e-06
8.37445e-08
8.72025e-06
7.2124e-08
8.71042e-06
4.54882e-08
4.62108e-08
8.70807e-06
9.1585e-06
3.68694e-07
9.10937e-06
1.19258e-08
9.12991e-06
4.54258e-10
9.15316e-06
3.94402e-07
9.10931e-06
2.47645e-08
9.11298e-06
1.8529e-08
9.12691e-06
3.20838e-07
9.10372e-06
1.98393e-07
9.11883e-06
2.00091e-07
9.14689e-06
3.88913e-07
9.14168e-06
2.86213e-07
9.1462e-06
1.79146e-07
9.16585e-06
2.16765e-07
9.16146e-06
1.94028e-07
9.14642e-06
9.42876e-08
9.14449e-06
6.35428e-08
9.14659e-06
8.16496e-08
9.13902e-06
7.96914e-08
9.12945e-06
5.5054e-08
5.00588e-08
9.12561e-06
9.59254e-06
3.29616e-07
9.54867e-06
5.5798e-08
9.56163e-06
-1.25093e-08
9.59034e-06
3.65689e-07
9.5481e-06
6.70105e-08
9.54608e-06
2.05429e-08
9.56433e-06
3.02587e-07
9.54328e-06
2.19441e-07
9.55199e-06
1.91385e-07
9.58068e-06
3.60223e-07
9.57856e-06
2.88336e-07
9.57865e-06
1.79055e-07
9.59703e-06
1.98386e-07
9.59756e-06
1.93492e-07
9.58374e-06
1.08106e-07
9.57894e-06
6.83494e-08
9.58145e-06
7.91325e-08
9.57693e-06
8.42184e-08
9.56842e-06
6.35613e-08
5.47601e-08
9.56372e-06
1.0047e-05
2.92766e-07
1.00091e-05
9.36334e-08
1.00141e-05
-1.74867e-08
1.00472e-05
3.32643e-07
1.00086e-05
1.05562e-07
9.99961e-06
2.95537e-08
1.00206e-05
2.81641e-07
1.00036e-05
2.36428e-07
1.00066e-05
1.88312e-07
1.00345e-05
3.32377e-07
1.00362e-05
2.86662e-07
1.00335e-05
1.81692e-07
1.00491e-05
1.82764e-07
1.00537e-05
1.88985e-07
1.00422e-05
1.19554e-07
1.00353e-05
7.53069e-08
1.0037e-05
7.7359e-08
1.0035e-05
8.62522e-08
1.0028e-05
7.05502e-08
5.97184e-08
1.0023e-05
1.05229e-05
2.58518e-07
1.04917e-05
1.24858e-07
1.0489e-05
-1.4855e-08
1.05244e-05
2.97298e-07
1.04916e-05
1.38361e-07
1.04755e-05
4.55935e-08
1.04971e-05
2.60102e-07
1.04854e-05
2.48122e-07
1.04845e-05
1.89165e-07
1.05101e-05
3.0682e-07
1.05155e-05
2.8127e-07
1.05115e-05
1.85623e-07
1.05237e-05
1.70584e-07
1.05309e-05
1.81854e-07
1.05224e-05
1.27974e-07
1.05143e-05
8.34018e-08
1.05147e-05
7.70305e-08
1.05144e-05
8.65387e-08
1.05091e-05
7.58148e-08
6.45465e-08
1.05043e-05
1.10214e-05
2.27166e-07
1.0997e-05
1.49201e-07
1.0988e-05
-5.79557e-09
1.10232e-05
2.6211e-07
1.09978e-05
1.63676e-07
1.09767e-05
6.66988e-08
1.09961e-05
2.40721e-07
1.09897e-05
2.54551e-07
1.09866e-05
1.92302e-07
1.1009e-05
2.84377e-07
1.10174e-05
2.72861e-07
1.10135e-05
1.89575e-07
1.10221e-05
1.61945e-07
1.10305e-05
1.73492e-07
1.10252e-05
1.33207e-07
1.1017e-05
9.16153e-08
1.10157e-05
7.83013e-08
1.10163e-05
8.5965e-08
1.10128e-05
7.92923e-08
6.89756e-08
1.10084e-05
1.15436e-05
1.9889e-07
1.15261e-05
1.66771e-07
1.15122e-05
8.0238e-09
1.15449e-05
2.29431e-07
1.15278e-05
1.80794e-07
1.15041e-05
9.04583e-08
1.15197e-05
2.25101e-07
1.15176e-05
2.5666e-07
1.15134e-05
1.96468e-07
1.15324e-05
2.6535e-07
1.1543e-05
2.62282e-07
1.15399e-05
1.92666e-07
1.15454e-05
1.56444e-07
1.15538e-05
1.65058e-07
1.15515e-05
1.356e-07
1.1544e-05
9.90703e-08
1.15415e-05
8.08311e-08
1.15421e-05
8.53717e-08
1.15401e-05
8.12109e-08
7.26278e-08
1.15365e-05
1.2091e-05
1.73754e-07
1.20797e-05
1.77992e-07
1.2063e-05
2.47415e-08
1.20913e-05
2.01137e-07
1.20819e-05
1.90164e-07
1.20581e-05
1.14297e-07
1.20693e-05
2.13871e-07
1.20702e-05
2.55762e-07
1.2066e-05
2.00746e-07
1.20816e-05
2.49743e-07
1.20935e-05
2.50379e-07
1.20917e-05
1.94462e-07
1.20949e-05
1.53256e-07
1.21024e-05
1.57482e-07
1.21023e-05
1.35736e-07
1.20962e-05
1.05126e-07
1.20929e-05
8.41559e-08
1.20931e-05
8.51632e-08
1.20923e-05
8.2018e-08
7.53423e-08
1.20896e-05
1.26646e-05
1.51704e-07
1.26591e-05
1.83517e-07
1.26412e-05
4.26153e-08
1.26641e-05
1.78283e-07
1.26611e-05
1.93163e-07
1.26395e-05
1.3587e-07
1.26464e-05
2.06955e-07
1.2649e-05
2.53228e-07
1.26451e-05
2.04625e-07
1.26576e-05
2.37222e-07
1.26701e-05
2.37943e-07
1.26698e-05
1.94708e-07
1.26714e-05
1.51635e-07
1.26777e-05
1.51244e-07
1.26792e-05
1.34237e-07
1.26747e-05
1.09617e-07
1.26711e-05
8.77034e-08
1.26708e-05
8.54409e-08
1.26707e-05
8.22117e-08
7.71262e-08
1.26689e-05
1.32661e-05
1.32576e-07
1.32654e-05
1.84165e-07
1.32479e-05
6.01631e-08
1.32652e-05
1.60925e-07
1.32665e-05
1.9186e-07
1.32485e-05
1.53889e-07
1.32522e-05
2.03267e-07
1.32551e-05
2.50281e-07
1.32519e-05
2.07874e-07
1.32618e-05
2.2733e-07
1.32741e-05
2.25664e-07
1.32755e-05
1.9325e-07
1.32762e-05
1.51003e-07
1.3281e-05
1.46384e-07
1.32834e-05
1.31867e-07
1.32805e-05
1.12496e-07
1.32772e-05
9.10316e-08
1.32765e-05
8.60925e-08
1.32767e-05
8.20616e-08
7.82055e-08
1.32756e-05
1.38966e-05
1.16116e-07
1.39e-05
1.80765e-07
1.3884e-05
7.61979e-08
1.38962e-05
1.48715e-07
1.38997e-05
1.88407e-07
1.38856e-05
1.67964e-07
1.38874e-05
2.01396e-07
1.38902e-05
2.47506e-07
1.38876e-05
2.10516e-07
1.38953e-05
2.19633e-07
1.3907e-05
2.13969e-07
1.391e-05
1.90216e-07
1.39103e-05
1.50749e-07
1.39138e-05
1.42803e-07
1.39165e-05
1.29195e-07
1.39151e-05
1.13904e-07
1.39123e-05
9.38266e-08
1.39114e-05
8.7006e-08
1.39118e-05
8.17024e-08
7.87543e-08
1.39112e-05
1.45578e-05
1.02023e-07
1.45639e-05
1.74627e-07
1.45504e-05
8.96435e-08
1.45582e-05
1.41004e-07
1.4562e-05
1.84565e-07
1.45515e-05
1.78446e-07
1.45528e-05
2.00139e-07
1.45557e-05
2.44623e-07
1.45536e-05
2.12599e-07
1.45594e-05
2.13807e-07
1.45702e-05
2.03162e-07
1.45745e-05
1.85961e-07
1.45751e-05
1.50161e-07
1.45775e-05
1.40376e-07
1.45802e-05
1.26509e-07
1.45798e-05
1.14252e-07
1.45779e-05
9.57954e-08
1.45768e-05
8.80822e-08
1.45773e-05
8.12041e-08
7.87968e-08
1.45772e-05
1.52509e-05
8.99832e-08
1.52589e-05
1.66657e-07
1.52484e-05
1.00106e-07
1.52517e-05
1.37721e-07
1.52549e-05
1.81383e-07
1.52471e-05
1.86207e-07
1.52488e-05
1.98447e-07
1.52528e-05
2.40651e-07
1.52515e-05
2.13931e-07
1.52557e-05
2.0961e-07
1.52653e-05
1.93569e-07
1.52704e-05
1.80818e-07
1.52717e-05
1.4887e-07
1.52735e-05
1.38561e-07
1.52758e-05
1.24224e-07
1.52762e-05
1.13826e-07
1.52751e-05
9.68632e-08
1.52742e-05
8.90773e-08
1.52746e-05
8.0726e-08
7.83153e-08
1.52751e-05
1.59776e-05
7.97297e-08
1.59873e-05
1.56958e-07
1.5978e-05
1.09385e-07
1.59773e-05
1.38392e-07
1.59799e-05
1.78821e-07
1.5974e-05
1.92059e-07
1.5977e-05
1.95492e-07
1.59828e-05
2.3486e-07
1.59828e-05
2.13936e-07
1.59857e-05
2.06732e-07
1.59936e-05
1.85584e-07
1.59995e-05
1.75014e-07
1.60015e-05
1.46852e-07
1.60032e-05
1.36821e-07
1.60051e-05
1.22297e-07
1.60059e-05
1.13057e-07
1.60057e-05
9.70535e-08
1.60051e-05
8.9741e-08
1.60054e-05
8.03933e-08
7.73695e-08
1.60063e-05
1.67391e-05
7.12294e-08
1.67441e-05
1.5198e-07
1.67375e-05
1.15966e-07
1.67371e-05
1.38746e-07
1.67399e-05
1.76092e-07
1.67357e-05
1.96191e-07
1.67394e-05
1.91822e-07
1.67471e-05
2.27166e-07
1.67491e-05
2.11964e-07
1.6751e-05
2.04781e-07
1.67573e-05
1.79347e-07
1.67631e-05
1.69134e-07
1.6766e-05
1.43982e-07
1.6768e-05
1.34873e-07
1.67699e-05
1.20408e-07
1.67707e-05
1.12229e-07
1.6771e-05
9.669e-08
1.6771e-05
8.97795e-08
1.67712e-05
8.01928e-08
7.61612e-08
1.67724e-05
1.75374e-05
6.41905e-08
1.75444e-05
1.45025e-07
1.75375e-05
1.22843e-07
1.75354e-05
1.40855e-07
1.7538e-05
1.73482e-07
1.7535e-05
1.99122e-07
1.75383e-05
1.88576e-07
1.75473e-05
2.18206e-07
1.75515e-05
2.07747e-07
1.75533e-05
2.02965e-07
1.75579e-05
1.74714e-07
1.75632e-05
1.63802e-07
1.75669e-05
1.40307e-07
1.75692e-05
1.32612e-07
1.75714e-05
1.1823e-07
1.75724e-05
1.11238e-07
1.75729e-05
9.61578e-08
1.75736e-05
8.91132e-08
1.75739e-05
7.98875e-08
7.49741e-08
1.7575e-05
1.8374e-05
5.84937e-08
1.83801e-05
1.38983e-07
1.83751e-05
1.27853e-07
1.83729e-05
1.43015e-07
1.83758e-05
1.70641e-07
1.83738e-05
2.01074e-07
1.83759e-05
1.86466e-07
1.83851e-05
2.08991e-07
1.83915e-05
2.01424e-07
1.8394e-05
2.00383e-07
1.83974e-05
1.7139e-07
1.84018e-05
1.59328e-07
1.84058e-05
1.36292e-07
1.84086e-05
1.2981e-07
1.84111e-05
1.15754e-07
1.84126e-05
1.0973e-07
1.84132e-05
9.56206e-08
1.84143e-05
8.80116e-08
1.8415e-05
7.9151e-08
7.38956e-08
1.84161e-05
1.92509e-05
5.39348e-08
1.92571e-05
1.32854e-07
1.92533e-05
1.31618e-07
1.92509e-05
1.45425e-07
1.92541e-05
1.67423e-07
1.92535e-05
2.01741e-07
1.92545e-05
1.85392e-07
1.92627e-05
2.0081e-07
1.92707e-05
1.93459e-07