/*--------------------------------*- C++ -*----------------------------------*\
| =========                 |                                                 |
| \\      /  F ield         | OpenFOAM: The Open Source CFD Toolbox           |
|  \\    /   O peration     | Version:  v1812                                 |
|   \\  /    A nd           | Web:      www.OpenFOAM.com                      |
|    \\/     M anipulation  |                                                 |
\*---------------------------------------------------------------------------*/
FoamFile
{
    version     2.0;
    format      ascii;
    class       volVectorField;
    location    "6.2";
    object      U;
}
// * * * * * * * * * * * * * * * * * * * * * * * * * * * * * * * * * * * * * //

dimensions      [0 1 -1 0 0 0 0];


internalField   nonuniform List<vector> 
9600
(
(0.969477 0.0163729 0)
(1.0762 -0.0235718 0)
(0.884829 0.0179263 0)
(1.09498 0.00130088 0)
(0.908996 -0.0101711 0)
(0.987707 -0.00864824 0)
(0.960502 0.0219754 0)
(1.09894 -0.0223012 0)
(0.805893 0.0298172 0)
(1.17916 0.0107644 0)
(0.738247 0.0144107 0)
(1.16449 0.0258203 0)
(0.789465 0.00552676 0)
(1.08414 0.0119723 0)
(0.859163 -0.0089947 0)
(1.05735 -0.00770525 0)
(0.8694 -0.0178743 0)
(1.06817 -0.0155514 0)
(0.865311 -0.0108978 0)
(1.09619 -0.0172539 0)
(0.970753 0.0160586 0)
(1.07068 -0.0227062 0)
(0.887847 0.0178167 0)
(1.08383 0.00128567 0)
(0.915418 -0.00924173 0)
(0.983749 -0.00908986 0)
(0.962458 0.0206292 0)
(1.09147 -0.0200254 0)
(0.810586 0.0290802 0)
(1.16269 0.0124815 0)
(0.760721 0.0144335 0)
(1.13022 0.025422 0)
(0.851755 0.0070015 0)
(1.03242 0.0108647 0)
(0.928037 -0.00830232 0)
(1.00323 -0.00799205 0)
(0.947551 -0.0177485 0)
(0.992883 -0.016057 0)
(0.965883 -0.0107635 0)
(0.985909 -0.0188118 0)
(0.973222 0.0157287 0)
(1.06364 -0.0220393 0)
(0.895037 0.0175358 0)
(1.06648 0.00120597 0)
(0.928722 -0.00849283 0)
(0.976329 -0.00952471 0)
(0.965943 0.0193245 0)
(1.08024 -0.018133 0)
(0.826023 0.0277489 0)
(1.12873 0.0135569 0)
(0.809497 0.0144282 0)
(1.06597 0.0243003 0)
(0.915372 0.00847306 0)
(0.985509 0.00954684 0)
(0.959218 -0.00788017 0)
(0.977323 -0.00860994 0)
(0.964513 -0.017475 0)
(0.971802 -0.0165398 0)
(0.974278 -0.0112357 0)
(0.976036 -0.0162957 0)
(0.976872 0.0154516 0)
(1.05499 -0.0213725 0)
(0.906253 0.0173227 0)
(1.04662 0.0010385 0)
(0.94677 -0.00782922 0)
(0.968016 -0.00980943 0)
(0.969635 0.0182281 0)
(1.06662 -0.0164583 0)
(0.852691 0.0267135 0)
(1.08743 0.0138713 0)
(0.867284 0.015093 0)
(1.00504 0.02278 0)
(0.95217 0.00943516 0)
(0.966399 0.00889573 0)
(0.967809 -0.00783432 0)
(0.973845 -0.00887306 0)
(0.968411 -0.0171773 0)
(0.969495 -0.016997 0)
(0.972945 -0.0110785 0)
(0.974723 -0.0154068 0)
(0.981521 0.0152104 0)
(1.0453 -0.020765 0)
(0.920277 0.0172581 0)
(1.02817 0.00078936 0)
(0.964944 -0.00722187 0)
(0.962459 -0.00992186 0)
(0.972228 0.0171525 0)
(1.05298 -0.0151262 0)
(0.885296 0.0262647 0)
(1.05053 0.0138237 0)
(0.915594 0.016211 0)
(0.970104 0.0216395 0)
(0.968277 0.00980824 0)
(0.96725 0.00859999 0)
(0.974092 -0.00785611 0)
(0.976982 -0.00910951 0)
(0.974626 -0.0168116 0)
(0.970965 -0.0172319 0)
(0.974193 -0.0110363 0)
(0.975178 -0.0148219 0)
(0.986796 0.0149925 0)
(1.03536 -0.0202126 0)
(0.935296 0.0172927 0)
(1.01429 0.000495277 0)
(0.979376 -0.00669423 0)
(0.961809 -0.00988453 0)
(0.973646 0.0161129 0)
(1.04113 -0.0141351 0)
(0.916097 0.0262325 0)
(1.02481 0.0136256 0)
(0.948088 0.0172729 0)
(0.960687 0.0210349 0)
(0.976814 0.00971651 0)
(0.975636 0.00831969 0)
(0.982502 -0.00778648 0)
(0.982162 -0.00935738 0)
(0.980554 -0.0163906 0)
(0.97466 -0.0172555 0)
(0.975562 -0.0110926 0)
(0.976559 -0.0142467 0)
(0.992196 0.0147993 0)
(1.02596 -0.0197171 0)
(0.949632 0.0173503 0)
(1.00618 0.000200486 0)
(0.988769 -0.00627091 0)
(0.965406 -0.00972788 0)
(0.97509 0.0151844 0)
(1.03148 -0.0134531 0)
(0.93944 0.0263641 0)
(1.01037 0.0134205 0)
(0.967616 0.0180356 0)
(0.965236 0.0207266 0)
(0.984704 0.00941817 0)
(0.985303 0.0080003 0)
(0.991101 -0.00763388 0)
(0.988275 -0.00952559 0)
(0.985424 -0.0159127 0)
(0.978818 -0.01714 0)
(0.977262 -0.0111245 0)
(0.977573 -0.0136411 0)
(0.997218 0.0146295 0)
(1.01774 -0.019275 0)
(0.962223 0.0173808 0)
(1.00303 -4.68656e-05 0)
(0.993987 -0.00594554 0)
(0.970869 -0.00949566 0)
(0.977895 0.0143943 0)
(1.02335 -0.012987 0)
(0.954128 0.0265277 0)
(1.00368 0.0132558 0)
(0.979328 0.0184871 0)
(0.974248 0.0205265 0)
(0.993014 0.00907054 0)
(0.994285 0.00766029 0)
(0.99866 -0.00742583 0)
(0.994354 -0.00956332 0)
(0.990032 -0.0153816 0)
(0.982785 -0.0169203 0)
(0.979521 -0.0110554 0)
(0.978631 -0.0129552 0)
(1.00147 0.0144781 0)
(1.01109 -0.0188775 0)
(0.972635 0.0173541 0)
(1.00314 -0.000213708 0)
(0.996643 -0.00568816 0)
(0.976003 -0.00924458 0)
(0.98239 0.0137457 0)
(1.01599 -0.012614 0)
(0.962393 0.0266507 0)
(1.00105 0.0131096 0)
(0.987 0.0186802 0)
(0.983437 0.0203444 0)
(1.00093 0.0087236 0)
(1.00205 0.007332 0)
(1.00501 -0.00715027 0)
(0.999815 -0.00949739 0)
(0.994531 -0.0148239 0)
(0.986719 -0.0165657 0)
(0.982198 -0.0108811 0)
(0.980205 -0.0122049 0)
(1.00473 0.0143393 0)
(1.0061 -0.0185143 0)
(0.980843 0.0172525 0)
(1.00487 -0.000302161 0)
(0.998063 -0.00546732 0)
(0.979792 -0.00901819 0)
(0.987795 0.0132345 0)
(1.00928 -0.0122434 0)
(0.967315 0.0266714 0)
(1.00022 0.012958 0)
(0.99263 0.0186621 0)
(0.991634 0.0201445 0)
(1.0078 0.00838477 0)
(1.00844 0.0070447 0)
(1.01012 -0.00681198 0)
(1.00436 -0.0093766 0)
(0.998598 -0.0142385 0)
(0.990551 -0.0160686 0)
(0.985088 -0.0106329 0)
(0.982257 -0.0114392 0)
(1.00695 0.0142075 0)
(1.0027 -0.0181765 0)
(0.987019 0.0170719 0)
(1.00707 -0.00031949 0)
(0.999007 -0.00525897 0)
(0.982241 -0.00883411 0)
(0.992945 0.0128427 0)
(1.00369 -0.0118378 0)
(0.970993 0.02656 0)
(1.00029 0.0127965 0)
(0.997186 0.0184515 0)
(0.998689 0.0199257 0)
(1.01342 0.00806364 0)
(1.01342 0.00682067 0)
(1.01392 -0.00644616 0)
(1.0078 -0.00919011 0)
(1.00189 -0.0136278 0)
(0.993943 -0.0154875 0)
(0.987901 -0.0103275 0)
(0.9845 -0.0106665 0)
(1.00821 0.0140781 0)
(1.00064 -0.0178565 0)
(0.99142 0.0168196 0)
(1.00908 -0.000277152 0)
(0.999836 -0.00504882 0)
(0.983788 -0.00868805 0)
(0.996994 0.0125377 0)
(0.999719 -0.0113924 0)
(0.974234 0.0263168 0)
(1.0011 0.0126353 0)
(1.00114 0.0180651 0)
(1.00452 0.0196955 0)
(1.01779 0.00777901 0)
(1.01696 0.00665624 0)
(1.01644 -0.00605726 0)
(1.01008 -0.00893378 0)
(1.00421 -0.0130199 0)
(0.996596 -0.0148758 0)
(0.990332 -0.00996511 0)
(0.986634 -0.00987598 0)
(1.00866 0.0139473 0)
(0.999651 -0.0175472 0)
(0.994352 0.0165076 0)
(1.01057 -0.000187376 0)
(1.00073 -0.00483265 0)
(0.984848 -0.00856469 0)
(0.999679 0.0122836 0)
(0.997435 -0.010915 0)
(0.977116 0.025952 0)
(1.0025 0.0124796 0)
(1.0046 0.0175436 0)
(1.00892 0.0194617 0)
(1.02094 0.0075323 0)
(1.01917 0.00655032 0)
(1.01783 -0.00564147 0)
(1.01135 -0.00863955 0)
(1.00559 -0.0124187 0)
(0.998422 -0.0142592 0)
(0.992209 -0.00953884 0)
(0.988449 -0.00908799 0)
(1.00848 0.0138121 0)
(0.99947 -0.0172417 0)
(0.996139 0.0161499 0)
(1.01141 -6.5336e-05 0)
(1.00179 -0.0046115 0)
(0.985661 -0.00844152 0)
(1.00121 0.0120493 0)
(0.996396 -0.0104138 0)
(0.979598 0.02548 0)
(1.00413 0.0123332 0)
(1.00739 0.0169291 0)
(1.01166 0.0192434 0)
(1.02287 0.0073155 0)
(1.02024 0.00651452 0)
(1.01839 -0.00520966 0)
(1.01194 -0.0083173 0)
(1.00628 -0.0118123 0)
(0.999561 -0.0136612 0)
(0.99356 -0.00905821 0)
(0.989869 -0.00832729 0)
(1.00787 0.0136703 0)
(0.999857 -0.0169346 0)
(0.997096 0.0157599 0)
(1.01159 7.60528e-05 0)
(1.00299 -0.00439365 0)
(0.986324 -0.00829897 0)
(1.00199 0.0118111 0)
(0.995958 -0.0098954 0)
(0.981762 0.024913 0)
(1.00557 0.0122032 0)
(1.00926 0.0162592 0)
(1.01279 0.0190515 0)
(1.02364 0.00711855 0)
(1.02047 0.00652592 0)
(1.0184 -0.00476217 0)
(1.01217 -0.00798445 0)
(1.00661 -0.0111681 0)
(1.00028 -0.0131026 0)
(0.994558 -0.0085637 0)
(0.990946 -0.00759765 0)
(1.00698 0.0135201 0)
(1.00061 -0.016621 0)
(0.99747 0.0153493 0)
(1.01123 0.000227321 0)
(1.00425 -0.00418949 0)
(0.986881 -0.0081273 0)
(1.00232 0.011562 0)
(0.995647 -0.00936474 0)
(0.983699 0.0242594 0)
(1.00655 0.0121073 0)
(1.0101 0.0155658 0)
(1.01262 0.0188863 0)
(1.02342 0.00693933 0)
(1.0201 0.0065459 0)
(1.01811 -0.00430303 0)
(1.01223 -0.00766025 0)
(1.00682 -0.0104674 0)
(1.0008 -0.0125768 0)
(0.995391 -0.00808498 0)
(0.991795 -0.00688327 0)
(1.00598 0.0133597 0)
(1.00156 -0.0162968 0)
(0.997436 0.0149282 0)
(1.01052 0.000379412 0)
(1.0054 -0.00400488 0)
(0.987359 -0.00791489 0)
(1.00231 0.0113001 0)
(0.995337 -0.00882192 0)
(0.985347 0.0235292 0)
(1.00697 0.0120716 0)
(1.0101 0.0148692 0)
(1.0116 0.0187426 0)
(1.02249 0.00675887 0)
(1.01933 0.00655805 0)
(1.01763 -0.00382861 0)
(1.01217 -0.00736711 0)
(1.007 -0.00971794 0)
(1.00128 -0.0120628 0)
(0.996171 -0.00763145 0)
(0.99252 -0.00616172 0)
(1.005 0.0131876 0)
(1.00255 -0.0159575 0)
(0.997127 0.0145028 0)
(1.00964 0.000527982 0)
(1.00633 -0.00384322 0)
(0.987781 -0.00765429 0)
(1.00197 0.0110252 0)
(0.995131 -0.00826747 0)
(0.986544 0.0227342 0)
(1.00688 0.0121046 0)
(1.00959 0.0141775 0)
(1.01013 0.0186116 0)
(1.02116 0.00656599 0)
(1.01832 0.00653461 0)
(1.01699 -0.00333456 0)
(1.01202 -0.00712772 0)
(1.00712 -0.00893362 0)
(1.0017 -0.0115394 0)
(0.996924 -0.00722124 0)
(0.993176 -0.0054103 0)
(1.00414 0.0130025 0)
(1.00345 -0.0155992 0)
(0.996683 0.0140752 0)
(1.00873 0.000672247 0)
(1.00698 -0.00370525 0)
(0.988158 -0.00734511 0)
(1.00137 0.0107357 0)
(0.99514 -0.00769939 0)
(0.987224 0.0218887 0)
(1.00636 0.0121981 0)
(1.00894 0.013494 0)
(1.00853 0.0184806 0)
(1.01972 0.00637876 0)
(1.01724 0.0064406 0)
(1.01622 -0.00281516 0)
(1.01178 -0.00695635 0)
(1.00715 -0.00814725 0)
(1.00205 -0.0109625 0)
(0.997636 -0.00688914 0)
(0.993774 -0.00464326 0)
(1.00346 0.0128039 0)
(1.00417 -0.015219 0)
(0.996251 0.013644 0)
(1.00789 0.000814515 0)
(1.00738 -0.00359262 0)
(0.988495 -0.00698585 0)
(1.00066 0.0104219 0)
(0.995363 -0.00711195 0)
(0.987524 0.0210059 0)
(1.00558 0.0123382 0)
(1.00839 0.012815 0)
(1.00709 0.0183406 0)
(1.01834 0.00620067 0)
(1.01624 0.00627373 0)
(1.01538 -0.00225957 0)
(1.01149 -0.00683778 0)
(1.00711 -0.00738069 0)
(1.0023 -0.0103015 0)
(0.998285 -0.00666291 0)
(0.994327 -0.00390455 0)
(1.00295 0.0125918 0)
(1.0047 -0.0148156 0)
(0.99594 0.013206 0)
(1.00716 0.000959861 0)
(1.00757 -0.00350489 0)
(0.988804 -0.00657834 0)
(1.00002 0.0100784 0)
(0.99572 -0.00650464 0)
(0.987672 0.0201005 0)
(1.00475 0.0125065 0)
(1.00803 0.012141 0)
(1.00594 0.0181799 0)
(1.01713 0.00604385 0)
(1.01542 0.00602838 0)
(1.01454 -0.00166367 0)
(1.01118 -0.00673666 0)
(1.00702 -0.00666694 0)
(1.00246 -0.00955265 0)
(0.998858 -0.00651421 0)
(0.994855 -0.00322635 0)
(1.00259 0.0123662 0)
(1.00506 -0.0143878 0)
(0.99579 0.0127567 0)
(1.00654 0.00111488 0)
(1.0076 -0.00343978 0)
(0.989103 -0.00613061 0)
(0.999536 0.00970817 0)
(0.996133 -0.00588063 0)
(0.987845 0.019185 0)
(1.00402 0.0126891 0)
(1.00785 0.0114715 0)
(1.00515 0.0179925 0)
(1.0161 0.00593521 0)
(1.0148 0.00570465 0)
(1.01374 -0.00103618 0)
(1.01089 -0.00661752 0)
(1.0069 -0.00606089 0)
(1.00256 -0.00869954 0)
(0.99936 -0.00638975 0)
(0.995378 -0.00264479 0)
(1.00232 0.0121271 0)
(1.0053 -0.0139355 0)
(0.995781 0.0122916 0)
(1.00603 0.00128424 0)
(1.00753 -0.00339753 0)
(0.989413 -0.00564745 0)
(0.999201 0.00930927 0)
(0.996565 -0.00523625 0)
(0.988103 0.0182601 0)
(1.00346 0.0128736 0)
(1.00778 0.0108125 0)
(1.00466 0.017757 0)
(1.01523 0.00589094 0)
(1.01435 0.0053117 0)
(1.01298 -0.00039622 0)
(1.01063 -0.0064506 0)
(1.00678 -0.00557651 0)
(1.00262 -0.00774132 0)
(0.999798 -0.00626249 0)
(0.99592 -0.00220611 0)
(1.00212 0.0118746 0)
(1.00546 -0.0134601 0)
(0.995869 0.0118113 0)
(1.00561 0.00146928 0)
(1.00737 -0.00337441 0)
(0.989753 -0.00513573 0)
(0.99896 0.00888323 0)
(0.997009 -0.00457391 0)
(0.988428 0.0173288 0)
(1.00305 0.0130467 0)
(1.00778 0.0101881 0)
(1.00439 0.0174505 0)
(1.01446 0.005919 0)
(1.01404 0.00486321 0)
(1.01227 0.000232062 0)
(1.0104 -0.00621311 0)
(1.00669 -0.0052093 0)
(1.00266 -0.00672504 0)
(1.00018 -0.00606705 0)
(0.996498 -0.00194506 0)
(1.00196 0.0116079 0)
(1.00558 -0.0129614 0)
(0.996017 0.0113131 0)
(1.00525 0.00167434 0)
(1.00716 -0.00336912 0)
(0.990139 -0.00460289 0)
(0.998756 0.00844116 0)
(0.997463 -0.00390909 0)
(0.988781 0.0164016 0)
(1.00276 0.0132059 0)
(1.00779 0.00959361 0)
(1.00425 0.0170868 0)
(1.01374 0.0060163 0)
(1.01382 0.00437378 0)
(1.01159 0.000827641 0)
(1.01017 -0.00587798 0)
(1.00663 -0.00496319 0)
(1.00271 -0.00570684 0)
(1.00049 -0.0057435 0)
(0.997121 -0.0018514 0)
(1.00182 0.0113275 0)
(1.00566 -0.01244 0)
(0.996201 0.0107937 0)
(1.00493 0.00190248 0)
(1.00692 -0.00338248 0)
(0.990575 -0.00405342 0)
(0.998558 0.00798907 0)
(0.99792 -0.0032515 0)
(0.98914 0.0154927 0)
(1.00253 0.0133359 0)
(1.00779 0.00903324 0)
(1.00419 0.0166608 0)
(1.01305 0.00618206 0)
(1.01366 0.0038604 0)
(1.01096 0.00138742 0)
(1.00994 -0.00542845 0)
(1.00662 -0.00481241 0)
(1.00277 -0.00474639 0)
(1.00075 -0.00526262 0)
(0.997785 -0.00187906 0)
(1.0017 0.011033 0)
(1.0057 -0.0118969 0)
(0.996412 0.0102558 0)
(1.00464 0.00215097 0)
(1.00666 -0.00341042 0)
(0.991056 -0.00349124 0)
(0.998357 0.00753376 0)
(0.998364 -0.00261382 0)
(0.989502 0.0146157 0)
(1.00231 0.0134098 0)
(1.00778 0.00853442 0)
(1.00415 0.0161543 0)
(1.01236 0.0063973 0)
(1.01352 0.00336329 0)
(1.01037 0.00187129 0)
(1.00966 -0.00485825 0)
(1.00666 -0.00472083 0)
(1.00286 -0.00388586 0)
(1.00094 -0.00460794 0)
(0.998461 -0.00196474 0)
(1.00159 0.0107245 0)
(1.0057 -0.0113321 0)
(0.996646 0.00969805 0)
(1.00438 0.00242193 0)
(1.00641 -0.00345358 0)
(0.991566 -0.00292194 0)
(0.998166 0.0070871 0)
(0.998774 -0.00199715 0)
(0.989881 0.013775 0)
(1.00209 0.0134324 0)
(1.00777 0.00809138 0)
(1.00412 0.0155699 0)
(1.01167 0.0066506 0)
(1.01339 0.00289762 0)
(1.00985 0.00226274 0)
(1.00934 -0.0041731 0)
(1.00673 -0.00465208 0)
(1.00301 -0.00316752 0)
(1.00108 -0.0038099 0)
(0.999116 -0.00201606 0)
(1.00149 0.0104023 0)
(1.00567 -0.0107448 0)
(0.996901 0.0091196 0)
(1.00412 0.00271368 0)
(1.00619 -0.00350541 0)
(0.992084 -0.00235786 0)
(0.998001 0.00666281 0)
(0.99914 -0.00142153 0)
(0.990293 0.0129877 0)
(1.00185 0.0134018 0)
(1.00776 0.007694 0)
(1.00408 0.0149387 0)
(1.01097 0.00692916 0)
(1.01323 0.00246826 0)
(1.00939 0.00256703 0)
(1.00895 -0.00338864 0)
(1.00683 -0.004566 0)
(1.00321 -0.00261883 0)
(1.00117 -0.00293552 0)
(0.999706 -0.00194775 0)
(1.00141 0.0100659 0)
(1.0056 -0.0101354 0)
(0.997175 0.0085202 0)
(1.00386 0.00302217 0)
(1.00598 -0.00356311 0)
(0.99259 -0.00179814 0)
(0.997875 0.00627512 0)
(0.999459 -0.000908971 0)
(0.990752 0.0122632 0)
(1.00159 0.0133088 0)
(1.00776 0.00735848 0)
(1.00405 0.0142683 0)
(1.01027 0.00721518 0)
(1.01305 0.00210009 0)
(1.00901 0.00274332 0)
(1.0085 -0.00253396 0)
(1.00691 -0.00441648 0)
(1.00348 -0.00224384 0)
(1.00123 -0.0020783 0)
(1.00019 -0.0017014 0)
(1.00133 0.00971737 0)
(1.00551 -0.0095082 0)
(0.997463 0.00790225 0)
(1.00359 0.00334716 0)
(1.00581 -0.00362474 0)
(0.993072 -0.00125567 0)
(0.997792 0.00593 0)
(0.999739 -0.000457751 0)
(0.99126 0.0116017 0)
(1.00131 0.0131636 0)
(1.00776 0.00705969 0)
(1.00402 0.0135672 0)
(1.00955 0.00750678 0)
(1.01283 0.00181171 0)
(1.00871 0.0028093 0)
(1.00801 -0.00163006 0)
(1.00695 -0.00416383 0)
(1.00381 -0.00202533 0)
(1.00132 -0.00129684 0)
(1.00056 -0.00124988 0)
(1.00126 0.00935608 0)
(1.00541 -0.00886209 0)
(0.997764 0.00726877 0)
(1.00331 0.00367908 0)
(1.00565 -0.00367508 0)
(0.993524 -0.0007491 0)
(0.997748 0.0056466 0)
(0.999993 -7.76766e-05 0)
(0.991812 0.010997 0)
(1.00105 0.0129823 0)
(1.00776 0.00678698 0)
(1.00403 0.0128472 0)
(1.00884 0.00778792 0)
(1.01258 0.00162105 0)
(1.00849 0.00277638 0)
(1.0075 -0.00072547 0)
(1.00693 -0.00378365 0)
(1.00418 -0.00191211 0)
(1.00145 -0.000640318 0)
(1.00081 -0.00065855 0)
(1.00119 0.00898183 0)
(1.0053 -0.00819738 0)
(0.998074 0.00662189 0)
(1.00301 0.0040123 0)
(1.00551 -0.00370803 0)
(0.993954 -0.000280555 0)
(0.997733 0.0054373 0)
(1.00023 0.000225663 0)
(0.992402 0.0104372 0)
(1.00079 0.0127717 0)
(1.00776 0.0065536 0)
(1.00407 0.012112 0)
(1.00812 0.00805661 0)
(1.01228 0.00152322 0)
(1.00837 0.00265503 0)
(1.00699 0.000116793 0)
(1.00684 -0.00326991 0)
(1.00459 -0.00186013 0)
(1.00166 -0.000144675 0)
(1.00098 -4.53686e-05 0)
(1.00112 0.00859543 0)
(1.00518 -0.00751625 0)
(0.998394 0.00596363 0)
(1.00271 0.00434596 0)
(1.00537 -0.00372077 0)
(0.99437 0.000137556 0)
(0.997733 0.00529533 0)
(1.00047 0.000467602 0)
(0.993021 0.00991358 0)
(1.00055 0.012543 0)
(1.00775 0.0063348 0)
(1.00416 0.011357 0)
(1.00741 0.0083005 0)
(1.01192 0.00152659 0)
(1.00831 0.00245714 0)
(1.00652 0.000881599 0)
(1.00667 -0.00262894 0)
(1.00499 -0.0018159 0)
(1.00195 0.000174591 0)
(1.00109 0.000614214 0)
(1.00105 0.00819779 0)
(1.00505 -0.00682357 0)
(0.998721 0.00530231 0)
(1.00239 0.00466957 0)
(1.00523 -0.00369904 0)
(0.994783 0.000485379 0)
(0.997738 0.00523373 0)
(1.00071 0.000666519 0)
(0.993661 0.00939898 0)
(1.00033 0.0123095 0)
(1.0077 0.00613793 0)
(1.0043 0.0105827 0)
(1.00672 0.00851023 0)
(1.01151 0.00164593 0)
(1.00833 0.00219141 0)
(1.0061 0.00156269 0)
(1.00641 -0.0018672 0)
(1.00536 -0.00171376 0)
(1.00235 0.000344237 0)
(1.00123 0.00121665 0)
(1.00098 0.00778876 0)
(1.00492 -0.00611735 0)
(0.999057 0.0046395 0)
(1.00207 0.00497115 0)
(1.00509 -0.00362697 0)
(0.995203 0.000744563 0)
(0.997744 0.00524977 0)
(1.00093 0.000824624 0)
(0.994319 0.00888452 0)
(1.00013 0.0120797 0)
(1.00763 0.00597968 0)
(1.00448 0.00980481 0)
(1.00607 0.00867838 0)
(1.01103 0.00187453 0)
(1.00841 0.00189244 0)
(1.00578 0.0021309 0)
(1.00608 -0.00102511 0)
(1.00567 -0.00151758 0)
(1.00282 0.000422938 0)
(1.00143 0.00162872 0)
(1.00091 0.00736969 0)
(1.00477 -0.00540691 0)
(0.999397 0.00398943 0)
(1.00176 0.00524622 0)
(1.00494 -0.00350117 0)
(0.995638 0.00092094 0)
(0.997748 0.00531416 0)
(1.00115 0.000973817 0)
(0.994993 0.0083529 0)
(0.999946 0.0118537 0)
(1.00752 0.00586709 0)
(1.00471 0.00901518 0)
(1.00548 0.00878161 0)
(1.01047 0.00221209 0)
(1.00852 0.00159897 0)
(1.00557 0.00254437 0)
(1.0057 -0.000185741 0)
(1.00588 -0.00122193 0)
(1.00333 0.000453295 0)
(1.00171 0.00189424 0)
(1.00085 0.00694313 0)
(1.00461 -0.00469502 0)
(0.999742 0.00335633 0)
(1.00146 0.00548724 0)
(1.00477 -0.00330516 0)
(0.99609 0.00100282 0)
(0.997755 0.00542491 0)
(1.00135 0.00113025 0)
(0.99568 0.00779227 0)
(0.999792 0.0116225 0)
(1.00736 0.00581054 0)
(1.00497 0.00822934 0)
(1.00495 0.00880217 0)
(1.00985 0.00265418 0)
(1.00863 0.00134328 0)
(1.00548 0.00278466 0)
(1.00531 0.000652575 0)
(1.006 -0.000813666 0)
(1.00386 0.000471692 0)
(1.00208 0.00204753 0)
(1.00079 0.00650826 0)
(1.00443 -0.00398365 0)
(1.00009 0.00274917 0)
(1.00117 0.00567397 0)
(1.00458 -0.00302942 0)
(0.996561 0.000997043 0)
(0.997769 0.00556292 0)
(1.00151 0.00130695 0)
(0.996379 0.00720312 0)
(0.999671 0.0113728 0)
(1.00715 0.00581662 0)
(1.00526 0.00746364 0)
(1.00452 0.00871199 0)
(1.00918 0.00317438 0)
(1.00872 0.00117565 0)
(1.00551 0.00285192 0)
(1.00493 0.00146832 0)
(1.006 -0.000283036 0)
(1.00435 0.000510399 0)
(1.00252 0.00214531 0)
(1.00074 0.00606943 0)
(1.00423 -0.00328359 0)
(1.00043 0.00217609 0)
(1.00091 0.00580157 0)
(1.00437 -0.00267467 0)
(0.997048 0.000924692 0)
(0.997798 0.00569262 0)
(1.00164 0.00153663 0)
(0.997085 0.00658577 0)
(0.999593 0.011076 0)
(1.00688 0.00588515 0)
(1.00556 0.00673232 0)
(1.00419 0.008512 0)
(1.00847 0.00375802 0)
(1.00875 0.00113559 0)
(1.00566 0.00277971 0)
(1.00462 0.00218702 0)
(1.00588 0.00033447 0)
(1.00479 0.000586192 0)
(1.00301 0.0021861 0)
(1.00069 0.00562901 0)
(1.00402 -0.00259631 0)
(1.00076 0.00164162 0)
(1.00068 0.00585846 0)
(1.00414 -0.00223882 0)
(0.997544 0.000801483 0)
(0.99785 0.00579794 0)
(1.00172 0.0018193 0)
(0.997789 0.00597068 0)
(0.99957 0.0107291 0)
(1.00656 0.00600806 0)
(1.00584 0.00607427 0)
(1.00398 0.00820953 0)
(1.00774 0.00433078 0)
(1.0087 0.00125043 0)
(1.00591 0.00260313 0)
(1.0044 0.00274901 0)
(1.00568 0.00103331 0)
(1.00514 0.000743188 0)
(1.00353 0.00216501 0)
(1.00065 0.00518799 0)
(1.00379 -0.00192782 0)
(1.00108 0.00115968 0)
(1.00049 0.00583452 0)
(1.00388 -0.00172862 0)
(0.998043 0.000649337 0)
(0.997933 0.00584851 0)
(1.00176 0.0021728 0)
(0.998481 0.00537988 0)
(0.999609 0.010315 0)
(1.00621 0.00618245 0)
(1.0061 0.00550739 0)
(1.00389 0.00780353 0)
(1.00703 0.00485776 0)
(1.00854 0.00152642 0)
(1.00622 0.002391 0)
(1.0043 0.00309559 0)
(1.00541 0.00176086 0)
(1.00537 0.00103525 0)
(1.00406 0.00211856 0)
(1.00062 0.00474969 0)
(1.00354 -0.00128292 0)
(1.00138 0.000734667 0)
(1.00034 0.00572838 0)
(1.00359 -0.00115776 0)
(0.998533 0.000493164 0)
(0.998056 0.00582058 0)
(1.00176 0.00258345 0)
(0.999143 0.00484227 0)
(0.999719 0.00982568 0)
(1.00582 0.00637458 0)
(1.00631 0.00505133 0)
(1.00391 0.00731861 0)
(1.00638 0.00531535 0)
(1.00827 0.00191773 0)
(1.00652 0.00223098 0)
(1.00435 0.00325106 0)
(1.00515 0.00240716 0)
(1.00546 0.00145366 0)
(1.00455 0.002114 0)
(1.00059 0.00431905 0)
(1.00327 -0.000672439 0)
(1.00166 0.000376184 0)
(1.00023 0.00554086 0)
(1.00329 -0.000551031 0)
(0.999002 0.000359472 0)
(0.998224 0.00570209 0)
(1.00171 0.00301964 0)
(0.999761 0.00439171 0)
(0.999899 0.00926421 0)
(1.00541 0.00656172 0)
(1.00645 0.00473252 0)
(1.00403 0.0067785 0)
(1.00581 0.00565507 0)
(1.00791 0.00239579 0)
(1.00678 0.00215543 0)
(1.00451 0.00326555 0)
(1.00494 0.00292228 0)
(1.00545 0.00193295 0)
(1.00494 0.00221025 0)
(1.00056 0.00389811 0)
(1.00299 -0.000112018 0)
(1.0019 9.32148e-05 0)
(1.00017 0.0052721 0)
(1.00297 6.4117e-05 0)
(0.999438 0.00026947 0)
(0.998439 0.00548398 0)
(1.00164 0.00345992 0)
(1.00032 0.00404821 0)
(1.00015 0.00865048 0)
(1.00502 0.00671139 0)
(1.00651 0.00456681 0)
(1.00423 0.00621525 0)
(1.00535 0.00586271 0)
(1.00747 0.00291032 0)
(1.00697 0.00218476 0)
(1.00476 0.0031858 0)
(1.00481 0.00329 0)
(1.00537 0.00240029 0)
(1.00523 0.00240949 0)
(1.00054 0.00349463 0)
(1.00271 0.000392973 0)
(1.0021 -0.000100323 0)
(1.00015 0.00491706 0)
(1.00264 0.000670198 0)
(0.999829 0.00025873 0)
(0.998701 0.00517901 0)
(1.00155 0.00386346 0)
(1.0008 0.00383566 0)
(1.00045 0.00802078 0)
(1.00465 0.00678601 0)
(1.00649 0.00453599 0)
(1.00447 0.00567929 0)
(1.005 0.00590324 0)
(1.00699 0.00340185 0)
(1.00705 0.00232597 0)
(1.00506 0.00307589 0)
(1.00478 0.00352276 0)
(1.00526 0.00281595 0)
(1.0054 0.00266559 0)
(1.00053 0.00311215 0)
(1.00241 0.000843273 0)
(1.00226 -0.000202707 0)
(1.00018 0.00450075 0)
(1.00232 0.00124703 0)
(1.00016 0.000352209 0)
(0.999001 0.00482386 0)
(1.00147 0.00420102 0)
(1.0012 0.0037481 0)
(1.00078 0.00740295 0)
(1.00434 0.00678145 0)
(1.00639 0.00459271 0)
(1.00471 0.00521155 0)
(1.00479 0.00580024 0)
(1.00652 0.00382605 0)
(1.00703 0.00257081 0)
(1.00537 0.00298884 0)
(1.00484 0.00363661 0)
(1.00517 0.00316142 0)
(1.0055 0.00292678 0)
(1.00052 0.00275352 0)
(1.00212 0.00122227 0)
(1.00237 -0.000211334 0)
(1.00024 0.0040429 0)
(1.00202 0.00176241 0)
(1.00043 0.000571218 0)
(0.999327 0.00446508 0)
(1.00141 0.00444232 0)
(1.00152 0.00374085 0)
(1.00113 0.00683387 0)
(1.00408 0.00669234 0)
(1.00623 0.00470032 0)
(1.00493 0.00483153 0)
(1.00468 0.00559546 0)
(1.00609 0.00414666 0)
(1.00691 0.00287502 0)
(1.00564 0.00295664 0)
(1.00498 0.0036586 0)
(1.0051 0.00342667 0)
(1.00555 0.00316414 0)
(1.00051 0.00242445 0)
(1.00183 0.00152402 0)
(1.00243 -0.000137003 0)
(1.00034 0.00357305 0)
(1.00175 0.00217807 0)
(1.00064 0.000881392 0)
(0.99966 0.00413295 0)
(1.00137 0.00458393 0)
(1.00178 0.00378347 0)
(1.00148 0.00632423 0)
(1.00389 0.00651812 0)
(1.00601 0.00481576 0)
(1.0051 0.00455617 0)
(1.00465 0.00533471 0)
(1.00573 0.00435497 0)
(1.00673 0.00319126 0)
(1.00585 0.00300149 0)
(1.00517 0.00363784 0)
(1.00509 0.00361572 0)
(1.00556 0.00338475 0)
(1.00051 0.002125 0)
(1.00155 0.00175098 0)
(1.00244 7.5713e-06 0)
(1.00047 0.00313406 0)
(1.00153 0.00245753 0)
(1.0008 0.00123887 0)
(0.999986 0.00385251 0)
(1.00136 0.00464112 0)
(1.00197 0.00385156 0)
(1.0018 0.00588202 0)
(1.00376 0.00628754 0)
(1.00578 0.00491465 0)
(1.00521 0.00438028 0)
(1.00469 0.00506309 0)
(1.00545 0.00445778 0)
(1.00652 0.00347638 0)
(1.00599 0.00310548 0)
(1.00539 0.00361345 0)
(1.00513 0.00372956 0)
(1.00555 0.00359066 0)
(1.00051 0.00185796 0)
(1.00129 0.00190239 0)
(1.00241 0.000200454 0)
(1.0006 0.00274423 0)
(1.00135 0.00261983 0)
(1.00091 0.00161301 0)
(1.00029 0.00365425 0)
(1.00138 0.00464323 0)
(1.00212 0.00392556 0)
(1.00211 0.00551137 0)
(1.00368 0.00601935 0)
(1.00554 0.00498496 0)
(1.00526 0.00427919 0)
(1.00476 0.00481486 0)
(1.00525 0.00446902 0)
(1.0063 0.00371182 0)
(1.00607 0.00324278 0)
(1.0056 0.00360942 0)
(1.00522 0.00378033 0)
(1.00555 0.00375474 0)
(1.00051 0.0016224 0)
(1.00106 0.00198703 0)
(1.00234 0.000414253 0)
(1.00073 0.00241937 0)
(1.00123 0.0026925 0)
(1.001 0.00195834 0)
(1.00057 0.00352974 0)
(1.00143 0.00462012 0)
(1.00223 0.00399967 0)
(1.00237 0.00520587 0)
(1.00366 0.00572546 0)
(1.00532 0.00501228 0)
(1.00527 0.0042357 0)
(1.00483 0.00461353 0)
(1.00513 0.00442012 0)
(1.00611 0.00388372 0)
(1.0061 0.00338614 0)
(1.00578 0.00362473 0)
(1.00535 0.00379821 0)
(1.00556 0.00386413 0)
(1.00051 0.00141761 0)
(1.00084 0.00201408 0)
(1.00224 0.000629558 0)
(1.00085 0.00217355 0)
(1.00116 0.00269398 0)
(1.00107 0.00225235 0)
(1.00083 0.00344804 0)
(1.00149 0.00458272 0)
(1.0023 0.00407317 0)
(1.0026 0.0049596 0)
(1.00367 0.00542115 0)
(1.00512 0.00499162 0)
(1.00523 0.00423106 0)
(1.0049 0.00446574 0)
(1.00506 0.00434398 0)
(1.00594 0.00398708 0)
(1.00609 0.00351267 0)
(1.00593 0.0036542 0)
(1.0055 0.00380458 0)
(1.0056 0.00393036 0)
(1.00052 0.00124145 0)
(1.00065 0.00199342 0)
(1.00213 0.000831557 0)
(1.00096 0.00199638 0)
(1.00113 0.00265784 0)
(1.00114 0.00247985 0)
(1.00107 0.00339957 0)
(1.00157 0.00454877 0)
(1.00236 0.00414338 0)
(1.00278 0.00477262 0)
(1.00371 0.00512013 0)
(1.00496 0.00492431 0)
(1.00518 0.00422988 0)
(1.00495 0.00436297 0)
(1.00502 0.00426425 0)
(1.0058 0.00404417 0)
(1.00606 0.0036125 0)
(1.00605 0.00368797 0)
(1.00565 0.00379904 0)
(1.00566 0.00396761 0)
(1.00052 0.00108989 0)
(1.00049 0.00193836 0)
(1.002 0.00100897 0)
(1.00105 0.00187994 0)
(1.00113 0.00260607 0)
(1.00121 0.00264183 0)
(1.00129 0.00336233 0)
(1.00167 0.00450342 0)
(1.0024 0.00420578 0)
(1.00291 0.00464047 0)
(1.00376 0.00484685 0)
(1.00485 0.00481226 0)
(1.00511 0.00421746 0)
(1.00498 0.00429638 0)
(1.00501 0.004195 0)
(1.0057 0.00407465 0)
(1.00602 0.00368956 0)
(1.00614 0.00371387 0)
(1.00581 0.00377698 0)
(1.00574 0.00398332 0)
(1.00052 0.000960281 0)
(1.00036 0.00185449 0)
(1.00187 0.00114859 0)
(1.00113 0.00181604 0)
(1.00116 0.00256383 0)
(1.00127 0.00277971 0)
(1.0015 0.00331898 0)
(1.00178 0.00444472 0)
(1.00243 0.00426117 0)
(1.003 0.00454767 0)
(1.00382 0.00460545 0)
(1.00477 0.00466617 0)
(1.00506 0.00418456 0)
(1.005 0.0042464 0)
(1.00502 0.00413177 0)
(1.00562 0.00407984 0)
(1.00598 0.00374927 0)
(1.0062 0.00373974 0)
(1.00596 0.00373911 0)
(1.00583 0.00397263 0)
(1.00053 0.000854246 0)
(1.00024 0.00176464 0)
(1.00175 0.00124903 0)
(1.0012 0.00178712 0)
(1.00121 0.00253118 0)
(1.00134 0.00288409 0)
(1.00169 0.00326008 0)
(1.00192 0.00434998 0)
(1.00246 0.00428913 0)
(1.00305 0.0044963 0)
(1.00387 0.00440545 0)
(1.00473 0.00450807 0)
(1.00503 0.00411982 0)
(1.00502 0.00419657 0)
(1.00503 0.00407684 0)
(1.00556 0.0040697 0)
(1.00594 0.00378616 0)
(1.00622 0.00377728 0)
(1.0061 0.0037009 0)
(1.00595 0.00392775 0)
(1.00053 0.000759293 0)
(1.00015 0.00168634 0)
(1.00163 0.0013342 0)
(1.00126 0.00179002 0)
(1.00128 0.00251346 0)
(1.00141 0.00297047 0)
(1.00187 0.00320167 0)
(1.00208 0.00420536 0)
(1.00251 0.00426464 0)
(1.00307 0.00446998 0)
(1.00389 0.00424911 0)
(1.0047 0.00435105 0)
(1.00502 0.0040274 0)
(1.00505 0.00413038 0)
(1.00506 0.00402501 0)
(1.00553 0.00405395 0)
(1.00592 0.00378982 0)
(1.00623 0.00381027 0)
(1.0062 0.00368043 0)
(1.00609 0.00385162 0)
(1.00053 0.000677328 0)
(1.00007 0.00161856 0)
(1.00151 0.00142175 0)
(1.00131 0.00181163 0)
(1.00136 0.00248564 0)
(1.00147 0.00304709 0)
(1.00202 0.00314924 0)
(1.00224 0.00402475 0)
(1.00259 0.00418568 0)
(1.00308 0.00443727 0)
(1.00389 0.0041442 0)
(1.00468 0.00420946 0)
(1.00502 0.00391821 0)
(1.00509 0.00404363 0)
(1.0051 0.00395597 0)
(1.0055 0.00403409 0)
(1.00591 0.00377618 0)
(1.00624 0.00381257 0)
(1.00626 0.00368215 0)
(1.00622 0.00377263 0)
(1.00053 0.00061484 0)
(1.00001 0.00155389 0)
(1.00141 0.00149421 0)
(1.00134 0.00182988 0)
(1.00144 0.00243338 0)
(1.00152 0.0030953 0)
(1.00213 0.00311324 0)
(1.0024 0.00383831 0)
(1.00269 0.00406054 0)
(1.00308 0.00438906 0)
(1.00386 0.00408152 0)
(1.00465 0.00409821 0)
(1.00503 0.0038077 0)
(1.00514 0.00394761 0)
(1.00516 0.00386243 0)
(1.0055 0.00399515 0)
(1.00589 0.00376614 0)
(1.00626 0.00377854 0)
(1.0063 0.00368174 0)
(1.00632 0.00371513 0)
(1.00053 0.000563649 0)
(0.99997 0.00148221 0)
(1.0013 0.00154861 0)
(1.00136 0.00185971 0)
(1.00153 0.00238541 0)
(1.00158 0.00312339 0)
(1.00221 0.00310756 0)
(1.00254 0.00368124 0)
(1.00281 0.00388877 0)
(1.0031 0.00431005 0)
(1.00382 0.00402309 0)
(1.0046 0.0040154 0)
(1.00503 0.00370495 0)
(1.00518 0.00384557 0)
(1.00523 0.00375325 0)
(1.00551 0.00391577 0)
(1.00587 0.00374645 0)
(1.00627 0.00373468 0)
(1.00634 0.00364889 0)
(1.00637 0.00368322 0)
(1.00053 0.000522118 0)
(0.999937 0.00141529 0)
(1.00121 0.00158679 0)
(1.00136 0.00189903 0)
(1.00162 0.00233173 0)
(1.00164 0.0031135 0)
(1.00226 0.00310983 0)
(1.00265 0.00356149 0)
(1.00294 0.00370198 0)
(1.00314 0.00419105 0)
(1.00378 0.00396613 0)
(1.00453 0.0039556 0)
(1.00502 0.00361522 0)
(1.00522 0.00373638 0)
(1.00529 0.00364433 0)
(1.00556 0.0038059 0)
(1.00586 0.00369168 0)
(1.00627 0.00369398 0)
(1.00638 0.00357709 0)
(1.0064 0.00364602 0)
(1.00052 0.000488958 0)
(0.999915 0.00134824 0)
(1.00112 0.00160803 0)
(1.00135 0.00193752 0)
(1.00169 0.00228346 0)
(1.0017 0.00307624 0)
(1.00229 0.00310747 0)
(1.00272 0.00347602 0)
(1.00306 0.00352797 0)
(1.00321 0.00402039 0)
(1.00375 0.00388701 0)
(1.00444 0.00390345 0)
(1.00497 0.00354584 0)
(1.00524 0.00362928 0)
(1.00536 0.00353419 0)
(1.00561 0.00369165 0)
(1.00588 0.00359485 0)
(1.00625 0.00364359 0)