/*--------------------------------*- C++ -*----------------------------------*\
| =========                 |                                                 |
| \\      /  F ield         | OpenFOAM: The Open Source CFD Toolbox           |
|  \\    /   O peration     | Version:  v1906                                 |
|   \\  /    A nd           | Web:      www.OpenFOAM.com                      |
|    \\/     M anipulation  |                                                 |
\*---------------------------------------------------------------------------*/
FoamFile
{
    version     2.0;
    format      ascii;
    class       surfaceScalarField;
    location    "6.1";
    object      phi;
}
// * * * * * * * * * * * * * * * * * * * * * * * * * * * * * * * * * * * * * //

dimensions      [0 3 -1 0 0 0 0];
oriented        oriented;


internalField   nonuniform List<scalar> 
19000
(
1.152e-06
-5.80913e-07
1.2133e-06
1.139e-07
1.17777e-06
2.24853e-07
1.14459e-06
1.65425e-06
1.13238e-06
-1.22967e-06
1.19332e-06
-1.95729e-06
1.22837e-06
-1.7951e-06
1.25363e-06
-3.13261e-07
1.25167e-06
2.29499e-07
1.23707e-06
7.11423e-07
1.24311e-06
9.02218e-07
1.23672e-06
1.94787e-07
1.23182e-06
-2.1389e-07
1.21519e-06
-4.61589e-07
1.19461e-06
-8.01226e-07
1.16435e-06
-8.30827e-07
1.16979e-06
-6.41776e-07
1.13519e-06
-8.25003e-07
1.16573e-06
-2.6464e-07
-7.61382e-07
1.08212e-06
1.21042e-06
-5.67076e-07
1.27637e-06
4.79541e-08
1.23765e-06
2.63577e-07
1.21773e-06
1.67417e-06
1.17968e-06
-1.19162e-06
1.22006e-06
-1.99768e-06
1.273e-06
-1.84804e-06
1.31137e-06
-3.51626e-07
1.30774e-06
2.33121e-07
1.30138e-06
7.17788e-07
1.30085e-06
9.0274e-07
1.30931e-06
1.86333e-07
1.29348e-06
-1.9806e-07
1.28633e-06
-4.54445e-07
1.25192e-06
-7.66817e-07
1.23167e-06
-8.10576e-07
1.21433e-06
-6.24432e-07
1.20203e-06
-8.12705e-07
1.20639e-06
-2.69003e-07
-7.18243e-07
1.16325e-06
1.26924e-06
-5.53533e-07
1.34094e-06
-2.37425e-08
1.30433e-06
3.00183e-07
1.2837e-06
1.6948e-06
1.22897e-06
-1.13688e-06
1.25375e-06
-2.02246e-06
1.31299e-06
-1.90729e-06
1.36262e-06
-4.01253e-07
1.36584e-06
2.29903e-07
1.36591e-06
7.17717e-07
1.37298e-06
8.95666e-07
1.3803e-06
1.79015e-07
1.36711e-06
-1.84866e-07
1.35059e-06
-4.37924e-07
1.31714e-06
-7.33373e-07
1.29101e-06
-7.84442e-07
1.27458e-06
-6.08003e-07
1.2613e-06
-7.99424e-07
1.27059e-06
-2.78297e-07
-6.84907e-07
1.23726e-06
1.32893e-06
-5.38362e-07
1.4021e-06
-9.69082e-08
1.37313e-06
3.29152e-07
1.3472e-06
1.72074e-06
1.28503e-06
-1.07471e-06
1.29401e-06
-2.03144e-06
1.35025e-06
-1.96352e-06
1.40776e-06
-4.58767e-07
1.42385e-06
2.13818e-07
1.43205e-06
7.09511e-07
1.44886e-06
8.78855e-07
1.45595e-06
1.7193e-07
1.44141e-06
-1.7033e-07
1.41996e-06
-4.1647e-07
1.38391e-06
-6.97327e-07
1.35569e-06
-7.56214e-07
1.33607e-06
-5.88384e-07
1.32007e-06
-7.83429e-07
1.32777e-06
-2.85991e-07
-6.49951e-07
1.29281e-06
1.39162e-06
-5.21627e-07
1.45858e-06
-1.63866e-07
1.44086e-06
3.4687e-07
1.41154e-06
1.75006e-06
1.35026e-06
-1.01344e-06
1.34416e-06
-2.02534e-06
1.39009e-06
-2.00945e-06
1.451e-06
-5.19672e-07
1.48101e-06
1.8381e-07
1.50129e-06
6.89226e-07
1.52702e-06
8.53124e-07
1.53443e-06
1.64524e-07
1.51694e-06
-1.52846e-07
1.49122e-06
-3.90743e-07
1.45232e-06
-6.58433e-07
1.423e-06
-7.26896e-07
1.40198e-06
-5.6736e-07
1.38247e-06
-7.63923e-07
1.39047e-06
-2.93986e-07
-6.13732e-07
1.35425e-06
1.4589e-06
-5.04856e-07
1.51305e-06
-2.18015e-07
1.50713e-06
3.52798e-07
1.48064e-06
1.77654e-06
1.42434e-06
-9.57135e-07
1.40526e-06
-2.00626e-06
1.43745e-06
-2.04164e-06
1.49804e-06
-5.80268e-07
1.5399e-06
1.41952e-07
1.57462e-06
6.5451e-07
1.60817e-06
8.19571e-07
1.61482e-06
1.57875e-07
1.59368e-06
-1.3171e-07
1.56355e-06
-3.60606e-07
1.52249e-06
-6.17381e-07
1.49232e-06
-6.96724e-07
1.47132e-06
-5.46361e-07
1.44834e-06
-7.4094e-07
1.45628e-06
-3.01932e-07
-5.76753e-07
1.41931e-06
1.5309e-06
-4.89537e-07
1.56929e-06
-2.5641e-07
1.57386e-06
3.48236e-07
1.55683e-06
1.79357e-06
1.50579e-06
-9.06092e-07
1.47647e-06
-1.97694e-06
1.49519e-06
-2.06037e-06
1.55383e-06
-6.38903e-07
1.605e-06
9.07777e-08
1.65375e-06
6.05762e-07
1.69278e-06
7.80539e-07
1.69624e-06
1.54416e-07
1.6707e-06
-1.06166e-07
1.63637e-06
-3.26281e-07
1.59417e-06
-5.75179e-07
1.56382e-06
-6.66377e-07
1.54376e-06
-5.26301e-07
1.51775e-06
-7.14927e-07
1.52507e-06
-3.09257e-07
-5.39349e-07
1.48767e-06
1.60667e-06
-4.7608e-07
1.63011e-06
-2.79844e-07
1.64376e-06
3.34582e-07
1.64049e-06
1.79684e-06
1.59323e-06
-8.58836e-07
1.55589e-06
-1.9396e-06
1.56363e-06
-2.06811e-06
1.62096e-06
-6.96228e-07
1.67935e-06
3.23889e-08
1.73934e-06
5.45768e-07
1.77995e-06
7.39932e-07
1.77736e-06
1.57002e-07
1.74708e-06
-7.58788e-08
1.70945e-06
-2.88659e-07
1.66733e-06
-5.33053e-07
1.63756e-06
-6.36606e-07
1.61919e-06
-5.07936e-07
1.59082e-06
-6.86554e-07
1.59712e-06
-3.15556e-07
-5.01852e-07
1.55962e-06
1.68535e-06
-4.63852e-07
1.69685e-06
-2.91344e-07
1.71875e-06
3.12674e-07
1.73041e-06
1.78518e-06
1.68547e-06
-8.1389e-07
1.64169e-06
-1.89582e-06
1.64107e-06
-2.0675e-06
1.69852e-06
-7.53678e-07
1.7621e-06
-3.119e-08
1.82905e-06
4.78818e-07
1.86701e-06
7.01969e-07
1.85644e-06
1.6757e-07
1.822e-06
-4.14363e-08
1.7827e-06
-2.49361e-07
1.74211e-06
-4.92456e-07
1.71352e-06
-6.08021e-07
1.69748e-06
-4.91891e-07
1.6676e-06
-6.56673e-07
1.67268e-06
-3.20643e-07
-4.6483e-07
1.63566e-06
1.76685e-06
-4.51979e-07
1.76989e-06
-2.9439e-07
1.79913e-06
2.83439e-07
1.82434e-06
1.75997e-06
1.78113e-06
-7.70682e-07
1.73258e-06
-1.84726e-06
1.72498e-06
-2.0599e-06
1.78261e-06
-8.11312e-07
1.84877e-06
-9.73466e-08
1.91796e-06
4.09633e-07
1.95034e-06
6.69587e-07
1.93195e-06
1.85958e-07
1.89518e-06
-4.66419e-09
1.85648e-06
-2.10668e-07
1.81896e-06
-4.54935e-07
1.79197e-06
-5.81023e-07
1.77856e-06
-4.78491e-07
1.74814e-06
-6.26249e-07
1.75198e-06
-3.24477e-07
-4.29147e-07
1.71629e-06
1.85182e-06
-4.40051e-07
1.84927e-06
-2.91845e-07
1.88381e-06
2.48902e-07
1.91969e-06
1.72409e-06
1.87874e-06
-7.29736e-07
1.82771e-06
-1.79623e-06
1.81317e-06
-2.04536e-06
1.86863e-06
-8.66767e-07
1.93377e-06
-1.62491e-07
2.00093e-06
3.42475e-07
2.02701e-06
6.43507e-07
2.00337e-06
2.09593e-07
1.96718e-06
3.15338e-08
1.93161e-06
-1.75103e-07
1.89858e-06
-4.21899e-07
1.87336e-06
-5.55807e-07
1.86255e-06
-4.67686e-07
1.83252e-06
-5.96212e-07
1.83513e-06
-3.27092e-07
-3.95816e-07
1.8018e-06
1.94104e-06
-4.28247e-07
1.93496e-06
-2.85773e-07
1.97149e-06
2.12377e-07
2.01462e-06
1.68096e-06
1.97718e-06
-6.92299e-07
1.92643e-06
-1.74547e-06
1.90445e-06
-2.02338e-06
1.9536e-06
-9.15923e-07
2.01342e-06
-2.22312e-07
2.07526e-06
2.80637e-07
2.09643e-06
6.22336e-07
2.07184e-06
2.3418e-07
2.03959e-06
6.37872e-08
2.00935e-06
-1.44857e-07
1.98181e-06
-3.94359e-07
1.95837e-06
-5.32373e-07
1.94975e-06
-4.59062e-07
1.92086e-06
-5.6732e-07
1.92224e-06
-3.28474e-07
-3.65753e-07
1.89217e-06
2.03494e-06
-4.16998e-07
2.02683e-06
-2.77667e-07
2.06169e-06
1.77522e-07
2.10893e-06
1.63372e-06
2.07622e-06
-6.59589e-07
2.02828e-06
-1.69753e-06
1.99869e-06
-1.99379e-06
2.0375e-06
-9.5473e-07
2.0879e-06
-2.72713e-07
2.14228e-06
2.26254e-07
2.16112e-06
6.03494e-07
2.14019e-06
2.55119e-07
2.11481e-06
8.91677e-08
2.09117e-06
-1.2122e-07
2.06952e-06
-3.72715e-07
2.04772e-06
-5.10574e-07
2.04059e-06
-4.51928e-07
2.01337e-06
-5.40098e-07
2.01339e-06
-3.28493e-07
-3.3955e-07
1.98719e-06
2.1336e-06
-4.066e-07
2.12453e-06
-2.68593e-07
2.155e-06
1.47045e-07
2.2041e-06
1.58463e-06
2.1766e-06
-6.32095e-07
2.13305e-06
-1.65398e-06
2.09652e-06
-1.95726e-06
2.1228e-06
-9.81015e-07
2.16114e-06
-3.11052e-07
2.20716e-06
1.80236e-07
2.2262e-06
5.84458e-07
2.21225e-06
2.6907e-07
2.19539e-06
1.06019e-07
2.17847e-06
-1.04294e-07
2.16242e-06
-3.56665e-07
2.14205e-06
-4.90209e-07
2.13558e-06
-4.45451e-07
2.11032e-06
-5.14837e-07
2.10882e-06
-3.26998e-07
-3.17312e-07
2.08658e-06
2.23696e-06
-3.97075e-07
2.22758e-06
-2.59208e-07
2.25258e-06
1.2204e-07
2.30238e-06
1.53483e-06
2.27965e-06
-6.09365e-07
2.24079e-06
-1.61512e-06
2.19868e-06
-1.91515e-06
2.21286e-06
-9.95197e-07
2.23874e-06
-3.36938e-07
2.27663e-06
1.42345e-07
2.29744e-06
5.63649e-07
2.29164e-06
2.74871e-07
2.28338e-06
1.1428e-07
2.27224e-06
-9.3148e-08
2.26089e-06
-3.45317e-07
2.2418e-06
-4.71119e-07
2.23516e-06
-4.38818e-07
2.21198e-06
-4.91657e-07
2.2089e-06
-3.23911e-07
-2.98666e-07
2.19025e-06
2.34504e-06
-3.88243e-07
2.33566e-06
-2.49822e-07
2.35546e-06
1.02235e-07
2.40573e-06
1.48457e-06
2.38666e-06
-5.90303e-07
2.35186e-06
-1.58031e-06
2.30567e-06
-1.86896e-06
2.31008e-06
-9.99607e-07
2.32518e-06
-3.52034e-07
2.35606e-06
1.11459e-07
2.37912e-06
5.40591e-07
2.38063e-06
2.73359e-07
2.37977e-06
1.15148e-07
2.37294e-06
-8.63178e-08
2.36508e-06
-3.37461e-07
2.34719e-06
-4.53225e-07
2.33973e-06
-4.31367e-07
2.31863e-06
-4.70553e-07
2.31402e-06
-3.19299e-07
-2.82934e-07
2.29829e-06
2.45801e-06
-3.79853e-07
2.44873e-06
-2.4055e-07
2.46426e-06
8.67107e-08
2.51521e-06
1.43361e-06
2.49857e-06
-5.73655e-07
2.46681e-06
-1.54856e-06
2.41775e-06
-1.81991e-06
2.41528e-06
-9.97136e-07
2.42232e-06
-3.59068e-07
2.44775e-06
8.60275e-08
2.47285e-06
5.15494e-07
2.47979e-06
2.66418e-07
2.48458e-06
1.10354e-07
2.48064e-06
-8.2374e-08
2.47502e-06
-3.31843e-07
2.45832e-06
-4.36526e-07
2.44963e-06
-4.22677e-07
2.43046e-06
-4.51382e-07
2.42456e-06
-3.13401e-07
-2.69339e-07
2.41097e-06
2.5761e-06
-3.71654e-07
2.56703e-06
-2.31487e-07
2.57924e-06
7.44998e-08
2.6312e-06
1.38166e-06
2.61589e-06
-5.5834e-07
2.58622e-06
-1.51889e-06
2.53508e-06
-1.76876e-06
2.52813e-06
-9.90186e-07
2.52984e-06
-3.60774e-07
2.55131e-06
6.45501e-08
2.57808e-06
4.88727e-07
2.58852e-06
2.55977e-07
2.59733e-06
1.01545e-07
2.59522e-06
-8.02638e-08
2.59075e-06
-3.27376e-07
2.57527e-06
-4.21042e-07
2.56518e-06
-4.12584e-07
2.54763e-06
-4.33837e-07
2.54083e-06
-3.06602e-07
-2.57159e-07
2.52865e-06
2.69959e-06
-3.6342e-07
2.6909e-06
-2.22794e-07
2.70056e-06
6.48361e-08
2.75372e-06
1.3285e-06
2.73893e-06
-5.43554e-07
2.71064e-06
-1.4906e-06
2.65789e-06
-1.71602e-06
2.64803e-06
-9.80325e-07
2.64657e-06
-3.5931e-07
2.66525e-06
4.58691e-08
2.69342e-06
4.6055e-07
2.70592e-06
2.4348e-07
2.71745e-06
9.0016e-08
2.71655e-06
-7.93666e-08
2.71238e-06
-3.2321e-07
2.69812e-06
-4.06781e-07
2.68665e-06
-4.01114e-07
2.67035e-06
-4.17529e-07
2.66306e-06
-2.99319e-07
-2.45832e-07
2.65174e-06
2.82879e-06
-3.54945e-07
2.82068e-06
-2.14676e-07
2.82835e-06
5.71617e-08
2.88279e-06
1.27407e-06
2.86796e-06
-5.28728e-07
2.84051e-06
-1.46315e-06
2.7865e-06
-1.66201e-06
2.77462e-06
-9.68443e-07
2.77151e-06
-3.56196e-07
2.78816e-06
2.92202e-08
2.81761e-06
4.31097e-07
2.83126e-06
2.29825e-07
2.84456e-06
7.67233e-08
2.84457e-06
-7.93802e-08
2.84009e-06
-3.18725e-07
2.82702e-06
-3.93711e-07
2.81435e-06
-3.88444e-07
2.79884e-06
-4.02024e-07
2.79147e-06
-2.91952e-07
-2.34984e-07
2.78063e-06
2.96401e-06
-3.46054e-07
2.95666e-06
-2.07336e-07
2.96276e-06
5.10651e-08
3.01848e-06
1.21835e-06
3.00323e-06
-5.1348e-07
2.97621e-06
-1.43613e-06
2.92128e-06
-1.60707e-06
2.90786e-06
-9.5503e-07
2.90415e-06
-3.5248e-07
2.91923e-06
1.41366e-08
2.94984e-06
4.00488e-07
2.96417e-06
2.15492e-07
2.97847e-06
6.24248e-08
2.97928e-06
-8.01846e-08
2.97407e-06
-3.13512e-07
2.9621e-06
-3.81745e-07
2.94851e-06
-3.74854e-07
2.93342e-06
-3.86932e-07
2.92626e-06
-2.84794e-07
-2.24461e-07
2.91574e-06
3.10556e-06
-3.3661e-07
3.09914e-06
-2.00919e-07
3.10397e-06
4.62406e-08
3.16092e-06
1.16139e-06
3.14502e-06
-4.97579e-07
3.11809e-06
-1.4092e-06
3.06258e-06
-1.55156e-06
3.04791e-06
-9.40361e-07
3.04431e-06
-3.48877e-07
3.05812e-06
3.2587e-10
3.0897e-06
3.68907e-07
3.10448e-06
2.00705e-07
3.11917e-06
4.77406e-08
3.12072e-06
-8.17383e-08
3.11458e-06
-3.07367e-07
3.10355e-06
-3.70723e-07
3.08939e-06
-3.60691e-07
3.07442e-06
-3.71957e-07
3.06761e-06
-2.77991e-07
-2.14275e-07
3.05743e-06
3.25382e-06
-3.26522e-07
3.24841e-06
-1.95504e-07
3.25218e-06
4.24731e-08
3.31028e-06
1.10328e-06
3.29364e-06
-4.80933e-07
3.26647e-06
-1.38204e-06
3.21075e-06
-1.49584e-06
3.19498e-06
-9.24594e-07
3.19197e-06
-3.45866e-07
3.20471e-06
-1.24053e-08
3.23699e-06
3.36621e-07
3.25215e-06
1.85548e-07
3.26672e-06
3.31675e-08
3.26901e-06
-8.4027e-08
3.26189e-06
-3.00243e-07
3.25162e-06
-3.60455e-07
3.23724e-06
-3.46313e-07
3.22219e-06
-3.56909e-07
3.21576e-06
-2.71557e-07
-2.04561e-07
3.20604e-06
3.40917e-06
-3.15756e-07
3.40477e-06
-1.91112e-07
3.40762e-06
3.96268e-08
3.46675e-06
1.04415e-06
3.44938e-06
-4.63567e-07
3.42169e-06
-1.35434e-06
3.36613e-06
-1.44028e-06
3.34935e-06
-9.07815e-07
3.34723e-06
-3.43743e-07
3.35903e-06
-2.42025e-08
3.39168e-06
3.03967e-07
3.40723e-06
1.70002e-07
3.42133e-06
1.90659e-08
3.4243e-06
-8.69981e-08
3.41631e-06
-2.92248e-07
3.40656e-06
-3.50713e-07
3.39233e-06
-3.32079e-07
3.37709e-06
-3.4167e-07
3.37095e-06
-2.65413e-07
-1.95524e-07
3.36191e-06
3.57198e-06
-3.04327e-07
3.56859e-06
-1.87716e-07
3.57059e-06
3.76257e-08
3.63057e-06
9.84174e-07
3.61261e-06
-4.45612e-07
3.58407e-06
-1.3258e-06
3.52906e-06
-1.38527e-06
3.51131e-06
-8.90071e-07
3.51022e-06
-3.42656e-07
3.52122e-06
-3.52022e-08
3.55388e-06
2.71306e-07
3.56987e-06
1.54018e-07
3.58328e-06
5.65377e-09
3.58683e-06
-9.05519e-08
3.57814e-06
-2.83555e-07
3.56874e-06
-3.41314e-07
3.55494e-06
-3.18276e-07
3.53948e-06
-3.26208e-07
3.53349e-06
-2.59426e-07
-1.87368e-07
3.52533e-06
3.74267e-06
-2.9229e-07
3.74022e-06
-1.85271e-07
3.74143e-06
3.64228e-08
3.80204e-06
9.23565e-07
3.7837e-06
-4.27278e-07
3.75401e-06
-1.29611e-06
3.69986e-06
-1.33112e-06
3.68117e-06
-8.71379e-07
3.68116e-06
-3.42641e-07
3.69152e-06
-4.55611e-08
3.72382e-06
2.39002e-07
3.7403e-06
1.3754e-07
3.75293e-06
-6.97316e-09
3.75692e-06
-9.45419e-08
3.74774e-06
-2.74376e-07
3.7385e-06
-3.3208e-07
3.72537e-06
-3.05149e-07
3.70972e-06
-3.10557e-07
3.7037e-06
-2.53405e-07
-1.80265e-07
3.6966e-06
3.92162e-06
-2.79724e-07
3.92007e-06
-1.83722e-07
3.92053e-06
3.5965e-08
3.9815e-06
8.62592e-07
3.96306e-06
-4.08832e-07
3.93192e-06
-1.26497e-06
3.87893e-06
-1.27812e-06
3.85929e-06
-8.51744e-07
3.86029e-06
-3.43639e-07
3.87019e-06
-5.54649e-08
3.90182e-06
2.07371e-07
3.9188e-06
1.20562e-07
3.93065e-06
-1.88211e-08
3.93491e-06
-9.88009e-08
3.92544e-06
-2.6491e-07
3.91625e-06
-3.22883e-07
3.90395e-06
-2.92855e-07
3.88821e-06
-2.94814e-07
3.88192e-06
-2.47119e-07
-1.74358e-07
3.87602e-06
4.10923e-06
-2.66708e-07
4.10853e-06
-1.83015e-07
4.10833e-06
3.61608e-08
4.16936e-06
8.01564e-07
4.1511e-06
-3.90569e-07
4.11827e-06
-1.23215e-06
4.06663e-06
-1.22648e-06
4.04606e-06
-8.31169e-07
4.04792e-06
-3.45497e-07
4.05757e-06
-6.51222e-08
4.08826e-06
1.76687e-07
4.10571e-06
1.03108e-07
4.11684e-06
-2.99479e-08
4.1212e-06
-1.03161e-07
4.11161e-06
-2.55326e-07
4.10236e-06
-3.13632e-07
4.09097e-06
-2.81465e-07
4.07533e-06
-2.7917e-07
4.06853e-06
-2.4032e-07
-1.69652e-07
4.06382e-06
4.30591e-06
-2.53311e-07
4.30598e-06
-1.83089e-07
4.30528e-06
3.68554e-08
4.36601e-06
7.40838e-07
4.34823e-06
-3.72791e-07
4.31355e-06
-1.19747e-06
4.2634e-06
-1.17633e-06
4.2419e-06
-8.09663e-07
4.24441e-06
-3.48009e-07
4.25402e-06
-7.47381e-08
4.28354e-06
1.47173e-07
4.3014e-06
8.52428e-08
4.31188e-06
-4.04292e-08
4.31619e-06
-1.0747e-07
4.30662e-06
-2.45749e-07
4.29721e-06
-3.04226e-07
4.28675e-06
-2.71003e-07
4.27149e-06
-2.63916e-07
4.26391e-06
-2.32737e-07
-1.66033e-07
4.26029e-06
4.51205e-06
-2.39584e-07
4.51282e-06
-1.83866e-07
4.51185e-06
3.78268e-08
4.57187e-06
6.80817e-07
4.55486e-06
-3.55782e-07
4.51826e-06
-1.16086e-06
4.46967e-06
-1.12775e-06
4.44728e-06
-7.87275e-07
4.45019e-06
-3.50913e-07
4.45993e-06
-8.44811e-08
4.48813e-06
1.18972e-07
4.50628e-06
6.70993e-08
4.51621e-06
-5.03609e-08
4.52034e-06
-1.11604e-07
4.51086e-06
-2.36269e-07
4.50116e-06
-2.94524e-07
4.49159e-06
-2.61435e-07
4.47708e-06
-2.49407e-07
4.46855e-06
-2.24201e-07
-1.63237e-07
4.46575e-06
4.7281e-06
-2.25571e-07
4.72947e-06
-1.85232e-07
4.72849e-06
3.88038e-08
4.78737e-06
6.21936e-07
4.77139e-06
-3.39798e-07
4.73289e-06
-1.12236e-06
4.68589e-06
-1.08075e-06
4.66273e-06
-7.64112e-07
4.66575e-06
-3.53935e-07
4.67573e-06
-9.44647e-08
4.70255e-06
9.2157e-08
4.72078e-06
4.88693e-08
4.73024e-06
-5.9822e-08
4.73415e-06
-1.1552e-07
4.72481e-06
-2.26926e-07
4.71471e-06
-2.84421e-07
4.70594e-06
-2.52671e-07
4.69246e-06
-2.35921e-07
4.6831e-06
-2.14845e-07
-1.60765e-07
4.68063e-06
4.95454e-06
-2.11313e-07
4.95635e-06
-1.87045e-07
4.95565e-06
3.95093e-08
5.01296e-06
5.64625e-07
4.99821e-06
-3.25049e-07
4.95796e-06
-1.08211e-06
4.91252e-06
-1.03531e-06
4.88875e-06
-7.40338e-07
4.89163e-06
-3.56814e-07
4.9019e-06
-1.0474e-07
4.9273e-06
6.67625e-08
4.94542e-06
3.0751e-08
4.95446e-06
-6.88619e-08
4.95815e-06
-1.19217e-07
4.94899e-06
-2.17764e-07
4.93855e-06
-2.73981e-07
4.93035e-06
-2.44472e-07
4.91805e-06
-2.23621e-07
4.90815e-06
-2.04939e-07
-1.58078e-07
4.90546e-06
5.19187e-06
-1.96864e-07
5.19395e-06
-1.89131e-07
5.19375e-06
3.97135e-08
5.24912e-06
5.09259e-07
5.23576e-06
-3.11697e-07
5.19403e-06
-1.04038e-06
5.15006e-06
-9.91346e-07
5.12588e-06
-7.16159e-07
5.1284e-06
-3.59336e-07
5.13892e-06
-1.15257e-07
5.16294e-06
4.27386e-08
5.18074e-06
1.29537e-08
5.18937e-06
-7.74902e-08
5.19288e-06
-1.22725e-07
5.184e-06
-2.08887e-07
5.17324e-06
-2.63223e-07
5.16542e-06
-2.36655e-07
5.15428e-06
-2.12475e-07
5.14423e-06
-1.94888e-07
-1.54755e-07
5.1409e-06
5.44062e-06
-1.82293e-07
5.4428e-06
-1.91309e-07
5.44323e-06
3.92776e-08
5.49637e-06
4.56121e-07
5.48452e-06
-2.99848e-07
5.44161e-06
-9.97461e-07
5.39901e-06
-9.48751e-07
5.37466e-06
-6.91805e-07
5.37664e-06
-3.61323e-07
5.38729e-06
-1.259e-07
5.41003e-06
1.99979e-08
5.42732e-06
-4.34033e-09
5.43556e-06
-8.57234e-08
5.43887e-06
-1.26035e-07
5.43038e-06
-2.004e-07
5.4194e-06
-2.52246e-07
5.41173e-06
-2.28983e-07
5.40166e-06
-2.02402e-07
5.39179e-06
-1.85022e-07
-1.507e-07
5.38774e-06
5.70135e-06
-1.67684e-07
5.70344e-06
-1.93396e-07
5.70457e-06
3.81451e-08
5.7553e-06
4.05395e-07
5.74498e-06
-2.89536e-07
5.70125e-06
-9.53732e-07
5.65991e-06
-9.07403e-07
5.63561e-06
-6.67508e-07
5.63695e-06
-3.62666e-07
5.64755e-06
-1.36498e-07
5.66909e-06
-1.54151e-09
5.68577e-06
-2.10211e-08
5.6936e-06
-9.35521e-08
5.69668e-06
-1.29111e-07
5.68866e-06
-1.92387e-07
5.6776e-06
-2.41179e-07
5.66993e-06
-2.21316e-07
5.66073e-06
-1.93203e-07
5.65133e-06
-1.7562e-07
-1.4594e-07
5.64657e-06
5.97465e-06
-1.5314e-07
5.97647e-06
-1.95221e-07
5.9783e-06
3.63159e-08
6.02653e-06
3.57164e-07
6.01769e-06
-2.80697e-07
5.97349e-06
-9.09527e-07
5.93329e-06
-8.67207e-07
5.90929e-06
-6.43503e-07
5.90991e-06
-3.63291e-07
5.92031e-06
-1.46895e-07
5.94065e-06
-2.18802e-08
5.95669e-06
-3.70643e-08
5.96412e-06
-1.00978e-07
5.9669e-06
-1.31893e-07
5.95942e-06
-1.84905e-07
5.94837e-06
-2.30134e-07
5.94066e-06
-2.13605e-07
5.93214e-06
-1.84683e-07
5.92329e-06
-1.66766e-07
-1.40725e-07
5.91807e-06
6.26112e-06
-1.38776e-07
6.26253e-06
-1.96628e-07
6.26506e-06
3.3786e-08
6.31074e-06
3.11487e-07
6.30329e-06
-2.7325e-07
6.25887e-06
-8.65104e-07
6.21975e-06
-8.28085e-07
6.19625e-06
-6.20009e-07
6.19614e-06
-3.63173e-07
6.20618e-06
-1.56936e-07
6.22525e-06
-4.0955e-08
6.2407e-06
-5.25131e-08
6.24773e-06
-1.08011e-07
6.25021e-06
-1.34367e-07
6.24323e-06
-1.77922e-07
6.23231e-06
-2.19215e-07
6.22456e-06
-2.05863e-07
6.21661e-06
-1.76729e-07
6.20824e-06
-1.58392e-07
-1.35295e-07
6.20281e-06
6.56142e-06
-1.24723e-07
6.56224e-06
-1.97454e-07
6.56562e-06
3.04061e-08
6.60854e-06
2.68573e-07
6.60244e-06
-2.6715e-07
6.55804e-06
-8.20707e-07
6.51987e-06
-7.89913e-07
6.49708e-06
-5.9722e-07
6.49626e-06
-3.62357e-07
6.5058e-06
-1.66472e-07
6.52351e-06
-5.86729e-08
6.53839e-06
-6.73926e-08
6.54511e-06
-1.14729e-07
6.54721e-06
-1.36469e-07
6.5407e-06
-1.71406e-07
6.52999e-06
-2.08509e-07
6.52228e-06
-1.98146e-07
6.51484e-06
-1.69291e-07
6.50683e-06
-1.50389e-07
-1.29821e-07
6.50136e-06
6.87619e-06
-1.11124e-07
6.87627e-06
-1.97528e-07
6.88074e-06
2.59362e-08
6.92054e-06
2.28771e-07
6.91578e-06
-2.6239e-07
6.87172e-06
-7.76647e-07
6.83429e-06
-7.52489e-07
6.81234e-06
-5.75269e-07
6.81093e-06
-3.60948e-07
6.81988e-06
-1.75419e-07
6.83608e-06
-7.4878e-08
6.85034e-06
-8.16531e-08
6.8569e-06
-1.21284e-07
6.85858e-06
-1.38146e-07
6.85248e-06
-1.65307e-07
6.84206e-06
-1.98091e-07
6.83443e-06
-1.90515e-07
6.82751e-06
-1.62372e-07
6.81979e-06
-1.42673e-07
-1.24394e-07
6.81436e-06
7.20615e-06
-9.8135e-08
7.20528e-06
-1.96664e-07
7.21112e-06
2.01012e-08
7.24737e-06
1.92517e-07
7.24392e-06
-2.58941e-07
7.20064e-06
-7.33366e-07
7.16375e-06
-7.156e-07
7.14264e-06
-5.54158e-07
7.14083e-06
-3.59137e-07
7.14913e-06
-1.83717e-07
7.16367e-06
-8.94225e-08
7.17716e-06
-9.51402e-08
7.18371e-06
-1.27827e-07
7.18501e-06
-1.39454e-07
7.1792e-06
-1.59491e-07
7.1692e-06
-1.88096e-07
7.16166e-06
-1.82972e-07
7.15528e-06
-1.55993e-07
7.14784e-06
-1.35227e-07
-1.18994e-07
7.14244e-06
7.55202e-06
-8.59272e-08
7.55e-06
-1.94647e-07
7.55745e-06
1.26553e-08
7.58977e-06
1.60198e-07
7.58748e-06
-2.56659e-07
7.54557e-06
-6.91451e-07
7.50905e-06
-6.79082e-07
7.48865e-06
-5.33759e-07
7.4866e-06
-3.57087e-07
7.49427e-06
-1.9138e-07
7.50708e-06
-1.02232e-07
7.5195e-06
-1.07563e-07
7.52612e-06
-1.34452e-07
7.52717e-06
-1.405e-07
7.5216e-06
-1.5392e-07
7.51207e-06
-1.78571e-07
7.50465e-06
-1.75544e-07
7.49882e-06
-1.50163e-07
7.49177e-06
-1.28182e-07
-1.13448e-07
7.48622e-06
7.91456e-06
-7.46732e-08
7.91108e-06
-1.91173e-07
7.92038e-06
3.36249e-09
7.94861e-06
1.31962e-07
7.94709e-06
-2.55139e-07
7.90723e-06
-6.51588e-07
7.87105e-06
-6.42904e-07
7.8511e-06
-5.13805e-07
7.8489e-06
-3.54895e-07
7.856e-06
-1.98473e-07
7.86709e-06
-1.13326e-07
7.87809e-06
-1.18563e-07
7.88469e-06
-1.41053e-07
7.88572e-06
-1.41532e-07
7.88039e-06
-1.48583e-07
7.87134e-06
-1.69523e-07
7.86407e-06
-1.68275e-07
7.85883e-06
-1.44924e-07
7.85226e-06
-1.21616e-07
-1.07712e-07
7.84653e-06
8.29455e-06
-6.45414e-08
8.28923e-06
-1.85851e-07
8.30051e-06
-7.92348e-09
8.32496e-06
1.07512e-07
8.32347e-06
-2.53644e-07
8.28633e-06
-6.14451e-07
8.25064e-06
-6.07215e-07
8.23074e-06
-4.93898e-07
8.22836e-06
-3.52519e-07
8.23505e-06
-2.0516e-07
8.24443e-06
-1.22711e-07
8.2537e-06
-1.2783e-07
8.25998e-06
-1.47335e-07
8.26122e-06
-1.42771e-07
8.25624e-06
-1.43601e-07
8.24773e-06
-1.61015e-07
8.24063e-06
-1.61174e-07
8.23593e-06
-1.40225e-07
8.23005e-06
-1.15733e-07
-1.01899e-07
8.22423e-06
8.69279e-06
-5.56723e-08
8.68538e-06
-1.78443e-07
8.6985e-06
-2.10402e-08
8.71991e-06
8.6106e-08
8.71732e-06
-2.51055e-07
8.68336e-06
-5.80491e-07
8.64864e-06
-5.72498e-07
8.6284e-06
-4.73653e-07
8.62565e-06
-3.49773e-07
8.63194e-06
-2.11445e-07
8.63977e-06
-1.30538e-07
8.64703e-06
-1.35099e-07
8.65257e-06
-1.52871e-07
8.65423e-06
-1.44433e-07
8.64992e-06
-1.39285e-07
8.64197e-06
-1.53069e-07
8.63507e-06
-1.54271e-07
8.6308e-06
-1.35958e-07
8.62589e-06
-1.10818e-07
-9.6074e-08
8.62006e-06
9.11011e-06
-4.81627e-08
9.1006e-06
-1.68937e-07
9.11505e-06
-3.54885e-08
9.13456e-06
6.66015e-08
9.12966e-06
-2.46156e-07
9.09889e-06
-5.4972e-07
9.06585e-06
-5.39458e-07
9.04491e-06
-4.52714e-07
9.04132e-06
-3.46183e-07
9.04709e-06
-2.17223e-07
9.05366e-06
-1.37106e-07
9.05889e-06
-1.40322e-07
9.06334e-06
-1.57326e-07
9.06558e-06
-1.46671e-07
9.06221e-06
-1.35912e-07
9.05494e-06
-1.45803e-07
9.04826e-06
-1.47588e-07
9.04426e-06
-1.31963e-07
9.04039e-06
-1.06949e-07
-9.06625e-08
9.03498e-06
9.54735e-06
-4.20512e-08
9.536e-06
-1.57591e-07
9.551e-06
-5.04897e-08
9.56997e-06
4.76363e-08
9.56187e-06
-2.38062e-07
9.53354e-06
-5.21381e-07
9.50288e-06
-5.08805e-07
9.48109e-06
-4.3092e-07
9.4759e-06
-3.40997e-07
9.48118e-06
-2.22504e-07
9.48697e-06
-1.42897e-07
9.49057e-06
-1.43918e-07
9.49374e-06
-1.60495e-07
9.49632e-06
-1.49254e-07
9.49404e-06
-1.33634e-07
9.48762e-06
-1.39376e-07
9.48117e-06
-1.41146e-07
9.47723e-06
-1.28024e-07
9.47439e-06
-1.04107e-07
-8.60552e-08
9.46979e-06
1.00054e-05
-3.73123e-08
9.99269e-06
-1.44886e-07
1.00073e-05
-6.50941e-08
1.00268e-05
2.81183e-08
1.00153e-05
-2.26571e-07
9.98806e-06
-4.94118e-07
9.96022e-06
-4.80969e-07
9.93799e-06
-4.08691e-07
9.93065e-06
-3.33656e-07
9.93532e-06
-2.27171e-07
9.94097e-06
-1.48549e-07
9.94354e-06
-1.46481e-07
9.94536e-06
-1.62317e-07
9.94777e-06
-1.51671e-07
9.94653e-06
-1.32387e-07
9.94101e-06
-1.33862e-07
9.93489e-06
-1.35021e-07
9.9309e-06
-1.24038e-07
9.9287e-06
-1.01908e-07
-8.2679e-08
9.92533e-06
1.04852e-05
-3.38434e-08
1.04717e-05
-1.31436e-07
1.04851e-05
-7.84488e-08
1.05056e-05
7.58877e-09
1.04914e-05
-2.12323e-07
1.04637e-05
-4.66425e-07
1.04388e-05
-4.56086e-07
1.0417e-05
-3.86911e-07
1.04074e-05
-3.24047e-07
1.0411e-05
-2.30781e-07
1.04169e-05
-1.54407e-07
1.04188e-05
-1.48431e-07
1.04194e-05
-1.62905e-07
1.04213e-05
-1.53594e-07
1.04209e-05
-1.31925e-07
1.04162e-05
-1.29198e-07
1.04105e-05
-1.29286e-07
1.04065e-05
-1.20052e-07
1.04044e-05
-9.98395e-08
-8.06405e-08
1.04024e-05
1.09876e-05
-3.14571e-08
1.09741e-05
-1.17915e-07
1.09854e-05
-8.97764e-08
1.10069e-05
-1.39203e-08
1.09915e-05
-1.96887e-07
1.09624e-05
-4.373e-07
1.09399e-05
-4.33552e-07
1.09194e-05
-3.66471e-07
1.09078e-05
-3.12467e-07
1.09098e-05
-2.32778e-07
1.09158e-05
-1.60334e-07
1.09174e-05
-1.50113e-07
1.0917e-05
-1.62444e-07
1.09182e-05
-1.54817e-07
1.09182e-05
-1.31903e-07
1.09143e-05
-1.253e-07
1.0909e-05
-1.23985e-07
1.09051e-05
-1.16122e-07
1.09029e-05
-9.77128e-08
-7.94709e-08
1.09018e-05
1.15138e-05
-2.98868e-08
1.15009e-05
-1.0498e-07
1.15094e-05
-9.83573e-08
1.15316e-05
-3.6116e-08
1.15168e-05
-1.82007e-07
1.14858e-05
-4.06321e-07
1.14646e-05
-4.12422e-07
1.14462e-05
-3.48067e-07
1.14333e-05
-2.99527e-07
1.14333e-05
-2.32744e-07
1.14387e-05
-1.65754e-07
1.14404e-05
-1.51821e-07
1.14391e-05
-1.61193e-07
1.14396e-05
-1.55231e-07
1.14397e-05
-1.32047e-07
1.14365e-05
-1.22063e-07
1.14316e-05
-1.19077e-07
1.14278e-05
-1.1233e-07
1.14256e-05
-9.55147e-08
-7.85437e-08
1.14246e-05
1.20647e-05
-2.88121e-08
1.2053e-05
-9.32505e-08
1.20584e-05
-1.03724e-07
1.20807e-05
-5.84449e-08
1.20679e-05
-1.69226e-07
1.20354e-05
-3.73738e-07
1.20143e-05
-3.91417e-07
1.19983e-05
-3.32057e-07
1.19851e-05
-2.8626e-07
1.19827e-05
-2.3036e-07
1.19869e-05
-1.69979e-07
1.19886e-05
-1.53495e-07
1.19869e-05
-1.59521e-07
1.19865e-05
-1.54824e-07
1.19866e-05
-1.32173e-07
1.1984e-05
-1.19429e-07
1.19794e-05
-1.14519e-07
1.19758e-05
-1.08643e-07
1.19736e-05
-9.33248e-08
-7.7569e-08
1.19726e-05
1.26417e-05
-2.78836e-08
1.26317e-05
-8.33306e-08
1.26337e-05
-1.05698e-07
1.26554e-05
-8.01633e-08
1.26459e-05
-1.59717e-07
1.26125e-05
-3.40293e-07
1.25902e-05
-3.6909e-07
1.25765e-05
-3.18378e-07
1.2564e-05
-2.73772e-07
1.25593e-05
-2.25722e-07
1.25619e-05
-1.72497e-07
1.25632e-05
-1.54807e-07
1.25613e-05
-1.57667e-07
1.25602e-05
-1.53663e-07
1.25602e-05
-1.32215e-07
1.25581e-05
-1.173e-07
1.25539e-05
-1.1036e-07
1.25502e-05
-1.04943e-07
1.25481e-05
-9.12403e-08
-7.64285e-08
1.2547e-05
1.32458e-05
-2.6761e-08
1.32382e-05
-7.57614e-08
1.32369e-05
-1.04384e-07
1.32573e-05
-1.00521e-07
1.32514e-05
-1.53863e-07
1.32181e-05
-3.06968e-07
1.31937e-05
-3.44669e-07
1.31815e-05
-3.0616e-07
1.31706e-05
-2.62857e-07
1.31645e-05
-2.19689e-07
1.3165e-05
-1.72977e-07
1.31655e-05
-1.55332e-07
1.31636e-05
-1.55698e-07
1.31618e-05
-1.51896e-07
1.31616e-05
-1.32009e-07
1.316e-05
-1.15675e-07
1.31563e-05
-1.06668e-07
1.31525e-05
-1.01192e-07
1.31505e-05
-8.92361e-08
-7.51676e-08
1.31493e-05
1.38786e-05
-2.51753e-08
1.38738e-05
-7.09842e-08
1.38697e-05
-1.00234e-07
1.38875e-05
-1.18413e-07
1.38851e-05
-1.51411e-07
1.38531e-05
-2.74981e-07
1.38268e-05
-3.18316e-07
1.38144e-05
-2.93798e-07
1.38054e-05
-2.53864e-07
1.37993e-05
-2.13568e-07
1.37977e-05
-1.71389e-07
1.37972e-05
-1.54804e-07
1.37948e-05
-1.53381e-07
1.37926e-05
-1.49693e-07
1.37921e-05
-1.31455e-07
1.37909e-05
-1.14449e-07
1.37878e-05
-1.03575e-07
1.3784e-05
-9.74729e-08
1.37819e-05
-8.71334e-08
-7.3971e-08
1.37807e-05
1.45414e-05
-2.29579e-08
1.45393e-05
-6.88148e-08
1.45332e-05
-9.41857e-08
1.45474e-05
-1.32595e-07
1.45477e-05
-1.51688e-07
1.45184e-05
-2.45662e-07
1.44907e-05
-2.90648e-07
1.44769e-05
-2.79987e-07
1.44696e-05
-2.46525e-07
1.44642e-05
-2.08239e-07
1.44614e-05
-1.68554e-07
1.44596e-05
-1.52977e-07
1.44567e-05
-1.50491e-07
1.44541e-05
-1.47073e-07
1.44531e-05
-1.30509e-07
1.44521e-05
-1.13455e-07
1.44497e-05
-1.01134e-07
1.44462e-05
-9.39731e-08
1.44439e-05
-8.48441e-08
-7.28715e-08
1.44428e-05
1.5236e-05
-2.00521e-08
1.52362e-05
-6.9054e-08
1.52291e-05
-8.70948e-08
1.5238e-05
-1.41436e-07
1.524e-05
-1.53674e-07
1.52146e-05
-2.20353e-07
1.51867e-05
-2.62672e-07
1.51712e-05
-2.64562e-07
1.51643e-05
-2.39611e-07
1.51602e-05
-2.04081e-07
1.51573e-05
-1.65708e-07
1.51542e-05
-1.49821e-07
1.51506e-05
-1.46947e-07
1.51474e-05
-1.43878e-07
1.51461e-05
-1.29203e-07
1.51452e-05
-1.12502e-07
1.51433e-05
-9.92756e-08
1.51403e-05
-9.09382e-08
1.51378e-05
-8.23784e-08
-7.17592e-08
1.51367e-05
1.59638e-05
-1.65032e-08
1.59664e-05
-7.16257e-08
1.59578e-05
-7.85134e-08
1.59599e-05
-1.43562e-07
1.5963e-05
-1.5675e-07
1.59428e-05
-2.00182e-07
1.5916e-05
-2.35912e-07
1.58994e-05
-2.47961e-07
1.58916e-05
-2.31728e-07
1.58885e-05
-2.01028e-07
1.58864e-05
-1.63569e-07
1.58826e-05
-1.46043e-07
1.58783e-05
-1.42651e-07
1.58744e-05
-1.3996e-07
1.58726e-05
-1.2744e-07
1.58716e-05
-1.11477e-07
1.58702e-05
-9.78464e-08
1.58677e-05
-8.84588e-08
1.58652e-05
-7.99408e-08
-7.05023e-08
1.5864e-05
1.67264e-05
-1.23389e-08
1.67253e-05
-7.05155e-08
1.6718e-05
-7.11843e-08
1.67156e-05
-1.412e-07
1.67189e-05
-1.59997e-07
1.67047e-05
-1.86003e-07
1.66807e-05
-2.11868e-07
1.6663e-05
-2.30346e-07
1.66537e-05
-2.2234e-07
1.66507e-05
-1.98108e-07
1.66495e-05
-1.6235e-07
1.66461e-05
-1.42661e-07
1.66411e-05
-1.37643e-07
1.66366e-05
-1.35436e-07
1.66341e-05
-1.24971e-07
1.6633e-05
-1.10345e-07
1.66318e-05
-9.66334e-08
1.66299e-05
-8.65538e-08
1.66277e-05
-7.77282e-08
-6.90873e-08
1.66263e-05
1.7526e-05
-7.97787e-09
1.75263e-05
-7.07929e-08
1.75184e-05
-6.33547e-08
1.75108e-05
-1.33597e-07
1.75109e-05
-1.60015e-07
1.75023e-05
-1.77407e-07
1.7482e-05
-1.91594e-07
1.74638e-05
-2.12204e-07
1.7453e-05
-2.11483e-07
1.74489e-05
-1.93974e-07
1.74484e-05
-1.61896e-07
1.74458e-05
-1.40098e-07
1.74408e-05
-1.32611e-07
1.74357e-05
-1.3034e-07
1.74325e-05
-1.21707e-07
1.7431e-05
-1.08906e-07
1.74299e-05
-9.55126e-08
1.74284e-05
-8.50573e-08
1.74266e-05
-7.59065e-08
-6.7589e-08
1.74251e-05
1.8364e-05
-3.67342e-09
1.83625e-05
-6.92028e-08
1.83566e-05