/*--------------------------------*- C++ -*----------------------------------*\
| =========                 |                                                 |
| \\      /  F ield         | OpenFOAM: The Open Source CFD Toolbox           |
|  \\    /   O peration     | Version:  v1906                                 |
|   \\  /    A nd           | Web:      www.OpenFOAM.com                      |
|    \\/     M anipulation  |                                                 |
\*---------------------------------------------------------------------------*/
FoamFile
{
    version     2.0;
    format      ascii;
    class       volVectorField;
    location    "8.1";
    object      U;
}
// * * * * * * * * * * * * * * * * * * * * * * * * * * * * * * * * * * * * * //

dimensions      [0 1 -1 0 0 0 0];


internalField   nonuniform List<vector> 
9600
(
(0.600853 -0.00524895 0)
(1.40002 0.0137142 0)
(0.567832 -0.00992233 0)
(1.28025 -0.0214156 0)
(0.871303 -0.0234993 0)
(1.36965 0.0126029 0)
(0.757741 0.00739324 0)
(1.25492 0.0117206 0)
(0.784895 -0.0129083 0)
(1.21565 -0.0152128 0)
(0.905155 -0.03102 0)
(1.2356 -0.0175875 0)
(0.914302 -0.0136388 0)
(1.19038 -0.00198437 0)
(0.915172 -0.00036387 0)
(1.17794 0.00549771 0)
(0.910772 0.00473779 0)
(1.17585 0.00597237 0)
(0.899344 0.00733161 0)
(1.16846 0.00468733 0)
(0.618929 -0.00553268 0)
(1.38592 0.0141836 0)
(0.645376 -0.00916136 0)
(1.22975 -0.0239549 0)
(0.878848 -0.0251445 0)
(1.3525 0.0135227 0)
(0.810151 0.0081879 0)
(1.22611 0.0118542 0)
(0.88752 -0.0126213 0)
(1.17863 -0.0166289 0)
(0.964037 -0.0319504 0)
(1.20564 -0.0175963 0)
(0.966688 -0.0130526 0)
(1.15916 -0.00174489 0)
(0.971076 -0.00020813 0)
(1.1304 0.0056078 0)
(0.986264 0.00500813 0)
(1.10094 0.00572452 0)
(1.00642 0.00856997 0)
(1.05416 0.00355173 0)
(0.653436 -0.00579973 0)
(1.35545 0.0144303 0)
(0.738876 -0.00828276 0)
(1.16138 -0.0251882 0)
(0.894786 -0.0265541 0)
(1.31097 0.0145959 0)
(0.889972 0.00932468 0)
(1.19283 0.011275 0)
(0.979412 -0.0122949 0)
(1.13455 -0.0172287 0)
(1.00664 -0.0322246 0)
(1.15188 -0.0176173 0)
(1.02064 -0.0123272 0)
(1.11532 -0.0018109 0)
(1.02748 0.000345118 0)
(1.08814 0.00534043 0)
(1.03953 0.00566146 0)
(1.0654 0.00540156 0)
(1.04496 0.00932604 0)
(1.04567 0.00440174 0)
(0.702282 -0.00603827 0)
(1.30843 0.0140786 0)
(0.832202 -0.00696024 0)
(1.08691 -0.0260258 0)
(0.91338 -0.028121 0)
(1.24876 0.0148015 0)
(0.969144 0.0102289 0)
(1.16603 0.0104049 0)
(1.0506 -0.011584 0)
(1.10139 -0.0172977 0)
(1.03064 -0.0322918 0)
(1.09931 -0.0179539 0)
(1.04783 -0.0118198 0)
(1.08206 -0.00197304 0)
(1.05299 0.000771466 0)
(1.07046 0.00512801 0)
(1.05825 0.00612405 0)
(1.06159 0.00531681 0)
(1.05492 0.00976093 0)
(1.05507 0.00528592 0)
(0.760913 -0.00625863 0)
(1.24899 0.0133091 0)
(0.911024 -0.00531501 0)
(1.02086 -0.0263501 0)
(0.927115 -0.0296949 0)
(1.17714 0.0140923 0)
(1.03152 0.0106979 0)
(1.15283 0.00957966 0)
(1.097 -0.0106733 0)
(1.08541 -0.0167719 0)
(1.03674 -0.0319217 0)
(1.06014 -0.0183016 0)
(1.04917 -0.0116174 0)
(1.06166 -0.00214955 0)
(1.05635 0.000917451 0)
(1.06397 0.00496209 0)
(1.06303 0.00634568 0)
(1.06384 0.00532131 0)
(1.06089 0.0100257 0)
(1.06168 0.00587305 0)
(0.822258 -0.00643816 0)
(1.18548 0.0123441 0)
(0.967625 -0.00356139 0)
(0.974604 -0.0262124 0)
(0.931637 -0.0311594 0)
(1.11071 0.0127626 0)
(1.07288 0.0105404 0)
(1.15259 0.00887298 0)
(1.12451 -0.00963232 0)
(1.08281 -0.0156857 0)
(1.03492 -0.0311114 0)
(1.03433 -0.0185622 0)
(1.03769 -0.0116925 0)
(1.04724 -0.00246494 0)
(1.05113 0.000834803 0)
(1.05905 0.00466712 0)
(1.06344 0.00637372 0)
(1.06549 0.00526959 0)
(1.0653 0.0100724 0)
(1.06679 0.0063824 0)
(0.878471 -0.0065733 0)
(1.12761 0.0113601 0)
(1.00207 -0.00191221 0)
(0.952371 -0.0256575 0)
(0.928164 -0.0324336 0)
(1.06098 0.010964 0)
(1.09643 0.00964097 0)
(1.15888 0.00825431 0)
(1.13929 -0.00846931 0)
(1.08572 -0.014169 0)
(1.03187 -0.0298555 0)
(1.01737 -0.0186537 0)
(1.02319 -0.0119167 0)
(1.03466 -0.00298464 0)
(1.04377 0.000549005 0)
(1.05398 0.00419276 0)
(1.06215 0.00619854 0)
(1.06616 0.00510235 0)
(1.06813 0.00992075 0)
(1.0706 0.00687767 0)
(0.92352 -0.00667895 0)
(1.08218 0.0104907 0)
(1.01966 -0.000509669 0)
(0.95051 -0.0247921 0)
(0.922035 -0.033491 0)
(1.0314 0.00874375 0)
(1.10706 0.00810201 0)
(1.16393 0.00767123 0)
(1.14439 -0.00719375 0)
(1.08789 -0.0123844 0)
(1.02948 -0.0282206 0)
(1.00589 -0.0185372 0)
(1.00999 -0.0121867 0)
(1.02306 -0.00369743 0)
(1.0362 6.03946e-05 0)
(1.04895 0.00353485 0)
(1.06012 0.0058201 0)
(1.06593 0.00482772 0)
(1.06951 0.00961973 0)
(1.07271 0.00734627 0)
(0.954952 -0.00676869 0)
(1.05086 0.00979011 0)
(1.02706 0.000576082 0)
(0.960838 -0.0237216 0)
(0.918751 -0.0343223 0)
(1.01767 0.0062119 0)
(1.10799 0.0062024 0)
(1.1619 0.00710576 0)
(1.14052 -0.00583978 0)
(1.08614 -0.0104849 0)
(1.02729 -0.0263207 0)
(0.998271 -0.0182222 0)
(0.999553 -0.0124425 0)
(1.01265 -0.00456051 0)
(1.02866 -0.000630602 0)
(1.04357 0.00269938 0)
(1.05717 0.00525866 0)
(1.06436 0.00447582 0)
(1.06902 0.00920821 0)
(1.07256 0.0077707 0)
(0.973941 -0.00684356 0)
(1.03115 0.00923475 0)
(1.0294 0.00133626 0)
(0.975446 -0.022528 0)
(0.921004 -0.0349344 0)
(1.01208 0.00354666 0)
(1.10063 0.00421078 0)
(1.15011 0.00657072 0)
(1.12809 -0.00447319 0)
(1.07965 -0.0086182 0)
(1.02466 -0.0243002 0)
(0.993639 -0.0177592 0)
(0.992219 -0.0126393 0)
(1.00372 -0.00549189 0)
(1.02083 -0.00148129 0)
(1.03692 0.00172234 0)
(1.05213 0.00453927 0)
(1.06026 0.00406339 0)
(1.06563 0.00871524 0)
(1.06928 0.00814593 0)
(0.983908 -0.0068943 0)
(1.01912 0.00876656 0)
(1.02927 0.00181776 0)
(0.98928 -0.021311 0)
(0.928529 -0.0352884 0)
(1.00803 0.000993335 0)
(1.08601 0.00233275 0)
(1.12899 0.00607599 0)
(1.10854 -0.00319023 0)
(1.06897 -0.00692984 0)
(1.02144 -0.0223048 0)
(0.991294 -0.0172077 0)
(0.987748 -0.0127289 0)
(0.996427 -0.00639418 0)
(1.01249 -0.00240466 0)
(1.02825 0.000675438 0)
(1.04387 0.00369786 0)
(1.05246 0.00359935 0)
(1.05827 0.00816608 0)
(1.06207 0.00846232 0)
(0.988659 -0.00691077 0)
(1.01155 0.00833818 0)
(1.02754 0.00206879 0)
(0.999962 -0.0201544 0)
(0.939474 -0.0353779 0)
(1.00213 -0.00123802 0)
(1.06615 0.000725268 0)
(1.10147 0.00563022 0)
(1.08472 -0.00207888 0)
(1.05562 -0.00554079 0)
(1.01779 -0.0204598 0)
(0.990517 -0.0166212 0)
(0.985567 -0.0126866 0)
(0.990882 -0.00717223 0)
(1.00402 -0.00328209 0)
(1.01785 -0.000343616 0)
(1.03248 0.00279971 0)
(1.04089 0.00310732 0)
(1.04689 0.0075818 0)
(1.05099 0.00868982 0)
(0.991043 -0.00689014 0)
(1.00648 0.00793018 0)
(1.02465 0.00213298 0)
(1.00686 -0.0191338 0)
(0.951545 -0.0352153 0)
(0.994275 -0.00302433 0)
(1.04435 -0.000556501 0)
(1.07204 0.00521551 0)
(1.06031 -0.00120426 0)
(1.04156 -0.00452687 0)
(1.014 -0.0188519 0)
(0.990607 -0.0160482 0)
(0.984957 -0.0125271 0)
(0.987137 -0.00774701 0)
(0.996364 -0.00399869 0)
(1.00714 -0.00123834 0)
(1.01957 0.00193289 0)
(1.02709 0.00262554 0)
(1.0329 0.00697777 0)
(1.03734 0.0087886 0)
(0.992594 -0.00683644 0)
(1.00293 0.00754165 0)
(1.02125 0.00208813 0)
(1.01044 -0.018293 0)
(0.96269 -0.0348262 0)
(0.986281 -0.00437374 0)
(1.02437 -0.00154337 0)
(1.04534 0.0047946 0)
(1.03872 -0.000593689 0)
(1.0287 -0.00390182 0)
(1.01038 -0.0175178 0)
(0.990986 -0.015529 0)
(0.985226 -0.0122812 0)
(0.985081 -0.00810429 0)
(0.99051 -0.00450497 0)
(0.997927 -0.00193203 0)
(1.00753 0.00118122 0)
(1.01355 0.00219103 0)
(1.01869 0.00636891 0)
(1.02325 0.00874123 0)
(0.993884 -0.00675795 0)
(1.00041 0.0071791 0)
(1.01799 0.00198986 0)
(1.01177 -0.0176199 0)
(0.971623 -0.0342727 0)
(0.980016 -0.00533683 0)
(1.0089 -0.00227047 0)
(1.02444 0.0043517 0)
(1.02204 -0.000219969 0)
(1.01829 -0.00361074 0)
(1.00715 -0.0164452 0)
(0.991287 -0.0150774 0)
(0.985823 -0.011991 0)
(0.984354 -0.00828284 0)
(0.986925 -0.00481334 0)
(0.991461 -0.00240192 0)
(0.998266 0.000594043 0)
(1.00245 0.00183381 0)
(1.00653 0.00578596 0)
(1.01078 0.0085783 0)
(0.995034 -0.00666202 0)
(0.998601 0.00684546 0)
(1.01524 0.00186062 0)
(1.01188 -0.017082 0)
(0.978025 -0.0336042 0)
(0.976253 -0.00598293 0)
(0.998667 -0.00277834 0)
(1.01012 0.00389253 0)
(1.01059 -2.2989e-05 0)
(1.01073 -0.0035592 0)
(1.00447 -0.0155871 0)
(0.991369 -0.0146865 0)
(0.986399 -0.0116984 0)
(0.984426 -0.00834721 0)
(0.985323 -0.0049722 0)
(0.987869 -0.0026793 0)
(0.992416 0.000177063 0)
(0.994806 0.00158182 0)
(0.997613 0.00527905 0)
(1.00117 0.00836302 0)
(0.996033 -0.00655168 0)
(0.997317 0.00653446 0)
(1.01305 0.0017119 0)
(1.01151 -0.0166416 0)
(0.982283 -0.0328567 0)
(0.974647 -0.0064211 0)
(0.992747 -0.00312886 0)
(1.0013 0.00342202 0)
(1.00342 5.83782e-05 0)
(1.00569 -0.0036547 0)
(1.00239 -0.0148845 0)
(0.991265 -0.0143436 0)
(0.986806 -0.0114213 0)
(0.984807 -0.00835721 0)
(0.984959 -0.00504362 0)
(0.986391 -0.00281214 0)
(0.989399 -9.0848e-05 0)
(0.990318 0.00145322 0)
(0.991937 0.00488519 0)
(0.994602 0.00814334 0)
(0.996851 -0.00642988 0)
(0.996443 0.00623862 0)
(1.01129 0.00155087 0)
(1.01097 -0.0162676 0)
(0.985027 -0.032059 0)
(0.974383 -0.00674315 0)
(0.989616 -0.00336799 0)
(0.996207 0.00294836 0)
(0.999126 7.01881e-05 0)
(1.00251 -0.00382694 0)
(1.00089 -0.0142869 0)
(0.991086 -0.0140301 0)
(0.987037 -0.0111703 0)
(0.985198 -0.00833745 0)
(0.985107 -0.0050735 0)
(0.986028 -0.0028646 0)
(0.988128 -0.000255118 0)
(0.988019 0.00143521 0)
(0.988714 0.00460245 0)
(0.990516 0.00793295 0)
(0.997456 -0.00629859 0)
(0.995919 0.00595288 0)
(1.00987 0.00138881 0)
(1.01041 -0.0159401 0)
(0.986796 -0.0312252 0)
(0.97475 -0.00700282 0)
(0.987984 -0.00353046 0)
(0.99329 0.00247288 0)
(0.996533 3.35919e-05 0)
(1.00055 -0.00403372 0)
(0.999875 -0.013763 0)
(0.990948 -0.0137257 0)
(0.987154 -0.0109447 0)
(0.985493 -0.0083028 0)
(0.985326 -0.00508213 0)
(0.986034 -0.00287529 0)
(0.987648 -0.000348977 0)
(0.986913 0.00149673 0)
(0.986998 0.00441346 0)
(0.988129 0.00773452 0)
(0.997829 -0.0061592 0)
(0.995694 0.00567295 0)
(1.00876 0.00122933 0)
(1.00986 -0.0156461 0)
(0.98794 -0.0303678 0)
(0.975342 -0.00721523 0)
(0.987098 -0.00363889 0)
(0.99161 0.00199547 0)
(0.99493 -3.83303e-05 0)
(0.999353 -0.00425327 0)
(0.999234 -0.0132909 0)
(0.990924 -0.0134184 0)
(0.987226 -0.0107298 0)
(0.9857 -0.00826324 0)
(0.985462 -0.0050816 0)
(0.98606 -0.0028547 0)
(0.987412 -0.000403448 0)
(0.986341 0.00160075 0)
(0.986075 0.00430554 0)
(0.986776 0.00755559 0)
(0.997974 -0.00601242 0)
(0.99571 0.00539113 0)
(1.0079 0.00108052 0)
(1.00935 -0.0153766 0)
(0.98867 -0.0294944 0)
(0.976002 -0.00739866 0)
(0.986626 -0.00371269 0)
(0.990691 0.00151341 0)
(0.99395 -0.000141637 0)
(0.998626 -0.00447301 0)
(0.998852 -0.0128588 0)
(0.99103 -0.0130999 0)
(0.987308 -0.0105172 0)
(0.985866 -0.00821495 0)
(0.985523 -0.00507586 0)
(0.986033 -0.00281279 0)
(0.987225 -0.000438634 0)
(0.985997 0.00171544 0)
(0.985556 0.00426216 0)
(0.986037 0.00740055 0)
(0.997932 -0.00585795 0)
(0.99589 0.00510127 0)
(1.00726 0.000941216 0)
(1.00888 -0.01512 0)
(0.98913 -0.0286068 0)
(0.976696 -0.00756453 0)
(0.986442 -0.00376544 0)
(0.990294 0.00102469 0)
(0.993396 -0.000277415 0)
(0.998197 -0.00468104 0)
(0.99863 -0.0124636 0)
(0.991239 -0.0127662 0)
(0.987434 -0.0102979 0)
(0.986035 -0.0081567 0)
(0.985565 -0.00505772 0)
(0.985995 -0.00276088 0)
(0.987074 -0.000455386 0)
(0.985794 0.00182285 0)
(0.985278 0.00425668 0)
(0.985691 0.00725626 0)
(0.99777 -0.0056955 0)
(0.99615 0.00479978 0)
(1.00678 0.000809231 0)
(1.00845 -0.0148662 0)
(0.989432 -0.027709 0)
(0.97742 -0.00771844 0)
(0.98648 -0.00380941 0)
(0.990248 0.00053255 0)
(0.993124 -0.000437811 0)
(0.997934 -0.00487221 0)
(0.998498 -0.0120956 0)
(0.991506 -0.0124196 0)
(0.987613 -0.0100687 0)
(0.986232 -0.00808737 0)
(0.985639 -0.00502716 0)
(0.985994 -0.00269557 0)
(0.986996 -0.000466024 0)
(0.985718 0.00191092 0)
(0.985186 0.00426655 0)
(0.985625 0.00709745 0)
(0.997565 -0.00552403 0)
(0.996424 0.00448128 0)
(1.00638 0.000687436 0)
(1.00802 -0.0146097 0)
(0.989662 -0.0268054 0)
(0.978163 -0.00786372 0)
(0.986682 -0.00385195 0)
(0.990413 3.74778e-05 0)
(0.993017 -0.000620195 0)
(0.997739 -0.00504479 0)
(0.998408 -0.0117467 0)
(0.991788 -0.0120623 0)
(0.987844 -0.00983112 0)
(0.986465 -0.008003 0)
(0.985779 -0.00499069 0)
(0.98606 -0.00261046 0)
(0.987016 -0.000470977 0)
(0.985766 0.00197975 0)
(0.985244 0.00428835 0)
(0.985762 0.0069089 0)
(0.997383 -0.00534365 0)
(0.996666 0.00414636 0)
(1.00604 0.000575109 0)
(1.00758 -0.0143469 0)
(0.989876 -0.0258989 0)
(0.978904 -0.00800023 0)
(0.986993 -0.00389738 0)
(0.990678 -0.000458461 0)
(0.992989 -0.000824117 0)
(0.997543 -0.00519611 0)
(0.998331 -0.0114181 0)
(0.992054 -0.0117011 0)
(0.988116 -0.00957718 0)
(0.986733 -0.00789755 0)
(0.986 -0.00494723 0)
(0.986202 -0.0025205 0)
(0.987139 -0.000472692 0)
(0.985925 0.00202791 0)
(0.985419 0.00433353 0)
(0.986034 0.00670236 0)
(0.997269 -0.00515436 0)
(0.996859 0.00379656 0)
(1.0057 0.000470208 0)
(1.00712 -0.0140743 0)
(0.990105 -0.0249943 0)
(0.979627 -0.00812892 0)
(0.987366 -0.00395242 0)
(0.990974 -0.000943869 0)
(0.992989 -0.00104283 0)
(0.997308 -0.00531951 0)
(0.998251 -0.0111112 0)
(0.992287 -0.0113414 0)
(0.988416 -0.00930863 0)
(0.987024 -0.00777962 0)
(0.986303 -0.00489821 0)
(0.986415 -0.00242413 0)
(0.987359 -0.000467952 0)
(0.986181 0.00203878 0)
(0.985682 0.00440357 0)
(0.986381 0.00652013 0)
(0.997237 -0.0049565 0)
(0.997012 0.00343404 0)
(1.00537 0.000368229 0)
(1.00664 -0.0137889 0)
(0.990362 -0.024094 0)
(0.980323 -0.00825122 0)
(0.987764 -0.00401639 0)
(0.991261 -0.00141819 0)
(0.992989 -0.0012741 0)
(0.997025 -0.00541429 0)
(0.998158 -0.0108176 0)
(0.99248 -0.0109888 0)
(0.988727 -0.00902914 0)
(0.987326 -0.00765046 0)
(0.986678 -0.00484896 0)
(0.986692 -0.00232001 0)
(0.987658 -0.000450796 0)
(0.986519 0.0019932 0)
(0.986015 0.00446062 0)
(0.986759 0.00640372 0)
(0.997276 -0.0047517 0)
(0.997143 0.00306226 0)
(1.00501 0.000269939 0)
(1.00616 -0.0134876 0)
(0.990654 -0.0232013 0)
(0.980997 -0.0083644 0)
(0.988162 -0.00409241 0)
(0.991519 -0.00188545 0)
(0.992974 -0.00151773 0)
(0.996696 -0.00548797 0)
(0.998044 -0.0105349 0)
(0.992638 -0.0106416 0)
(0.989034 -0.00873583 0)
(0.987627 -0.00749825 0)
(0.987103 -0.00480229 0)
(0.987016 -0.00221595 0)
(0.988012 -0.000421313 0)
(0.98692 0.00190616 0)
(0.98641 0.00445847 0)
(0.987144 0.00635327 0)
(0.997363 -0.0045411 0)
(0.997271 0.00268507 0)
(1.00465 0.000171291 0)
(1.00571 -0.0131692 0)
(0.990979 -0.0223177 0)
(0.981663 -0.00846512 0)
(0.988543 -0.00417757 0)
(0.991742 -0.00234363 0)
(0.992938 -0.00177672 0)
(0.996336 -0.00554251 0)
(0.997909 -0.0102668 0)
(0.992768 -0.0103066 0)
(0.989322 -0.00843884 0)
(0.987916 -0.00732333 0)
(0.987555 -0.00475831 0)
(0.987372 -0.00212214 0)
(0.988393 -0.000376483 0)
(0.98736 0.00181728 0)
(0.986858 0.00438795 0)
(0.987534 0.00631829 0)
(0.997469 -0.00432572 0)
(0.997409 0.00230638 0)
(1.00427 6.48629e-05 0)
(1.00527 -0.0128338 0)
(0.991332 -0.0214454 0)
(0.982338 -0.00855356 0)
(0.988902 -0.00426595 0)
(0.99193 -0.00278747 0)
(0.99288 -0.00204961 0)
(0.995958 -0.0055767 0)
(0.99775 -0.0100112 0)
(0.992884 -0.00999027 0)
(0.989585 -0.00814558 0)
(0.988185 -0.00713028 0)
(0.98801 -0.00471113 0)
(0.987745 -0.00204278 0)
(0.988783 -0.000317175 0)
(0.987817 0.0017466 0)
(0.987341 0.00427237 0)
(0.987931 0.00624693 0)
(0.997574 -0.00410742 0)
(0.997559 0.00192942 0)
(1.0039 -4.85665e-05 0)
(1.00485 -0.0124833 0)
(0.991703 -0.0205851 0)
(0.983032 -0.00862895 0)
(0.989246 -0.00436066 0)
(0.992097 -0.00320597 0)
(0.992809 -0.0023349 0)
(0.995578 -0.0055892 0)
(0.997572 -0.00976042 0)
(0.992995 -0.00968221 0)
(0.989822 -0.00785569 0)
(0.988434 -0.00691752 0)
(0.988455 -0.00465895 0)
(0.988127 -0.00197089 0)
(0.989167 -0.000257447 0)
(0.988273 0.00168295 0)
(0.98784 0.0041373 0)
(0.988338 0.00612775 0)
(0.997671 -0.00388753 0)
(0.997715 0.00155791 0)
(1.00354 -0.000173059 0)
(1.00445 -0.0121135 0)
(0.99208 -0.0197375 0)
(0.98375 -0.00869338 0)
(0.989584 -0.00446171 0)
(0.992256 -0.00359636 0)
(0.992738 -0.00263304 0)
(0.99521 -0.00558388 0)
(0.997382 -0.00951097 0)
(0.993109 -0.00939065 0)
(0.990038 -0.00756616 0)
(0.988664 -0.00668522 0)
(0.988882 -0.00460313 0)
(0.988512 -0.00190558 0)
(0.989534 -0.000194822 0)
(0.98872 0.00160884 0)
(0.988343 0.00398578 0)
(0.988751 0.00597362 0)
(0.997756 -0.00366548 0)
(0.997874 0.00119248 0)
(1.0032 -0.000308455 0)
(1.00404 -0.0117267 0)
(0.99245 -0.0189029 0)
(0.98449 -0.00874895 0)
(0.989926 -0.00456632 0)
(0.99242 -0.00395989 0)
(0.99268 -0.00293701 0)
(0.994864 -0.00557438 0)
(0.997188 -0.00926186 0)
(0.993233 -0.00912074 0)
(0.990238 -0.00728048 0)
(0.988875 -0.00643912 0)
(0.989289 -0.00453476 0)
(0.9889 -0.00184782 0)
(0.989882 -0.000113477 0)
(0.98915 0.00153746 0)
(0.988843 0.0038134 0)
(0.989169 0.00579706 0)
(0.997832 -0.00344377 0)
(0.998033 0.000837858 0)
(1.00287 -0.000452352 0)
(1.00363 -0.0113292 0)
(0.992807 -0.0180825 0)
(0.985244 -0.00879184 0)
(0.990276 -0.00467554 0)
(0.992594 -0.00429969 0)
(0.992645 -0.00324784 0)
(0.994544 -0.0055668 0)
(0.996995 -0.00900796 0)
(0.993369 -0.00886497 0)
(0.990432 -0.00700351 0)
(0.989072 -0.00617943 0)
(0.989676 -0.00445534 0)
(0.989295 -0.00180998 0)
(0.990211 -2.77017e-05 0)
(0.989555 0.00148523 0)
(0.989336 0.00362205 0)
(0.989593 0.00559306 0)
(0.997904 -0.00322233 0)
(0.998192 0.000495523 0)
(1.00257 -0.000609988 0)
(1.00323 -0.0109206 0)
(0.993146 -0.0172739 0)
(0.986003 -0.00882415 0)
(0.990636 -0.00479448 0)
(0.992778 -0.00461146 0)
(0.992635 -0.00356044 0)
(0.994253 -0.00555862 0)
(0.99681 -0.00875895 0)
(0.993516 -0.00861913 0)
(0.990627 -0.00673543 0)
(0.989257 -0.00590877 0)
(0.990042 -0.00436643 0)
(0.989698 -0.00179297 0)
(0.99053 4.84199e-05 0)
(0.989933 0.00145178 0)
(0.989813 0.00342156 0)
(0.990027 0.0053493 0)
(0.997974 -0.00300143 0)
(0.998351 0.000166919 0)
(1.00228 -0.000774006 0)
(1.00282 -0.0105112 0)
(0.993468 -0.0164826 0)
(0.986758 -0.00884679 0)
(0.991002 -0.00491795 0)
(0.992969 -0.00488757 0)
(0.992651 -0.00386229 0)
(0.993987 -0.0055465 0)
(0.996631 -0.00851533 0)
(0.993674 -0.00838546 0)
(0.990829 -0.00647927 0)
(0.989433 -0.00562649 0)
(0.99039 -0.00425662 0)
(0.990109 -0.00178927 0)
(0.990844 0.000111868 0)
(0.990282 0.0014344 0)
(0.990266 0.00322809 0)
(0.99047 0.00506618 0)
(0.998042 -0.00278407 0)
(0.99851 -0.00014809 0)
(1.00201 -0.000936141 0)
(1.00243 -0.0101095 0)
(0.993774 -0.0157012 0)
(0.987503 -0.00885963 0)
(0.991373 -0.00505608 0)
(0.993163 -0.00513439 0)
(0.992689 -0.0041506 0)
(0.993746 -0.00552818 0)
(0.996457 -0.00827032 0)
(0.993841 -0.00816729 0)
(0.991041 -0.0062375 0)
(0.989603 -0.00533482 0)
(0.990716 -0.00413211 0)
(0.990525 -0.00179458 0)
(0.99116 0.000161751 0)
(0.990606 0.00142862 0)
(0.990687 0.00305164 0)
(0.990915 0.0047592 0)
(0.998109 -0.00257019 0)
(0.998669 -0.000443275 0)
(1.00176 -0.0010972 0)
(1.00205 -0.00971779 0)
(0.994065 -0.0149307 0)
(0.988231 -0.00885947 0)
(0.991745 -0.00521191 0)
(0.993359 -0.00536056 0)
(0.992746 -0.00442042 0)
(0.993527 -0.00550919 0)
(0.996284 -0.00802841 0)
(0.994011 -0.00796384 0)
(0.991267 -0.00601285 0)
(0.989766 -0.00503497 0)
(0.991022 -0.00398914 0)
(0.990947 -0.00181048 0)
(0.991481 0.000194137 0)
(0.990905 0.0014319 0)
(0.991071 0.00289665 0)
(0.991347 0.00445207 0)
(0.998178 -0.0023622 0)
(0.998825 -0.000718062 0)
(1.00152 -0.00124783 0)
(1.00168 -0.00933721 0)
(0.994343 -0.0141917 0)
(0.988941 -0.00882951 0)
(0.992116 -0.00536941 0)
(0.993553 -0.00556632 0)
(0.99282 -0.00467464 0)
(0.993332 -0.00549055 0)
(0.996114 -0.00778446 0)
(0.994183 -0.00777944 0)
(0.991511 -0.00581208 0)
(0.989927 -0.00472833 0)
(0.991301 -0.00382136 0)
(0.991369 -0.00183583 0)
(0.991816 0.000203267 0)
(0.991186 0.00144413 0)
(0.991416 0.00276413 0)
(0.991752 0.00416856 0)
(0.998246 -0.00215796 0)
(0.998979 -0.000980881 0)
(1.0013 -0.00139033 0)
(1.00134 -0.00896851 0)
(0.994611 -0.0134795 0)
(0.98963 -0.00876338 0)
(0.992483 -0.00552693 0)
(0.993745 -0.00575355 0)
(0.992909 -0.00491624 0)
(0.993162 -0.00546443 0)
(0.995945 -0.00752879 0)
(0.994353 -0.00760896 0)
(0.991774 -0.00564673 0)
(0.99009 -0.00443073 0)
(0.991551 -0.00362908 0)
(0.991785 -0.00186592 0)
(0.992167 0.000178827 0)
(0.991455 0.00146272 0)
(0.991723 0.00265059 0)
(0.992118 0.00391362 0)
(0.998315 -0.00196113 0)
(0.99913 -0.0012233 0)
(1.0011 -0.00153027 0)
(1.00101 -0.0086098 0)
(0.99487 -0.0128012 0)
(0.990297 -0.00866808 0)
(0.992843 -0.00567762 0)
(0.993936 -0.00592909 0)
(0.993015 -0.00513348 0)
(0.993019 -0.00543444 0)
(0.995776 -0.00726406 0)
(0.994517 -0.0074382 0)
(0.992058 -0.0055209 0)
(0.990261 -0.00415458 0)
(0.991769 -0.00340608 0)
(0.992185 -0.00189303 0)
(0.99254 0.000110948 0)
(0.991722 0.00148154 0)
(0.991994 0.00256401 0)
(0.99244 0.00368205 0)
(0.998384 -0.00177663 0)
(0.999277 -0.00143931 0)
(1.00092 -0.00167894 0)
(1.0007 -0.00823901 0)
(0.99512 -0.0121648 0)
(0.990943 -0.00855554 0)
(0.993196 -0.00581232 0)
(0.994127 -0.00609693 0)
(0.993136 -0.00533058 0)
(0.992903 -0.00540699 0)
(0.995609 -0.00699096 0)
(0.994672 -0.00725984 0)
(0.992364 -0.00542459 0)
(0.990452 -0.00390451 0)
(0.991958 -0.0031655 0)
(0.992557 -0.00190433 0)
(0.992936 -2.93174e-06 0)
(0.992 0.00147779 0)
(0.992231 0.00251304 0)
(0.992712 0.00348032 0)
(0.998452 -0.00160158 0)
(0.999419 -0.00162989 0)
(1.00076 -0.00184092 0)
(1.00042 -0.00785122 0)
(0.99536 -0.0115709 0)
(0.991567 -0.00843924 0)
(0.993541 -0.00591558 0)
(0.994319 -0.00623618 0)
(0.993277 -0.00552616 0)
(0.992819 -0.0053887 0)
(0.995445 -0.0067181 0)
(0.994815 -0.00707156 0)
(0.992692 -0.0053493 0)
(0.990668 -0.00368725 0)
(0.992122 -0.00291818 0)
(0.992889 -0.00188318 0)
(0.993347 -0.000149523 0)
(0.992308 0.00142925 0)
(0.992448 0.00249148 0)
(0.992932 0.00332154 0)
(0.99852 -0.00144005 0)
(0.999555 -0.00179132 0)
(1.00062 -0.00201446 0)
(1.00015 -0.00744942 0)
(0.995586 -0.0110084 0)
(0.992173 -0.00833295 0)
(0.99388 -0.00599143 0)
(0.994508 -0.00634707 0)
(0.993436 -0.00570761 0)
(0.992773 -0.00537612 0)
(0.995287 -0.00643946 0)
(0.994942 -0.00686715 0)
(0.993038 -0.00528968 0)
(0.990917 -0.00351203 0)
(0.99227 -0.00267995 0)
(0.993176 -0.00182943 0)
(0.993759 -0.000312579 0)
(0.992657 0.00131661 0)
(0.99266 0.00247393 0)
(0.993106 0.00319957 0)
(0.998588 -0.00129402 0)
(0.999684 -0.00191846 0)
(1.00051 -0.00220693 0)
(0.999912 -0.00703803 0)
(0.995794 -0.0104573 0)
(0.992758 -0.00824093 0)
(0.994215 -0.00605145 0)
(0.994696 -0.00642978 0)
(0.993615 -0.0058589 0)
(0.992769 -0.00536514 0)
(0.99514 -0.00616091 0)
(0.995046 -0.00663714 0)
(0.993396 -0.00523126 0)
(0.991203 -0.00337844 0)
(0.992413 -0.00246357 0)
(0.993415 -0.00175156 0)
(0.994158 -0.000466715 0)
(0.993053 0.00113468 0)
(0.992892 0.00242774 0)
(0.993245 0.00310233 0)
(0.998655 -0.00116381 0)
(0.999802 -0.00201028 0)
(1.00042 -0.00241066 0)
(0.999698 -0.00663375 0)
(0.995983 -0.00990785 0)
(0.993323 -0.00816238 0)
(0.99455 -0.0061022 0)
(0.994882 -0.00646519 0)
(0.99381 -0.00597892 0)
(0.992809 -0.00535877 0)
(0.995012 -0.00589847 0)
(0.995129 -0.00638342 0)
(0.993758 -0.00516789 0)
(0.991527 -0.00328698 0)
(0.992562 -0.00227976 0)
(0.993612 -0.00165731 0)
(0.994526 -0.000582631 0)
(0.993488 0.000905146 0)
(0.993165 0.00232341 0)
(0.993361 0.00302367 0)
(0.998721 -0.0010527 0)
(0.999908 -0.00206323 0)
(1.00035 -0.00261574 0)
(0.999515 -0.00625527 0)
(0.996147 -0.00934387 0)
(0.993863 -0.00808426 0)
(0.99489 -0.00614726 0)
(0.995069 -0.00645082 0)
(0.994018 -0.00606811 0)
(0.992893 -0.00536037 0)
(0.994911 -0.00565226 0)
(0.995194 -0.00611135 0)
(0.994114 -0.00509094 0)
(0.991885 -0.00323323 0)
(0.992728 -0.00213408 0)
(0.99378 -0.00156562 0)
(0.994853 -0.000667849 0)
(0.993942 0.000651018 0)
(0.993497 0.00213808 0)
(0.993475 0.00294469 0)
(0.998786 -0.000959122 0)
(1 -0.00208362 0)
(1.00031 -0.00281078 0)
(0.999368 -0.00592092 0)
(0.996291 -0.00875344 0)
(0.994373 -0.0079878 0)
(0.995236 -0.00619689 0)
(0.995258 -0.00639991 0)
(0.994231 -0.00610471 0)
(0.99302 -0.00536569 0)
(0.994847 -0.00544089 0)
(0.995248 -0.00583439 0)
(0.994458 -0.00499624 0)
(0.992274 -0.00320854 0)
(0.992914 -0.00201905 0)
(0.993924 -0.00147771 0)
(0.995135 -0.000722292 0)
(0.994396 0.000409259 0)
(0.993895 0.00187883 0)
(0.993619 0.0028331 0)
(0.99885 -0.000883632 0)
(1.00008 -0.00207265 0)
(1.00028 -0.00298814 0)
(0.999261 -0.00564567 0)
(0.996414 -0.00814488 0)
(0.994843 -0.00785109 0)
(0.995589 -0.00626595 0)
(0.995457 -0.00632801 0)
(0.994448 -0.0060701 0)
(0.993178 -0.00535712 0)
(0.994821 -0.00526392 0)
(0.9953 -0.00556519 0)
(0.994787 -0.00488508 0)
(0.992689 -0.00321027 0)
(0.99313 -0.00194328 0)
(0.994057 -0.00140075 0)
(0.995375 -0.000751487 0)
(0.994824 0.000203028 0)
(0.994346 0.00156737 0)
(0.993823 0.00265254 0)
(0.998912 -0.000825996 0)
(1.00014 -0.00203508 0)
(1.00026 -0.00314098 0)
(0.999195 -0.00543349 0)
(0.996524 -0.00753292 0)
(0.995267 -0.00766602 0)
(0.995945 -0.00634351 0)
(0.995674 -0.00625096 0)
(0.994668 -0.00597981 0)
(0.993359 -0.00532484 0)
(0.994832 -0.00511251 0)
(0.995356 -0.00531598 0)
(0.995097 -0.00475591 0)
(0.993122 -0.00322437 0)
(0.993379 -0.00190191 0)
(0.994189 -0.00133158 0)
(0.995578 -0.000764632 0)
(0.99521 4.29774e-05 0)
(0.994824 0.00124191 0)
(0.994109 0.00238825 0)
(0.998971 -0.000783457 0)
(1.00019 -0.00197676 0)
(1.00024 -0.00326385 0)
(0.999174 -0.00527851 0)
(0.996627 -0.00694815 0)
(0.995637 -0.00742264 0)
(0.996297 -0.00640709 0)
(0.995917 -0.00620158 0)
(0.994895 -0.00584322 0)
(0.993553 -0.00524201 0)
(0.994873 -0.00496904 0)
(0.995419 -0.00509461 0)
(0.99539 -0.00462192 0)
(0.993567 -0.00324784 0)
(0.993665 -0.00189292 0)
(0.994328 -0.00127492 0)
(0.995753 -0.000770111 0)
(0.995545 -7.73823e-05 0)
(0.995291 0.000947115 0)
(0.994472 0.00206184 0)
(0.999029 -0.000755129 0)
(1.00022 -0.00190801 0)
(1.00022 -0.00334309 0)
(0.999192 -0.00516626 0)
(0.996732 -0.00641832 0)
(0.995953 -0.00710358 0)
(0.996632 -0.00643147 0)
(0.996187 -0.00620363 0)
(0.99514 -0.00569747 0)
(0.993757 -0.0051013 0)
(0.994932 -0.00480562 0)
(0.995487 -0.00488355 0)
(0.995662 -0.00447999 0)
(0.994016 -0.00326242 0)
(0.993989 -0.0019059 0)
(0.994482 -0.0012308 0)
(0.995909 -0.00077095 0)
(0.995838 -0.000173714 0)
(0.995725 0.000702544 0)
(0.994887 0.00171379 0)
(0.999083 -0.000733603 0)
(1.00024 -0.00183838 0)
(1.00019 -0.00339387 0)
(0.999244 -0.00508966 0)
(0.996848 -0.00594329 0)
(0.99622 -0.00671466 0)
(0.996932 -0.006382 0)
(0.996479 -0.00623593 0)
(0.995418 -0.00558056 0)
(0.993976 -0.00493223 0)
(0.995003 -0.00462956 0)
(0.995556 -0.00468751 0)
(0.995913 -0.00434314 0)
(0.994463 -0.00327739 0)
(0.994347 -0.00194558 0)
(0.994658 -0.00120782 0)
(0.996049 -0.000770237 0)
(0.996092 -0.000254926 0)
(0.996111 0.000501693 0)
(0.995317 0.0013816 0)
(0.999134 -0.000719762 0)
(1.00024 -0.00175886 0)
(1.00015 -0.00338126 0)
(0.999328 -0.00506165 0)
(0.996987 -0.00556755 0)
(0.996444 -0.00631519 0)
(0.997182 -0.00624884 0)
(0.996776 -0.00625096 0)
(0.995731 -0.00549997 0)
(0.994213 -0.00473612 0)
(0.995079 -0.00441105 0)
(0.995621 -0.00447524 0)
(0.99614 -0.0041902 0)
(0.994899 -0.00327992 0)
(0.994737 -0.0020061 0)
(0.994863 -0.00120546 0)
(0.996184 -0.000766905 0)
(0.996317 -0.000321063 0)
(0.996452 0.000338526 0)
(0.995735 0.00109 0)
(0.999181 -0.000711 0)
(1.00024 -0.00171968 0)
(1.00008 -0.00328728 0)
(0.999422 -0.00500353 0)
(0.99715 -0.00523363 0)
(0.996645 -0.00591162 0)
(0.997387 -0.0060399 0)
(0.997064 -0.00624471 0)
(0.996083 -0.00550253 0)
(0.994488 -0.00459387 0)
(0.995161 -0.00418337 0)
(0.995676 -0.00426182 0)
(0.996336 -0.00403127 0)
(0.995309 -0.0032661 0)
(0.995148 -0.00208567 0)
(0.995102 -0.00123106 0)
(0.996316 -0.00076809 0)
(0.996514 -0.000378057 0)
(0.996748 0.000203119 0)
(0.996116 0.000845054 0)
(0.999219 -0.000685626 0)
(1.00025 -0.00169129 0)
(1.00002 -0.00319944 0)
(0.999528 -0.00498126 0)
(0.997336 -0.00496074 0)
(0.99682 -0.00549388 0)
(0.997533 -0.00572702 0)
(0.99731 -0.00612734 0)
(0.996453 -0.00550745 0)
(0.99481 -0.00451788 0)
(0.995263 -0.00395991 0)
(0.995719 -0.00402874 0)
(0.996504 -0.00386368 0)
(0.995685 -0.00323113 0)
(0.99557 -0.00216791 0)
(0.99538 -0.00129254 0)
(0.996457 -0.000781564 0)
(0.996691 -0.000427764 0)
(0.997009 8.26405e-05 0)
(0.996452 0.000644012 0)
(0.999258 -0.000662441 0)
(1.00024 -0.00170808 0)
(0.999927 -0.00307067 0)
(0.999638 -0.00493166 0)
(0.997568 -0.00475565 0)
(0.99701 -0.00511229 0)
(0.997648 -0.00540654 0)
(0.99751 -0.00593703 0)
(0.996812 -0.00549468 0)
(0.995177 -0.00451625 0)
(0.995402 -0.00377643 0)
(0.995752 -0.00377796 0)
(0.996633 -0.00367408 0)
(0.996019 -0.00317068 0)
(0.99598 -0.00223453 0)
(0.99569 -0.0013757 0)
(0.996618 -0.000813163 0)
(0.996849 -0.000466857 0)
(0.99724 -3.0812e-05 0)
(0.996745 0.000473149 0)
(0.999282 -0.000628848 0)
(1.00025 -0.00171501 0)
(0.999849 -0.00289596 0)
(0.999738 -0.00481757 0)
(0.997813 -0.0046231 0)
(0.99719 -0.00478276 0)
(0.997724 -0.00507083 0)
(0.997662 -0.00568529 0)
(0.997143 -0.00542086 0)
(0.995583 -0.0045463 0)
(0.995604 -0.00366014 0)
(0.9958 -0.00353808 0)
(0.996734 -0.00346105 0)
(0.996311 -0.00308683 0)
(0.996374 -0.00228619 0)
(0.996027 -0.00147022 0)
(0.996812 -0.000878517 0)
(0.996999 -0.0005086 0)
(0.997443 -0.00013243 0)
(0.997005 0.000318283 0)
(0.999311 -0.000582138 0)
(1.00025 -0.00170848 0)
(0.999755 -0.0026787 0)
(0.999815 -0.00461316 0)
(0.998084 -0.00452728 0)
(0.997407 -0.00456188 0)
(0.997792 -0.00475628 0)
(0.997767 -0.00541943 0)
(0.99742 -0.00528872 0)
(0.995988 -0.00457903 0)
(0.995854 -0.0036206 0)
(0.995867 -0.00333911 0)
(0.996795 -0.0032435 0)
(0.996538 -0.00297265 0)
(0.996725 -0.00231575 0)
(0.996361 -0.00156315 0)
(0.997027 -0.000967137 0)
(0.997148 -0.000566446 0)
(0.997614 -0.000215746 0)
(0.997224 0.000178689 0)
(0.999329 -0.000539918 0)
(1.00027 -0.00170711 0)
(0.999688 -0.00246534 0)
(0.999861 -0.00436949 0)
(0.998323 -0.00444413 0)
(0.997623 -0.00443836 0)
(0.997849 -0.0044803 0)
(0.997837 -0.00513306 0)
(0.997648 -0.00508408 0)
(0.996377 -0.0045603 0)
(0.996155 -0.00361635 0)
(0.995981 -0.00319248 0)
(0.996848 -0.0030357 0)
(0.996713 -0.0028247 0)
(0.997028 -0.00230786 0)
(0.996688 -0.00164494 0)
(0.997259 -0.0010594 0)
(0.997311 -0.000646789 0)
(0.997768 -0.000298609 0)
(0.997408 5.48251e-05 0)
(0.999348 -0.000483291 0)
(1.00029 -0.00168078 0)
(0.999615 -0.00231361 0)