/*--------------------------------*- C++ -*----------------------------------*\
| =========                 |                                                 |
| \\      /  F ield         | OpenFOAM: The Open Source CFD Toolbox           |
|  \\    /   O peration     | Version:  v1906                                 |
|   \\  /    A nd           | Web:      www.OpenFOAM.com                      |
|    \\/     M anipulation  |                                                 |
\*---------------------------------------------------------------------------*/
FoamFile
{
    version     2.0;
    format      ascii;
    class       volScalarField;
    location    "3.5";
    object      p;
}
// * * * * * * * * * * * * * * * * * * * * * * * * * * * * * * * * * * * * * //

dimensions      [0 2 -2 0 0 0 0];


internalField   nonuniform List<scalar> 
9600
(
1.83749e-12
0.00119021
0.00152918
4.71762e-06
-0.00116723
-0.00113668
-0.000354521
0.00110082
0.0023143
0.00345148
0.00283125
0.00123416
0.00185922
0.00284534
0.00209993
0.00287476
0.00271608
0.0045874
0.00559895
0.00992774
8.97201e-07
0.00119485
0.00151959
-6.53825e-06
-0.00115891
-0.00112078
-0.000368933
0.00109423
0.00230729
0.00339675
0.00283755
0.00122407
0.00186899
0.00283793
0.00211457
0.00287388
0.00273523
0.00456501
0.00567371
0.00961084
3.43736e-06
0.00119921
0.00150371
-1.4342e-05
-0.00114967
-0.00110858
-0.000380692
0.00108157
0.00228922
0.00334913
0.00283649
0.00121779
0.00187956
0.00283132
0.0021376
0.00286587
0.00276541
0.00452088
0.0057262
0.00923236
8.03608e-06
0.00120172
0.00148631
-1.65027e-05
-0.0011398
-0.00109945
-0.000383497
0.00106542
0.00226977
0.00330653
0.00283119
0.00121708
0.00189072
0.00282628
0.00216482
0.00285349
0.0028001
0.00446488
0.00574719
0.00887213
1.54377e-05
0.00120269
0.00146754
-1.27159e-05
-0.00112818
-0.00109229
-0.00037583
0.00104749
0.00225157
0.00326718
0.00282664
0.0012212
0.00190315
0.00282153
0.0021954
0.00283814
0.00283429
0.00440717
0.00574029
0.00852734
2.59127e-05
0.0012018
0.001448
-2.72131e-06
-0.00111374
-0.00108459
-0.000357515
0.0010284
0.00223499
0.00323086
0.00282515
0.00122943
0.00191699
0.00281667
0.00222831
0.00282046
0.00286739
0.00435247
0.00570836
0.00819977
3.90231e-05
0.00119915
0.00142911
1.30136e-05
-0.00109567
-0.00107398
-0.000329742
0.00100969
0.00222089
0.00319731
0.0028274
0.00124073
0.00193223
0.00281166
0.0022624
0.00280257
0.0028985
0.00430169
0.00565768
0.00789178
5.40518e-05
0.00119534
0.00141162
3.3833e-05
-0.00107351
-0.00105913
-0.000293729
0.000993269
0.0022094
0.00316582
0.00283306
0.001254
0.00194888
0.00280652
0.00229686
0.00278662
0.00292451
0.00425557
0.00559134
0.00760056
7.0364e-05
0.00119093
0.00139549
5.9753e-05
-0.00104726
-0.00103966
-0.000250192
0.000980158
0.00219964
0.00313534
0.00284111
0.0012682
0.0019668
0.00280159
0.00233075
0.0027737
0.00294307
0.00421582
0.00548357
0.00731893
8.75258e-05
0.0011863
0.0013803
9.5971e-05
-0.00101735
-0.00101595
-0.000201052
0.000970495
0.00219054
0.00310473
0.00285038
0.00128242
0.00198566
0.00279766
0.00236258
0.00276449
0.00295338
0.00418328
0.00538015
0.00704053
0.000105304
0.00118168
0.00136559
0.000127543
-0.000984359
-0.000988822
-0.00015148
0.000963959
0.00218131
0.00307305
0.00285982
0.00129599
0.00200492
0.00279559
0.00239082
0.00275996
0.00295472
0.0041551
0.00527192
0.00676272
0.000123616
0.0011772
0.001351
0.000160046
-0.000948893
-0.000959087
-0.000100036
0.000960025
0.00217147
0.00303973
0.00286859
0.00130866
0.00202389
0.00279624
0.00241422
0.00276073
0.00294646
0.00412762
0.00515852
0.00648332
0.000142446
0.00117292
0.00133645
0.000193176
-0.000911405
-0.000927452
-4.73096e-05
0.000958123
0.00216078
0.00300465
0.00287611
0.00132057
0.0020417
0.0028005
0.00243189
0.00276638
0.00292896
0.00409821
0.00504211
0.00619921
0.000161806
0.00116888
0.00132193
0.000226537
-0.000872113
-0.000894403
6.11532e-06
0.000957748
0.00214917
0.002968
0.00288194
0.00133216
0.0020574
0.0028092
0.00244333
0.00277581
0.00290382
0.00406257
0.00492638
0.00591035
0.000181721
0.00116509
0.00130749
0.000259858
-0.000831084
-0.000860216
5.98068e-05
0.000958555
0.00213669
0.00293027
0.00288569
0.00134397
0.00207011
0.00282292
0.00244822
0.00278759
0.00287351
0.00401527
0.00481524
0.00561976
0.000202219
0.00116152
0.00129323
0.000292914
-0.000788319
-0.000825046
0.000113467
0.000960365
0.00212339
0.00289206
0.00288703
0.00135664
0.00207897
0.00284202
0.00244681
0.00279941
0.00284088
0.00395241
0.00471005
0.00533201
0.000223327
0.00115816
0.00127928
0.000325223
-0.000743789
-0.000788956
0.000166844
0.000963104
0.0021093
0.00285407
0.00288552
0.00137086
0.00208332
0.00286641
0.00244007
0.00280775
0.00280897
0.00387237
0.0046093
0.00505259
0.000245075
0.00115498
0.00126577
0.0003573
-0.000697475
-0.000751929
0.000219681
0.000966746
0.00209436
0.00281699
0.00288084
0.00138699
0.00208301
0.00289552
0.00242934
0.00280928
0.00278012
0.00377514
0.00451394
0.00478722
0.000267496
0.00115195
0.00125283
0.000388837
-0.000649378
-0.000713912
0.000271716
0.000971337
0.00207837
0.0027815
0.00287277
0.00140519
0.00207796
0.00292846
0.00241651
0.00280112
0.00275582
0.00366201
0.00446584
0.00454128
0.000290623
0.00114907
0.0012406
0.000419746
-0.000599523
-0.000674825
0.000322686
0.000977019
0.00206112
0.00274813
0.00286113
0.00142552
0.00206829
0.00296369
0.00240404
0.00278052
0.00273668
0.00353484
0.00436284
0.00431886
0.000314483
0.00114633
0.00122917
0.000450008
-0.000547993
-0.000634542
0.000372325
0.000983933
0.00204235
0.00271725
0.00284595
0.00144765
0.0020546
0.00299946
0.00239387
0.00274562
0.00272168
0.00339818
0.00424272
0.00412184
0.000339093
0.00114375
0.00121866
0.000479645
-0.000494887
-0.000592916
0.000420337
0.000992229
0.00202188
0.00268901
0.00282757
0.0014709
0.00203762
0.00303405
0.00238733
0.00269612
0.00270836
0.0032576
0.00410541
0.00394893
0.000364465
0.00114136
0.00120912
0.000508679
-0.000440341
-0.000549784
0.000466437
0.00100206
0.00199958
0.00266343
0.00280637
0.00149438
0.00201801
0.00306598
0.00238546
0.00263247
0.00269352
0.00311798
0.00395066
0.00379658
0.000390605
0.00113924
0.00120063
0.000537149
-0.00038454
-0.000505022
0.000510425
0.00101354
0.00197543
0.00264024
0.0027825
0.00151721
0.0019964
0.00309397
0.00238874
0.00255551
0.00267419
0.00298382
0.00377921
0.00365898
0.000417486
0.00113753
0.0011932
0.00056515
-0.00032766
-0.000458585
0.000552162
0.00102682
0.00194963
0.00261882
0.00275628
0.00153898
0.0019732
0.00311658
0.00239727
0.00246691
0.00264797
0.00285878
0.00359266
0.00352976
0.000445057
0.00113636
0.00118686
0.000592766
-0.000269854
-0.000410455
0.000591553
0.00104176
0.00192246
0.00259873
0.00273191
0.00155933
0.00194872
0.00313236
0.00241101
0.00236871
0.0026118
0.00274589
0.00339415
0.00340291
0.000473255
0.00113599
0.0011816
0.000620033
-0.00021123
-0.000360593
0.000628616
0.00105808
0.0018942
0.00257957
0.00270755
0.00157784
0.00192316
0.00314039
0.00242956
0.00226319
0.00256244
0.0026478
0.00318804
0.00327087
0.000501981
0.00113667
0.00117744
0.000646996
-0.000151921
-0.000309032
0.00066358
0.00107556
0.00186511
0.00256069
0.00268363
0.00159416
0.0018962
0.00314024
0.00245219
0.00215312
0.00249741
0.00256608
0.00297958
0.00312379
0.000531099
0.00113869
0.00117445
0.000673687
-9.20938e-05
-0.00025606
0.000696852
0.00109409
0.00183544
0.00254156
0.00266055
0.00160802
0.00186748
0.00313136
0.00247795
0.00204154
0.00241478
0.0025002
0.00277818
0.00295262
0.00056046
0.00114237
0.00117273
0.000700086
-3.16644e-05
-0.000202118
0.000728676
0.0011136
0.00180539
0.00252172
0.00263874
0.00161941
0.00183661
0.00311289
0.0025056
0.00193214
0.00231357
0.0024457
0.00259329
0.002755
0.000589897
0.001148
0.0011724
0.000726076
2.96773e-05
-0.000147698
0.000758978
0.00113431
0.00177523
0.0025005
0.0026184
0.00162849
0.00180307
0.00308426
0.00253368
0.00182873
0.00219451
0.00239496
0.00243362
0.0025395
0.00061923
0.00115587
0.00117375
0.000751318
9.22425e-05
-9.30401e-05
0.000787602
0.00115651
0.00174516
0.00247696
0.00259958
0.0016358
0.0017663
0.00304542
0.00256073
0.00173355
0.00206021
0.0023407
0.00230832
0.00232277
0.000648335
0.00116624
0.00117712
0.0007754
0.00015631
-3.81486e-05
0.000814205
0.00118064
0.0017156
0.00244979
0.00258194
0.00164237
0.0017257
0.00299604
0.00258606
0.00164773
0.0019134
0.00227751
0.00221281
0.00212123
0.000677129
0.00117918
0.00118312
0.000797837
0.000221783
1.71387e-05
0.000838206
0.00120705
0.00168728
0.00241787
0.00256473
0.00164941
0.00168111
0.00293495
0.00260894
0.00157321
0.0017572
0.00220219
0.00213991
0.00194553
0.000705574
0.00119452
0.00119268
0.000818365
0.000288217
7.33458e-05
0.000858523
0.00123561
0.00166146
0.00238045
0.0025467
0.00165764
0.00163333
0.00286127
0.00262774
0.00151273
0.00159482
0.0021128
0.00208286
0.00180015
0.000733726
0.00121187
0.00120667
0.000837132
0.000355055
0.000131263
0.000874068
0.00126594
0.00163986
0.00233682
0.00252589
0.0016674
0.00158383
0.00277476
0.00264015
0.00146866
0.00142917
0.00200705
0.0020377
0.00168713
0.000761712
0.00123055
0.00122599
0.000854763
0.000420981
0.000192148
0.000884931
0.00129631
0.00162326
0.00228709
0.00250025
0.00167897
0.00153404
0.00267547
0.00264395
0.00144277
0.00126516
0.00188226
0.00199978
0.00160677
0.000789882
0.00124952
0.00125132
0.000872574
0.000484079
0.000256935
0.000892277
0.0013243
0.00161164
0.00223174
0.00246799
0.00169193
0.00148524
0.00256422
0.0026369
0.00143515
0.00110951
0.00173671
0.00196233
0.00155862
0.000818673
0.0012679
0.00128262
0.000892742
0.000542923
0.000325446
0.000897532
0.00134759
0.00160519
0.00216215
0.00242772
0.00170505
0.0014393
0.002443
0.00261619
0.00144414
0.000968484
0.00157119
0.00191765
0.00154107
0.000848471
0.00128516
0.00131918
0.000917524
0.000596925
0.000396522
0.000902012
0.001364
0.00160376
0.00210098
0.00237921
0.00171683
0.00139794
0.00231438
0.00257947
0.00146678
0.000848375
0.00138942
0.0018555
0.00154817
0.000879816
0.0013006
0.00135983
0.000949216
0.000645899
0.000467965
0.000907527
0.00137285
0.00160533
0.0020441
0.00232434
0.00172611
0.00136151
0.00218074
0.00252503
0.00149806
0.00075398
0.00119854
0.00176668
0.00156881
0.000913553
0.00131373
0.00140247
0.000989873
0.000691313
0.00053706
0.000914697
0.00137404
0.00160632
0.00199344
0.00226749
0.00173288
0.00133068
0.00204449
0.00245204
0.00153276
0.000687371
0.00100749
0.00164736
0.00158856
0.000950333
0.00132446
0.00144485
0.0010403
0.000735383
0.000603402
0.00092374
0.00136502
0.00160185
0.00195006
0.00221387
0.00173831
0.0013065
0.00190917
0.00236107
0.00156545
0.000649471
0.000825609
0.00149883
0.00159237
0.000990404
0.0013336
0.00148485
0.00110096
0.000780039
0.000664889
0.000935027
0.00133219
0.0015898
0.0019147
0.0021642
0.00174281
0.00128924
0.00177854
0.00225365
0.00158952
0.000638997
0.000661839
0.00132662
0.00156847
0.00103417
0.00134181
0.00152034
0.00117282
0.000827187
0.000714839
0.000949059
0.00131382
0.00157397
0.00187997
0.00211692
0.00174597
0.0012785
0.00165505
0.00213192
0.00159902
0.000651256
0.000524548
0.00114027
0.0015108
0.00108172
0.00133708
0.00154992
0.0012485
0.000877804
0.000756106
0.000966373
0.00130162
0.00155498
0.0018411
0.0020676
0.00174605
0.00127372
0.001541
0.00199944
0.0015903
0.000679289
0.000419425
0.000951271
0.00141951
0.001133
0.00134942
0.00157197
0.00132418
0.000936246
0.00079298
0.000982812
0.00129451
0.00153528
0.00179902
0.00201377
0.00174154
0.00127481
0.0014395
0.00186167
0.00156255
0.000715482
0.000347733
0.000770186
0.00129903
0.00118779
0.00136534
0.00158589
0.00139802
0.0010042
0.000826455
0.000994578
0.00129283
0.00151965
0.00175391
0.00195507
0.00173247
0.00128149
0.00135243
0.00172386
0.00151625
0.000751461
0.00030714
0.000607667
0.00115724
0.00124565
0.00138588
0.00159331
0.0014662
0.00107991
0.000859435
0.0010011
0.00129388
0.00151088
0.00171114
0.00189304
0.00171719
0.00129144
0.00128001
0.00159027
0.00145349
0.000780148
0.000291771
0.000472922
0.00100495
0.00130615
0.00141247
0.00159533
0.00152436
0.00116117
0.000896516
0.00100303
0.00129349
0.00150804
0.00167517
0.00182934
0.00169326
0.00130197
0.00122211
0.00146472
0.00137894
0.000797879
0.000292824
0.000370299
0.00085457
0.00136846
0.00144611
0.0015925
0.00156878
0.00124423
0.00094175
0.00100224
0.00128876
0.00151052
0.00164842
0.00176666
0.00166004
0.00130982
0.00117761
0.00135014
0.00129728
0.000804386
0.000321352
0.000300259
0.000718372
0.00143165
0.00148723
0.00159129
0.00159755
0.00132475
0.000998048
0.00100276
0.00127746
0.00151358
0.00163085
0.00170967
0.00161988
0.00131204
0.00114424
0.00124888
0.00121234
0.000797666
0.000339864
0.000256599
0.000604868
0.00149473
0.00153531
0.00159253
0.00161096
0.00139926
0.00106547
0.00100919
0.00125934
0.00151138
0.00162097
0.00166283
0.00157662
0.0013073
0.00111883
0.00116206
0.00112763
0.000779276
0.000357186
0.000232324
0.000516511
0.00155653
0.00158758
0.00160059
0.00161439
0.00146358
0.00114156
0.00102532
0.00123608
0.0015003
0.0016162
0.00162785
0.00153419
0.00129633
0.00109819
0.00108873
0.00104689
0.000751514
0.000374064
0.00022202
0.000451035
0.00161648
0.00164243
0.00161762
0.00161214
0.00151411
0.00122163
0.0010538
0.00121219
0.00147936
0.00161111
0.00160417
0.00149702
0.00128123
0.00108073
0.00102737
0.000973924
0.00073225
0.000390071
0.000223136
0.000403967
0.00167449
0.0016974
0.00164381
0.00160932
0.00154997
0.00129939
0.00109481
0.00119409
0.00145024
0.00160022
0.00158946
0.00146869
0.00126442
0.0010653
0.000977076
0.000907654
0.000699579
0.000400973
0.00023351
0.000372743
0.00173084
0.00175123
0.0016782
0.00160992
0.00157198
0.00136907
0.00114686
0.00118676
0.00141652
0.00158114
0.0015788
0.00145016
0.00124978
0.00105142
0.000936625
0.000849013
0.000664183
0.000406266
0.000249902
0.000357569
0.00178597
0.00180313
0.0017183
0.00161648
0.00158283
0.00142703
0.00120653
0.00119264
0.00138383
0.00155472
0.00156731
0.00143945
0.00124085
0.00104081
0.000904625
0.000799569
0.000629298
0.000406349
0.000268135
0.00035741
0.00184016
0.00185246
0.00176147
0.0016306
0.00158713
0.00147147
0.00126805
0.00121167
0.00135794
0.00152314
0.00155246
0.00143337
0.0012378
0.00103591
0.000881064
0.000759828
0.000598002
0.000402734
0.000285026
0.000368076
0.00189353
0.00189922
0.00180471
0.00165197
0.0015899
0.00150286
0.00132568
0.00124225
0.00134269
0.00149077
0.00153359
0.00142952
0.00123975
0.00103738
0.000867325
0.000729684
0.000573346
0.000398634
0.000299712
0.000384713
0.00194589
0.00194357
0.00184615
0.00167927
0.0015948
0.00152315
0.00137574
0.00128042
0.00133944
0.00146271
0.00151156
0.00142583
0.0012465
0.00104474
0.000863834
0.000710019
0.000556033
0.000397387
0.000313389
0.000404258
0.00199683
0.00198588
0.00188485
0.00171041
0.00160379
0.00153598
0.00141671
0.00132148
0.00134754
0.00144314
0.00149004
0.00142092
0.00125676
0.00105787
0.000869538
0.000702519
0.000546215
0.000400565
0.000328232
0.000425239
0.00204577
0.00202642
0.00192075
0.00174278
0.0016172
0.00154542
0.00144887
0.00136166
0.00136497
0.00143343
0.00147341
0.00141603
0.00126817
0.00107695
0.000883635
0.000707144
0.000546546
0.000409184
0.000346551
0.000448052
0.00209214
0.00206526
0.00195405
0.00177416
0.00163397
0.00155446
0.0014736
0.00139846
0.00138889
0.00143365
0.00146405
0.00141479
0.00128107
0.00110067
0.000906411
0.000722624
0.000558689
0.000425022
0.000369501
0.000473929
0.0021353
0.00210187
0.00198501
0.00180374
0.00165289
0.00156434
0.00149334
0.00143096
0.00141651
0.00144376
0.00146299
0.00141959
0.0012986
0.00112832
0.000937906
0.000749677
0.000582957
0.000451202
0.000399309
0.00050502
0.00217472
0.00213568
0.00201352
0.00183104
0.00167254
0.00157541
0.00151027
0.00145948
0.00144546
0.00146234
0.00147169
0.00143111
0.00132294
0.00116265
0.000977964
0.000789309
0.000619093
0.000488472
0.000438021
0.000542946
0.00220989
0.00216616
0.00203935
0.00185563
0.00169149
0.00158713
0.00152546
0.00148496
0.00147484
0.0014868
0.00149065
0.0014518
0.00135504
0.00120672
0.00102785
0.000841688
0.000668712
0.000537353
0.000487248
0.000589729
0.00224027
0.00219295
0.00206195
0.00187716
0.00170887
0.0015986
0.00153893
0.00150771
0.00150445
0.00151585
0.00151842
0.00148411
0.00139751
0.00126265
0.00109121
0.000908706
0.000735728
0.000601479
0.000550864
0.000649247
0.00226503
0.00221509
0.00208095
0.00189529
0.00172418
0.00160933
0.00155086
0.00152755
0.00153325
0.00154905
0.00155378
0.00152765
0.00145325
0.00133534
0.00117364
0.000986614
0.000811572
0.000676095
0.000628979
0.00072328
0.00228363
0.00223139
0.00209544
0.00190927
0.00173671
0.00161885
0.00156102
0.00154455
0.00155987
0.00158409
0.00159692
0.00158241
0.00152433
0.00142752
0.00130663
0.00116086
0.000987961
0.000844965
0.00077066
0.000845959
0.0022964
0.00224271
0.00210213
0.0019166
0.00174472
0.00162575
0.00156842
0.00155775
0.00158342
0.00161802
0.00164976
0.00165631
0.00161203
0.00150858
0.00136754
0.00121805
0.00110362
0.000980219
0.000910443
0.000974064
0.00229986
0.00224624
0.00210718
0.00192142
0.00174696
0.00162648
0.0015712
0.00156724
0.00160079
0.00164228
0.00169175
0.00174599
0.00177083
0.00175268
0.0016894
0.00157439
0.00139221
0.00123852
0.00115171
0.00118732
0.00229184
0.00223976
0.00210666
0.0019208
0.00174273
0.00162234
0.00156778
0.00157187
0.00161593
0.00166293
0.00170434
0.00174746
0.00177331
0.00178064
0.00177168
0.00173297
0.00164726
0.00153807
0.00145946
0.00149206
0.0022807
0.00223081
0.00208999
0.00190136
0.00173025
0.00161322
0.0015591
0.00155697
0.00160832
0.00170556
0.00183863
0.00200133
0.00214391
0.00223401
0.00226276
0.00222869
0.002153
0.00200121
0.00182088
0.00170092
0.00225515
0.00220643
0.00206782
0.00188447
0.0017161
0.00159463
0.00153512
0.00151846
0.00151956
0.00149603
0.00148438
0.00158309
0.00187207
0.00229215
0.00268043
0.00295439
0.0031351
0.00330565
0.00349571
0.00365315
0.00221021
0.00215917
0.00203366
0.00187437
0.00173399
0.00163198
0.00155551
0.00150702
0.00153534
0.00169687
0.00199664
0.00234127
0.0025991
0.00275776
0.00286796
0.00297132
0.0030717
0.00316588
0.00325171
0.00329621
0.00214934
0.0021127
0.00197822
0.00180256
0.00163796
0.00152634
0.00152782
0.00165452
0.00185457
0.00202635
0.00216175
0.00227503
0.00238332
0.0025439
0.00276687
0.00305431
0.00341875
0.00379354
0.00408374
0.00420667
0.00203788
0.00203017
0.00198146
0.00192106
0.00188871
0.00188361
0.00189113
0.0019244
0.00200332
0.00211059
0.00223173
0.00239005
0.00255024
0.00267041
0.00274062
0.00270303
0.00254871
0.00231442
0.00207399
0.00189025
0.00188359
0.00186963
0.00191913
0.00196038
0.00194827
0.00189954
0.00188091
0.0019092
0.00196984
0.00208272
0.00220651
0.00235106
0.00253511
0.00272387
0.00294544
0.00321071
0.00349983
0.00377915
0.00399566
0.00409323
0.00179344
0.0017937
0.00188061
0.00199328
0.0020991
0.00215467
0.00217003
0.00216947
0.00218325
0.00224696
0.00233221
0.00242835
0.00257665
0.00274477
0.00290225
0.0030544
0.00319913
0.00333067
0.00341598
0.00341008
0.0131944
0.00780094
0.00033734
-0.00505641
-0.00614649
-0.00496144
-0.00347245
-0.00219541
-0.00121565
-0.000449117
0.000177504
0.000566654
0.000710898
0.000840115
0.00113207
0.00151887
0.00186062
0.00211715
0.00228778
0.0024031
0.00258407
0.00287668
0.00316217
0.0033711
0.00357304
0.00384776
0.00420061
0.00456135
0.00486013
0.00512569
0.00542984
0.0057647
0.00606134
0.00630528
0.00654617
0.00681214
0.00709
0.00738106
0.00770908
0.00806914
0.0084258
0.00877621
0.00914074
0.00950655
0.00983129
0.0101235
0.010441
0.0107943
0.0111462
0.0114989
0.0118948
0.0123241
0.0127287
0.0131259
0.0135531
0.0139675
0.014366
0.0147922
0.0152327
0.0156726
0.0161297
0.0166
0.01708
0.0175687
0.0180627
0.0185632
0.0190726
0.0195923
0.0201272
0.0206728
0.0212224
0.0217829
0.0223586
0.02295
0.0235525
0.0241652
0.0247847
0.0254193
0.026068
0.0267362
0.0274138
0.0281065
0.0288076
0.0295272
0.0302573
0.0310066
0.0317661
0.0325439
0.033328
0.0341314
0.0349429
0.0357753
0.0366142
0.0374639
0.0383269
0.0391793
0.0400448
0.0408822
0.0415806
0.0423103
0.0125152
0.00765437
0.000430484
-0.00491037
-0.0060674
-0.00492658
-0.00345192
-0.00218067
-0.00120406
-0.000439478
0.000186293
0.000574847
0.000717918
0.000845782
0.00113682
0.00152312
0.00186451
0.00212074
0.00229107
0.0024059
0.00258641
0.00287889
0.00316437
0.00337313
0.00357481
0.00384932
0.00420206
0.00456278
0.00486149
0.00512688
0.00543091
0.00576575
0.00606239
0.00630627
0.00654707
0.00681299
0.00709081
0.00738182
0.00770979
0.00806983
0.00842647
0.00877684
0.00914135
0.00950716
0.00983189
0.0101241
0.0104415
0.0107948
0.0111467
0.0114993
0.0118952
0.0123245
0.0127291
0.0131263
0.0135534
0.0139678
0.0143663
0.0147925
0.015233
0.0156729
0.01613
0.0166003
0.0170803
0.0175689
0.0180629
0.0185634
0.0190728
0.0195926
0.0201274
0.020673
0.0212226
0.021783
0.0223588
0.0229502
0.0235526
0.0241654
0.0247848
0.0254194
0.0260682
0.0267363
0.027414
0.0281066
0.0288077
0.0295273
0.0302574
0.0310067
0.0317662
0.0325441
0.0333281
0.0341315
0.034943
0.0357753
0.0366143
0.037464
0.038327
0.0391794
0.0400448
0.0408823
0.0415807
0.0423103
0.0118294
0.00746457
0.000602595
-0.00463804
-0.00592418
-0.0048735
-0.00342568
-0.00216264
-0.00119026
-0.00042876
0.000194752
0.00058208
0.000724608
0.000852013
0.00114241
0.00152788
0.00186848
0.00212422
0.00229424
0.00240862
0.00258869
0.00288099
0.00316636
0.00337491
0.00357639
0.00385076
0.00420344
0.00456414
0.00486274
0.00512796
0.0054319
0.00576675
0.00606336
0.00630713
0.00654786
0.00681373
0.0070915
0.00738245
0.00771039
0.00807044
0.00842705
0.00877739
0.00914189
0.00950772
0.00983243
0.0101245
0.0104419
0.0107952
0.0111471
0.0114997
0.0118956
0.0123249
0.0127294
0.0131266
0.0135537
0.0139682
0.0143666
0.0147928
0.0152333
0.0156731
0.0161302
0.0166006
0.0170805
0.0175691
0.0180631
0.0185636
0.019073
0.0195927
0.0201276
0.0206732
0.0212227
0.0217832
0.0223589
0.0229503
0.0235528
0.0241655
0.0247849
0.0254195
0.0260683
0.0267364
0.0274141
0.0281067
0.0288078
0.0295274
0.0302575
0.0310068
0.0317663
0.0325441
0.0333282
0.0341316
0.0349431
0.0357754
0.0366144
0.0374641
0.038327
0.0391794
0.0400449
0.0408824
0.0415808
0.0423103
0.011173
0.00727242
0.000832622
-0.00427527
-0.00571265
-0.00478903
-0.00338304
-0.00213454
-0.00116976
-0.000413802
0.000204611
0.000588959
0.000731544
0.000860058
0.00115038
0.00153442
0.00187342
0.00212838
0.00229836
0.00241261
0.00259209
0.00288366
0.0031685
0.00337685
0.00357832
0.0038526
0.00420511
0.00456568
0.00486418
0.00512927
0.00543311
0.0057679
0.00606442
0.00630807
0.0065487
0.0068145
0.00709221
0.0073831
0.00771104
0.00807109
0.00842767
0.00877797
0.00914247
0.00950832
0.009833
0.010125
0.0104424
0.0107957
0.0111475
0.0115001
0.0118959
0.0123253
0.0127298
0.0131269
0.0135541
0.0139685
0.0143669
0.014793
0.0152335
0.0156734
0.0161305
0.0166008
0.0170808
0.0175694
0.0180634
0.0185638
0.0190732
0.0195929
0.0201278
0.0206734
0.0212229
0.0217834
0.0223591
0.0229505
0.0235529
0.0241657
0.0247851
0.0254197
0.0260684
0.0267366
0.0274142
0.0281068
0.0288079
0.0295275
0.0302576
0.0310069
0.0317664
0.0325442
0.0333283
0.0341317
0.0349432
0.0357755
0.0366144
0.0374642
0.0383271
0.0391795
0.040045
0.0408825
0.0415809
0.0423103
0.0105386
0.00707882
0.00108258
-0.0038802
-0.00546891
-0.00468697
-0.00333021
-0.00209843
-0.00114249
-0.000393653
0.000216899
0.000596117
0.000739248
0.000870672
0.00116156
0.00154323
0.00187937
0.00213312
0.00230377
0.00241895
0.00259793
0.00288776
0.00317115
0.00337925
0.00358106
0.00385529
0.00420726
0.00456744
0.00486592
0.00513108
0.00543482
0.0057694
0.00606574
0.00630926
0.00654975
0.0068154
0.00709299
0.00738384
0.00771179
0.00807183
0.00842838
0.00877865
0.00914316
0.009509
0.00983362
0.0101256
0.0104429
0.0107962
0.011148
0.0115005
0.0118964
0.0123257
0.0127303
0.0131273
0.0135545
0.0139689
0.0143672
0.0147934
0.0152339
0.0156737
0.0161308
0.0166011
0.017081
0.0175696
0.0180636
0.018564
0.0190734
0.0195931
0.020128
0.0206736
0.0212231
0.0217835
0.0223592
0.0229507
0.0235531
0.0241658
0.0247852
0.0254198
0.0260685
0.0267367
0.0274143
0.0281069
0.0288081
0.0295276
0.0302577
0.031007
0.0317665
0.0325443
0.0333284
0.0341318
0.0349433
0.0357756
0.0366145
0.0374642
0.0383272
0.0391796
0.0400451
0.0408826
0.0415811
0.0423104
0.00992997
0.00686994
0.00132214
-0.00347864
-0.0052087
-0.00457664
-0.00327413
-0.00205862
-0.00111074
-0.000369494
0.000231436
0.000604002
0.000747989
0.000883624
0.00117551
0.00155397
0.00188598
0.00213792
0.00231004
0.00242773
0.00260681
0.00289397
0.00317482
0.00338252
0.00358506
0.00385922
0.0042101
0.00456939
0.00486793
0.00513347
0.00543716
0.00577137
0.00606748
0.00631092
0.00655122
0.00681655
0.0070939
0.00738471
0.00771266
0.00807265
0.00842917
0.00877947
0.00914401
0.0095098
0.00983434
0.0101262
0.0104435
0.0107967
0.0111485
0.011501
0.0118968
0.0123262
0.0127307
0.0131278
0.0135549
0.0139693
0.0143676
0.0147937
0.0152342
0.015674
0.0161311
0.0166014
0.0170813
0.0175699
0.0180639
0.0185643
0.0190737
0.0195934
0.0201282
0.0206738
0.0212233
0.0217837
0.0223594
0.0229508
0.0235532
0.024166
0.0247854
0.02542
0.0260687
0.0267368
0.0274145
0.0281071
0.0288082
0.0295277
0.0302578
0.0310071
0.0317666
0.0325444
0.0333285
0.0341319
0.0349434
0.0357757
0.0366146
0.0374643
0.0383273
0.0391797
0.0400452
0.0408828
0.0415814
0.0423105
0.0093495
0.00663479
0.00153796
-0.00307491
-0.00493163
-0.0044579
-0.00321613
-0.00201657
-0.00107561
-0.000342094
0.00024813
0.000612998
0.000757755
0.000898183
0.00119127
0.00156593
0.00189281
0.00214232
0.0023165
0.00243822
0.00261828
0.00290233
0.00317988
0.00338709
0.0035907
0.00386472
0.0042138
0.00457157
0.00487015
0.00513638
0.00544004
0.00577371
0.00606964
0.00631325
0.00655338
0.00681817
0.0070951
0.00738582
0.00771369
0.00807351
0.00842999
0.00878044
0.00914505
0.00951075
0.00983521
0.010127
0.0104442
0.0107973
0.0111491
0.0115016
0.0118974
0.0123268
0.0127313
0.0131283
0.0135554
0.0139698
0.014368
0.0147941
0.0152346
0.0156744
0.0161314
0.0166017
0.0170816
0.0175702
0.0180642
0.0185646
0.0190739
0.0195936
0.0201284
0.020674
0.0212235
0.0217839
0.0223596
0.022951
0.0235534
0.0241662
0.0247856
0.0254201
0.0260688
0.026737
0.0274146
0.0281072
0.0288083
0.0295279
0.0302579
0.0310073
0.0317667
0.0325446
0.0333286
0.034132
0.0349435
0.0357758
0.0366147
0.0374644
0.0383274
0.0391798
0.0400453
0.0408831
0.0415819
0.0423107
0.00879632
0.00637371
0.0017303
-0.00266559
-0.00463389
-0.0043286
-0.00315634
-0.00197327
-0.00103784
-0.000311725
0.000267098
0.000623292
0.000768358
0.000913727
0.00120816
0.00157871
0.00189983
0.00214639
0.00232281
0.00244946
0.00263127
0.0029122
0.00318624
0.00339313
0.00359808
0.00387181
0.00421846
0.00457409
0.00487264
0.00513971
0.00544324
0.00577612
0.00607201
0.0063162
0.00655638
0.00682048
0.00709682
0.00738737
0.00771502
0.00807442
0.00843077
0.00878146
0.00914623
0.00951183
0.00983627
0.0101282
0.0104452
0.0107981
0.0111498
0.0115023
0.0118981
0.0123274
0.0127319
0.013129
0.0135561
0.0139703
0.0143685
0.0147946
0.0152351
0.0156748
0.0161319
0.0166021
0.017082
0.0175706
0.0180646
0.0185649
0.0190743
0.0195939
0.0201287
0.0206743
0.0212238
0.0217842
0.0223599
0.0229513
0.0235537
0.0241664
0.0247858
0.0254203
0.026069
0.0267372
0.0274148
0.0281074
0.0288085
0.029528
0.0302581
0.0310074
0.0317669
0.0325447
0.0333288
0.0341321
0.0349436
0.0357759
0.0366149
0.0374646
0.0383276
0.03918
0.0400455
0.0408835
0.0415826
0.042311
0.00827283
0.0060975
0.00190215
-0.00225167
-0.00431555
-0.00418813
-0.00309544
-0.00192997
-0.000998117
-0.000278407
0.000288527
0.00063495
0.000779657
0.000929962
0.0012259
0.00159224
0.00190726
0.0021505
0.00232905
0.00246097
0.00264493
0.00292289
0.00319353
0.0034004
0.00360698
0.00388031
0.00422401
0.00457706
0.0048755
0.00514346
0.00544661
0.00577836
0.00607422
0.00631945
0.00656009
0.00682357
0.00709922
0.00738955
0.00771682
0.00807551
0.00843152
0.00878243
0.00914739
0.00951293
0.00983749
0.0101296
0.0104465
0.010799
0.0111506
0.0115032
0.0118988
0.012328
0.0127326
0.0131298
0.0135568
0.013971
0.0143692
0.0147952
0.0152356
0.0156753
0.0161324
0.0166026
0.0170825
0.0175711
0.018065
0.0185654
0.0190747
0.0195943
0.0201291
0.0206747
0.0212241
0.0217845
0.0223602
0.0229515
0.0235539
0.0241667
0.024786
0.0254205
0.0260692
0.0267374
0.027415
0.0281076
0.0288087
0.0295282
0.0302582
0.0310076
0.031767
0.0325449
0.0333289
0.0341323
0.0349437
0.0357761
0.036615
0.0374647
0.0383277
0.0391802
0.0400457
0.0408839
0.0415835
0.0423115
0.00778464
0.00581662
0.00205067
-0.00184008
-0.00397881
-0.0040355
-0.00303337
-0.0018874
-0.000956786
-0.000241964
0.000312699
0.000648117
0.000791654
0.000946834
0.00124446
0.00160659
0.00191528
0.0021549
0.00233545
0.00247271
0.00265899
0.00293405
0.00320139
0.00340852
0.003617
0.00388992
0.00423033
0.00458046
0.00487874
0.00514763
0.00545016
0.00578035
0.00607606
0.00632265
0.0065642
0.00682731
0.00710234
0.00739243
0.00771923
0.00807696
0.00843236
0.00878334
0.00914839
0.00951386
0.00983871
0.0101314
0.0104483
0.0108004
0.0111518
0.0115044
0.0118997
0.0123286
0.0127333
0.0131307
0.0135576
0.0139717
0.01437
0.014796
0.0152362
0.0156759
0.0161329
0.0166032
0.017083
0.0175716
0.0180655
0.0185658
0.0190751
0.0195948
0.0201295
0.0206751
0.0212245
0.0217849
0.0223605
0.0229519
0.0235543
0.024167
0.0247863
0.0254208
0.0260695
0.0267376
0.0274152
0.0281078
0.0288089
0.0295284
0.0302584
0.0310077
0.0317672
0.032545
0.0333291
0.0341324
0.0349439
0.0357762
0.0366152
0.0374649
0.0383279
0.0391804
0.040046
0.0408845
0.0415846
0.0423122
0.00733535
0.00553658
0.00217028
-0.00143789
-0.00362476
-0.00386814
-0.00296892
-0.00184586
-0.000914266
-0.000202372
0.000339843
0.000662956
0.000804391
0.000964341
0.00126387
0.00162182
0.00192395
0.00215969
0.00234215
0.00248486
0.00267352
0.00294564
0.00320964
0.00341721
0.00362785
0.00390041
0.00423731
0.00458428
0.00488234
0.00515217
0.00545393
0.00578219
0.00607753
0.00632561
0.00656842
0.00683148
0.00710606
0.00739596
0.00772222
0.00807885
0.00843344
0.00878424
0.00914918
0.00951448
0.00983978
0.0101333
0.0104504
0.010802
0.0111533
0.0115059
0.0119008
0.0123292
0.012734
0.0131315
0.0135584
0.0139725
0.0143709
0.0147969
0.015237
0.0156766
0.0161336
0.0166038
0.0170836
0.0175722
0.0180661
0.0185664
0.0190756
0.0195953
0.0201301
0.0206756
0.021225
0.0217853
0.0223609
0.0229523
0.0235546
0.0241674
0.0247866