/*--------------------------------*- C++ -*----------------------------------*\
| =========                 |                                                 |
| \\      /  F ield         | OpenFOAM: The Open Source CFD Toolbox           |
|  \\    /   O peration     | Version:  v1906                                 |
|   \\  /    A nd           | Web:      www.OpenFOAM.com                      |
|    \\/     M anipulation  |                                                 |
\*---------------------------------------------------------------------------*/
FoamFile
{
    version     2.0;
    format      ascii;
    class       surfaceScalarField;
    location    "3.5";
    object      phi;
}
// * * * * * * * * * * * * * * * * * * * * * * * * * * * * * * * * * * * * * //

dimensions      [0 3 -1 0 0 0 0];
oriented        oriented;


internalField   nonuniform List<scalar> 
19000
(
1.17767e-06
-4.20636e-07
1.19281e-06
5.25218e-07
1.13951e-06
5.10737e-07
1.11039e-06
-1.43963e-07
1.19328e-06
-1.22326e-06
1.25189e-06
-9.05254e-07
1.21448e-06
-8.44067e-08
1.18709e-06
6.82924e-07
1.16378e-06
7.95066e-07
1.12454e-06
7.37157e-08
1.14587e-06
8.28247e-08
1.11908e-06
-6.71769e-07
1.15084e-06
-4.36295e-07
1.13445e-06
-5.41197e-07
1.16348e-06
-5.09175e-07
1.16557e-06
-3.76903e-07
1.17628e-06
-3.7362e-07
1.17744e-06
-1.45142e-07
1.17689e-06
-4.59854e-08
9.24687e-08
1.15002e-06
1.23466e-06
-4.31035e-07
1.25559e-06
5.04285e-07
1.1956e-06
5.70733e-07
1.16801e-06
-1.16373e-07
1.24913e-06
-1.30438e-06
1.3059e-06
-9.62032e-07
1.26949e-06
-4.79961e-08
1.24899e-06
7.03423e-07
1.2175e-06
8.26565e-07
1.18955e-06
1.01667e-07
1.19943e-06
7.29413e-08
1.18216e-06
-6.54505e-07
1.20122e-06
-4.55349e-07
1.19844e-06
-5.3842e-07
1.21435e-06
-5.25078e-07
1.23261e-06
-3.95167e-07
1.22558e-06
-3.66586e-07
1.24778e-06
-1.67349e-07
1.2197e-06
-1.79022e-08
7.94759e-08
1.23269e-06
1.29231e-06
-4.40565e-07
1.32093e-06
4.75669e-07
1.25806e-06
6.33604e-07
1.23103e-06
-8.93411e-08
1.30228e-06
-1.37563e-06
1.35972e-06
-1.01948e-06
1.32707e-06
-1.53467e-08
1.30991e-06
7.20588e-07
1.27867e-06
8.57803e-07
1.26025e-06
1.20084e-07
1.26304e-06
7.01501e-08
1.25375e-06
-6.45213e-07
1.26006e-06
-4.61658e-07
1.26729e-06
-5.45648e-07
1.27179e-06
-5.29584e-07
1.2941e-06
-4.17471e-07
1.2852e-06
-3.57684e-07
1.30023e-06
-1.82383e-07
1.28762e-06
-5.29343e-09
9.10097e-08
1.27609e-06
1.35053e-06
-4.46992e-07
1.38407e-06
4.42127e-07
1.32534e-06
6.92335e-07
1.29895e-06
-6.29481e-08
1.35326e-06
-1.42995e-06
1.41098e-06
-1.07719e-06
1.38726e-06
8.36616e-09
1.37049e-06
7.37366e-07
1.34656e-06
8.81734e-07
1.33392e-06
1.32717e-07
1.33297e-06
7.10988e-08
1.32573e-06
-6.37965e-07
1.32491e-06
-4.60844e-07
1.33334e-06
-5.54079e-07
1.33414e-06
-5.30386e-07
1.35184e-06
-4.35164e-07
1.34947e-06
-3.55315e-07
1.35619e-06
-1.89108e-07
1.35394e-06
-3.03947e-09
1.05771e-07
1.33918e-06
1.41026e-06
-4.48899e-07
1.4437e-06
4.08689e-07
1.39671e-06
7.39322e-07
1.37121e-06
-3.74466e-08
1.405e-06
-1.46374e-06
1.45976e-06
-1.13195e-06
1.45001e-06
1.81139e-08
1.43414e-06
7.53238e-07
1.41966e-06
8.96214e-07
1.41035e-06
1.42027e-07
1.40753e-06
7.39203e-08
1.39845e-06
-6.2889e-07
1.39371e-06
-4.56107e-07
1.39931e-06
-5.59673e-07
1.39878e-06
-5.29857e-07
1.41142e-06
-4.47802e-07
1.41266e-06
-3.56558e-07
1.41724e-06
-1.93688e-07
1.41795e-06
-3.75096e-09
1.1678e-07
1.40694e-06
1.473e-06
-4.46218e-07
1.50196e-06
3.79721e-07
1.47176e-06
7.69524e-07
1.44792e-06
-1.36107e-08
1.46134e-06
-1.47715e-06
1.50875e-06
-1.17936e-06
1.51397e-06
1.28904e-08
1.50286e-06
7.64345e-07
1.49673e-06
9.02346e-07
1.48949e-06
1.49273e-07
1.48528e-06
7.81303e-08
1.4732e-06
-6.16815e-07
1.46542e-06
-4.48322e-07
1.46749e-06
-5.61751e-07
1.46541e-06
-5.27774e-07
1.47397e-06
-4.56362e-07
1.47575e-06
-3.5834e-07
1.47949e-06
-1.97422e-07
1.4822e-06
-6.46114e-09
1.24881e-07
1.4741e-06
1.54001e-06
-4.40011e-07
1.56262e-06
3.57114e-07
1.54996e-06
7.82187e-07
1.52908e-06
7.26831e-09
1.52487e-06
-1.47294e-06
1.56123e-06
-1.21572e-06
1.57817e-06
-4.05293e-09
1.57575e-06
7.66764e-07
1.57648e-06
9.01622e-07
1.57062e-06
1.55128e-07
1.56523e-06
8.35242e-08
1.55033e-06
-6.01918e-07
1.54007e-06
-4.38067e-07
1.53875e-06
-5.60424e-07
1.53495e-06
-5.23973e-07
1.53971e-06
-4.61128e-07
1.54101e-06
-3.59641e-07
1.54296e-06
-1.99363e-07
1.54733e-06
-1.08397e-08
1.30948e-07
1.54127e-06
1.61185e-06
-4.31736e-07
1.62877e-06
3.40202e-07
1.63076e-06
7.80188e-07
1.61399e-06
2.40422e-08
1.59607e-06
-1.45502e-06
1.61948e-06
-1.23913e-06
1.64302e-06
-2.75996e-08
1.65088e-06
7.58913e-07
1.65747e-06
8.95026e-07
1.65278e-06
1.59824e-07
1.64668e-06
8.96196e-08
1.62966e-06
-5.84897e-07
1.61787e-06
-4.26272e-07
1.61334e-06
-5.55897e-07
1.60803e-06
-5.18669e-07
1.60899e-06
-4.6208e-07
1.6096e-06
-3.60258e-07
1.60914e-06
-1.98906e-07
1.61439e-06
-1.60861e-08
1.35332e-07
1.61001e-06
1.68841e-06
-4.22567e-07
1.70163e-06
3.26979e-07
1.71382e-06
7.67996e-07
1.70161e-06
3.6255e-08
1.67405e-06
-1.42747e-06
1.68456e-06
-1.24963e-06
1.70998e-06
-5.30235e-08
1.72714e-06
7.41753e-07
1.73878e-06
8.83387e-07
1.73535e-06
1.6325e-07
1.72934e-06
9.56346e-08
1.71106e-06
-5.66619e-07
1.69883e-06
-4.14045e-07
1.69142e-06
-5.48488e-07
1.68499e-06
-5.12238e-07
1.68215e-06
-4.59243e-07
1.68201e-06
-3.60116e-07
1.67919e-06
-1.96079e-07
1.68461e-06
-2.15134e-08
1.38106e-07
1.68184e-06
1.76933e-06
-4.13171e-07
1.78076e-06
3.15547e-07
1.79895e-06
7.49806e-07
1.79109e-06
4.41151e-08
1.75758e-06
-1.39396e-06
1.75672e-06
-1.24877e-06
1.78066e-06
-7.69637e-08
1.80469e-06
7.17726e-07
1.82042e-06
8.67655e-07
1.81848e-06
1.65192e-07
1.81337e-06
1.00742e-07
1.79464e-06
-5.47889e-07
1.78299e-06
-4.02398e-07
1.77315e-06
-5.38644e-07
1.76603e-06
-5.05118e-07
1.75957e-06
-4.52781e-07
1.75857e-06
-3.5912e-07
1.75373e-06
-1.91234e-07
1.75888e-06
-2.66677e-08
1.39075e-07
1.75791e-06
1.85441e-06
-4.03828e-07
1.86507e-06
3.04887e-07
1.88622e-06
7.28656e-07
1.88219e-06
4.81389e-08
1.84568e-06
-1.35745e-06
1.83581e-06
-1.2389e-06
1.85633e-06
-9.74899e-08
1.88446e-06
6.89598e-07
1.90329e-06
8.4882e-07
1.90296e-06
1.65528e-07
1.89939e-06
1.04308e-07
1.88077e-06
-5.29264e-07
1.87044e-06
-3.92068e-07
1.85865e-06
-5.26859e-07
1.85131e-06
-4.97774e-07
1.84156e-06
-4.43028e-07
1.83959e-06
-3.57158e-07
1.8332e-06
-1.8484e-07
1.83762e-06
-3.10922e-08
1.37908e-07
1.83879e-06
1.94364e-06
-3.94628e-07
1.95375e-06
2.94781e-07
1.97603e-06
7.06376e-07
1.97529e-06
4.88782e-08
1.93782e-06
-1.31998e-06
1.9214e-06
-1.22247e-06
1.93772e-06
-1.13813e-07
1.96759e-06
6.59728e-07
1.98866e-06
8.27747e-07
1.98988e-06
1.64312e-07
1.98822e-06
1.05968e-07
1.96996e-06
-5.11004e-07
1.96133e-06
-3.83438e-07
1.94804e-06
-5.13569e-07
1.9409e-06
-4.90632e-07
1.92838e-06
-4.3051e-07
1.92531e-06
-3.54092e-07
1.91789e-06
-1.77421e-07
1.92097e-06
-3.41663e-08
1.34383e-07
1.92449e-06
2.03714e-06
-3.8558e-07
2.04658e-06
2.85342e-07
2.06906e-06
6.83894e-07
2.07108e-06
4.68547e-08
2.03383e-06
-1.28273e-06
2.01297e-06
-1.20161e-06
2.02507e-06
-1.25911e-07
2.05503e-06
6.29765e-07
2.07771e-06
8.05064e-07
2.08029e-06
1.61734e-07
2.08067e-06
1.05586e-07
2.06279e-06
-4.93123e-07
2.05593e-06
-3.76577e-07
2.04145e-06
-4.99084e-07
2.0348e-06
-4.8399e-07
2.02019e-06
-4.15894e-07
2.01587e-06
-3.49771e-07
2.00796e-06
-1.69517e-07
2.00906e-06
-3.52615e-08
1.28638e-07
2.0148e-06
2.13507e-06
-3.76647e-07
2.14377e-06
2.76638e-07
2.16607e-06
6.61592e-07
2.17035e-06
4.25812e-08
2.13376e-06
-1.24614e-06
2.11004e-06
-1.17789e-06
2.11831e-06
-1.34188e-07
2.14742e-06
6.00658e-07
2.17133e-06
7.81151e-07
2.17502e-06
1.58051e-07
2.17743e-06
1.03177e-07
2.1598e-06
-4.75496e-07
2.15458e-06
-3.71354e-07
2.13909e-06
-4.83593e-07
2.13304e-06
-4.7795e-07
2.11706e-06
-3.99913e-07
2.11129e-06
-3.43999e-07
2.10347e-06
-1.61693e-07
2.10218e-06
-3.39754e-08
1.21245e-07
2.10958e-06
2.23761e-06
-3.67768e-07
2.24568e-06
2.68567e-07
2.2677e-06
6.39571e-07
2.27372e-06
3.6563e-08
2.2378e-06
-1.21022e-06
2.21228e-06
-1.15236e-06
2.21732e-06
-1.39231e-07
2.24517e-06
5.72804e-07
2.27014e-06
7.56185e-07
2.27467e-06
1.53522e-07
2.279e-06
9.88436e-08
2.26144e-06
-4.57938e-07
2.25762e-06
-3.67534e-07
2.24125e-06
-4.67215e-07
2.23569e-06
-4.72397e-07
2.21905e-06
-3.83274e-07
2.2116e-06
-3.36548e-07
2.20439e-06
-1.5448e-07
2.20074e-06
-3.033e-08
1.13098e-07
2.20889e-06
2.34498e-06
-3.58871e-07
2.35264e-06
2.60908e-07
2.3744e-06
6.1781e-07
2.38169e-06
2.92686e-08
2.34624e-06
-1.17477e-06
2.31956e-06
-1.12568e-06
2.32203e-06
-1.41699e-07
2.3486e-06
5.46233e-07
2.37457e-06
7.30216e-07
2.37968e-06
1.48412e-07
2.38577e-06
9.27485e-08
2.36809e-06
-4.40256e-07
2.3654e-06
-3.64844e-07
2.34826e-06
-4.50072e-07
2.3429e-06
-4.67038e-07
2.32625e-06
-3.66628e-07
2.31688e-06
-3.2718e-07
2.31069e-06
-1.48288e-07
2.30505e-06
-2.46892e-08
1.05108e-07
2.31304e-06
2.45742e-06
-3.49897e-07
2.46491e-06
2.53414e-07
2.48647e-06
5.96252e-07
2.49465e-06
2.1096e-08
2.45939e-06
-1.13951e-06
2.43193e-06
-1.09822e-06
2.4325e-06
-1.42269e-07
2.45797e-06
5.20763e-07
2.48495e-06
7.0324e-07
2.49037e-06
1.4299e-07
2.49801e-06
8.51047e-08
2.48005e-06
-4.22296e-07
2.47819e-06
-3.62979e-07
2.46045e-06
-4.32332e-07
2.45488e-06
-4.61473e-07
2.43878e-06
-3.50526e-07
2.42735e-06
-3.15746e-07
2.42237e-06
-1.43312e-07
2.41536e-06
-1.76762e-08
9.80077e-08
2.42246e-06
2.5752e-06
-3.40803e-07
2.58273e-06
2.45881e-07
2.60415e-06
5.74832e-07
2.61289e-06
1.23567e-08
2.57761e-06
-1.10423e-06
2.54958e-06
-1.07019e-06
2.5489e-06
-1.41592e-07
2.57352e-06
4.96141e-07
2.60151e-06
6.75254e-07
2.60698e-06
1.37519e-07
2.61592e-06
7.61628e-08
2.5976e-06
-4.0398e-07
2.59624e-06
-3.61614e-07
2.57814e-06
-4.14234e-07
2.5719e-06
-4.55233e-07
2.55681e-06
-3.35435e-07
2.54332e-06
-3.02257e-07
2.53946e-06
-1.39453e-07
2.53189e-06
-1.01009e-08
9.22947e-08
2.5376e-06
2.6986e-06
-3.31572e-07
2.7063e-06
2.38177e-07
2.72765e-06
5.53485e-07
2.73672e-06
3.28147e-09
2.70127e-06
-1.06877e-06
2.67276e-06
-1.04168e-06
2.67141e-06
-1.40248e-07
2.69541e-06
4.72139e-07
2.72439e-06
6.46281e-07
2.72968e-06
1.32225e-07
2.73964e-06
6.61997e-08
2.721e-06
-3.85335e-07
2.71979e-06
-3.60403e-07
2.70163e-06
-3.96079e-07
2.69425e-06
-4.47852e-07
2.68051e-06
-3.21687e-07
2.6652e-06
-2.8695e-07
2.66205e-06
-1.36305e-07
2.65483e-06
-2.8799e-09
8.82307e-08
2.65889e-06
2.8279e-06
-3.22203e-07
2.83583e-06
2.30246e-07
2.85717e-06
5.32149e-07
2.86641e-06
-5.95736e-09
2.83073e-06
-1.0331e-06
2.80177e-06
-1.01271e-06
2.80021e-06
-1.38695e-07
2.82374e-06
4.48614e-07
2.85365e-06
6.16374e-07
2.85862e-06
1.27247e-07
2.86931e-06
5.55096e-08
2.85049e-06
-3.66508e-07
2.84908e-06
-3.58994e-07
2.8312e-06
-3.78201e-07
2.82228e-06
-4.38935e-07
2.81005e-06
-3.09455e-07
2.79333e-06
-2.70232e-07
2.7904e-06
-1.3337e-07
2.78426e-06
3.25402e-09
8.57989e-08
2.78669e-06
2.9634e-06
-3.12707e-07
2.97156e-06
2.2209e-07
2.99295e-06
5.10758e-07
3.00221e-06
-1.52189e-08
2.96636e-06
-9.97253e-07
2.93692e-06
-9.83265e-07
2.93549e-06
-1.37267e-07
2.95859e-06
4.2551e-07
2.98935e-06
5.85615e-07
2.99397e-06
1.22625e-07
3.00509e-06
4.43937e-08
2.98632e-06
-3.47735e-07
2.98437e-06
-3.57048e-07
2.96708e-06
-3.60907e-07
2.95636e-06
-4.2822e-07
2.94562e-06
-2.98719e-07
2.92802e-06
-2.52628e-07
2.92481e-06
-1.30162e-07
2.92025e-06
7.81612e-09
8.47681e-08
2.92128e-06
3.1054e-06
-3.03106e-07
3.11374e-06
2.13758e-07
3.13526e-06
4.89239e-07
3.14441e-06
-2.4373e-08
3.10851e-06
-9.61349e-07
3.07853e-06
-9.53293e-07
3.07745e-06
-1.36182e-07
3.10013e-06
4.02831e-07
3.13162e-06
5.54128e-07
3.13595e-06
1.18293e-07
3.14718e-06
3.31608e-08
3.12875e-06
-3.293e-07
3.12597e-06
-3.54268e-07
3.1095e-06
-3.44441e-07
3.09689e-06
-4.1561e-07
3.08745e-06
-2.89281e-07
3.06953e-06
-2.34704e-07
3.06567e-06
-1.26306e-07
3.06286e-06
1.06279e-08
8.47443e-08
3.06289e-06
3.25423e-06
-2.93423e-07
3.26266e-06
2.05326e-07
3.28439e-06
4.67508e-07
3.29331e-06
-3.32908e-08
3.25749e-06
-9.25533e-07
3.22695e-06
-9.22755e-07
3.22634e-06
-1.3557e-07
3.24858e-06
3.80597e-07
3.28063e-06
5.22073e-07
3.28482e-06
1.14109e-07
3.29587e-06
2.21092e-08
3.27804e-06
-3.11472e-07
3.2742e-06
-3.50435e-07
3.2587e-06
-3.28939e-07
3.24427e-06
-4.0118e-07
3.23582e-06
-2.80829e-07
3.2181e-06
-2.16983e-07
3.21335e-06
-1.21561e-07
3.21224e-06
1.17405e-08
8.52608e-08
3.21173e-06
3.41019e-06
-2.83685e-07
3.41863e-06
1.96888e-07
3.44066e-06
4.45476e-07
3.44922e-06
-4.18461e-08
3.41365e-06
-8.8996e-07
3.38252e-06
-8.91633e-07
3.38244e-06
-1.35487e-07
3.40424e-06
3.588e-07
3.43666e-06
4.89655e-07
3.44088e-06
1.09885e-07
3.45147e-06
1.15168e-08
3.43447e-06
-2.94472e-07
3.42945e-06
-3.45416e-07
3.41493e-06
-3.14414e-07
3.39887e-06
-3.85123e-07
3.39105e-06
-2.73012e-07
3.37396e-06
-1.99889e-07
3.36822e-06
-1.15818e-07
3.36861e-06
1.13456e-08
8.58452e-08
3.36803e-06
3.57364e-06
-2.73919e-07
3.58199e-06
1.88547e-07
3.60441e-06
4.23054e-07
3.61249e-06
-4.99275e-08
3.5773e-06
-8.54767e-07
3.54561e-06
-8.59944e-07
3.54605e-06
-1.35929e-07
3.56745e-06
3.37396e-07
3.60001e-06
4.57101e-07
3.60447e-06
1.05423e-07
3.61437e-06
1.62015e-09
3.59834e-06
-2.78443e-07
3.5921e-06
-3.39179e-07
3.57846e-06
-3.00776e-07
3.56104e-06
-3.67699e-07
3.55351e-06
-2.65478e-07
3.53739e-06
-1.8377e-07
3.5306e-06
-1.09033e-07
3.53224e-06
9.70328e-09
8.60337e-08
3.53206e-06
3.74493e-06
-2.64149e-07
3.75308e-06
1.80401e-07
3.77597e-06
4.00167e-07
3.78349e-06
-5.74516e-08
3.74878e-06
-8.20058e-07
3.7166e-06
-8.27761e-07
3.7175e-06
-1.36824e-07
3.7386e-06
3.16295e-07
3.77104e-06
4.24653e-07
3.77592e-06
1.00549e-07
3.78494e-06
-7.40645e-09
3.76994e-06
-2.6344e-07
3.76254e-06
-3.31778e-07
3.74964e-06
-2.87874e-07
3.73114e-06
-3.49198e-07
3.72359e-06
-2.57928e-07
3.70872e-06
-1.68904e-07
3.70089e-06
-1.01199e-07
3.70341e-06
7.1813e-09
8.53539e-08
3.70409e-06
3.92444e-06
-2.54396e-07
3.9323e-06
1.72534e-07
3.9557e-06
3.76774e-07
3.96262e-06
-6.43796e-08
3.92845e-06
-7.85884e-07
3.89591e-06
-7.95222e-07
3.89712e-06
-1.38039e-07
3.91804e-06
2.95378e-07
3.95015e-06
3.92542e-07
3.95557e-06
9.51364e-08
3.96362e-06
-1.54645e-08
3.94962e-06
-2.49433e-07
3.94116e-06
-3.23321e-07
3.92884e-06
-2.75552e-07
3.90953e-06
-3.29891e-07
3.90172e-06
-2.50116e-07
3.88832e-06
-1.55502e-07
3.87952e-06
-9.24e-08
3.88238e-06
4.3147e-09
8.33573e-08
3.88438e-06
4.11253e-06
-2.44681e-07
4.12007e-06
1.65002e-07
4.14395e-06
3.52891e-07
4.1503e-06
-7.07306e-08
4.11665e-06
-7.52233e-07
4.08397e-06
-7.62538e-07
4.08532e-06
-1.39397e-07
4.10617e-06
2.7453e-07
4.13774e-06
3.6097e-07
4.14376e-06
8.91173e-08
4.15082e-06
-2.2524e-08
4.13773e-06
-2.36345e-07
4.12834e-06
-3.13928e-07
4.1165e-06
-2.63707e-07
4.09665e-06
-3.10045e-07
4.0883e-06
-2.4177e-07
4.07651e-06
-1.43712e-07
4.067e-06
-8.28865e-08
4.06954e-06
1.77335e-09
7.9772e-08
4.07313e-06
4.30964e-06
-2.35015e-07
4.31681e-06
1.57829e-07
4.3411e-06
3.286e-07
4.34696e-06
-7.6589e-08
4.31376e-06
-7.19035e-07
4.2812e-06
-7.29975e-07
4.2825e-06
-1.40696e-07
4.30337e-06
2.53658e-07
4.33425e-06
3.30092e-07
4.34088e-06
8.2487e-08
4.34696e-06
-2.86078e-08
4.33468e-06
-2.24067e-07
4.32449e-06
-3.03731e-07
4.31305e-06
-2.52266e-07
4.29289e-06
-2.89892e-07
4.28384e-06
-2.32716e-07
4.27362e-06
-1.33496e-07
4.26384e-06
-7.31019e-08
4.26541e-06
1.99153e-10
7.46581e-08
4.27053e-06
4.51616e-06
-2.25406e-07
4.523e-06
1.50993e-07
4.54753e-06
3.04067e-07
4.55306e-06
-8.21168e-08
4.52018e-06
-6.86157e-07
4.48806e-06
-6.97853e-07
4.4891e-06
-1.41737e-07
4.51003e-06
2.32728e-07
4.54013e-06
2.99988e-07
4.54732e-06
7.53007e-08
4.55248e-06
-3.37668e-08
4.54089e-06
-2.12479e-07
4.53003e-06
-2.92869e-07
4.51892e-06
-2.41157e-07
4.49871e-06
-2.69684e-07
4.48884e-06
-2.22843e-07
4.48e-06
-1.24657e-07
4.47045e-06
-6.35541e-08
4.47071e-06
-5.38556e-11
6.85188e-08
4.47685e-06
4.73256e-06
-2.15849e-07
4.73913e-06
1.44422e-07
4.76364e-06
2.79553e-07
4.76907e-06
-8.75451e-08
4.73635e-06
-6.53435e-07
4.70498e-06
-6.66489e-07
4.70563e-06
-1.42387e-07
4.72653e-06
2.11832e-07
4.75587e-06
2.70652e-07
4.76354e-06
6.76313e-08
4.76782e-06
-3.80493e-08
4.7568e-06
-2.01457e-07
4.74543e-06
-2.81504e-07
4.73456e-06
-2.30281e-07
4.71454e-06
-2.49666e-07
4.70384e-06
-2.12142e-07
4.6961e-06
-1.16921e-07
4.68717e-06
-5.46261e-08
4.68616e-06
9.6163e-10
6.21504e-08
4.69253e-06
4.95928e-06
-2.06327e-07
4.9657e-06
1.37997e-07
4.98985e-06
2.55408e-07
4.99546e-06
-9.31623e-08
4.96274e-06
-6.20713e-07
4.9324e-06
-6.36144e-07
4.93263e-06
-1.4262e-07
4.95327e-06
1.91193e-07
4.9819e-06
2.42023e-07
4.99002e-06
5.95128e-08
4.99345e-06
-4.14845e-08
4.98287e-06
-1.90874e-07
4.97115e-06
-2.69784e-07
4.96045e-06
-2.19582e-07
4.9408e-06
-2.30017e-07
4.92932e-06
-2.0066e-07
4.92245e-06
-1.10058e-07
4.91433e-06
-4.6504e-08
4.91239e-06
2.89916e-09
5.63136e-08
4.91823e-06
5.1968e-06
-1.96812e-07
5.20325e-06
1.31551e-07
5.22658e-06
2.32074e-07
5.23272e-06
-9.92974e-08
5.19991e-06
-5.87908e-07
5.17071e-06
-6.06939e-07
5.17067e-06
-1.42581e-07
5.19071e-06
1.71153e-07
5.21868e-06
2.14051e-07
5.22726e-06
5.09376e-08
5.22988e-06
-4.41082e-08
5.21959e-06
-1.80581e-07
5.20765e-06
-2.57847e-07
5.19711e-06
-2.09042e-07
5.17794e-06
-2.10843e-07
5.16579e-06
-1.88513e-07
5.15961e-06
-1.03883e-07
5.15235e-06
-3.92411e-08
5.14985e-06
5.39813e-09
5.14202e-08
5.15474e-06
5.44564e-06
-1.87261e-07
5.45232e-06
1.24865e-07
5.47432e-06
2.10076e-07
5.4813e-06
-1.06278e-07
5.44845e-06
-5.55059e-07
5.42033e-06
-5.78819e-07
5.42039e-06
-1.4264e-07
5.43947e-06
1.52071e-07
5.46667e-06
1.8685e-07
5.47577e-06
4.184e-08
5.47762e-06
-4.59571e-08
5.46749e-06
-1.70454e-07
5.45541e-06
-2.45763e-07
5.44507e-06
-1.98699e-07
5.42643e-06
-1.92206e-07
5.4137e-06
-1.75787e-07
5.40814e-06
-9.83137e-08
5.40174e-06
-3.2845e-08
5.39893e-06
8.20329e-09
4.75572e-08
5.4028e-06
5.70632e-06
-1.77625e-07
5.71349e-06
1.17694e-07
5.73357e-06
1.90004e-07
5.74164e-06
-1.14354e-07
5.70899e-06
-5.22409e-07
5.68165e-06
-5.51482e-07
5.68244e-06
-1.43429e-07
5.7003e-06
1.34211e-07
5.72641e-06
1.60739e-07
5.73605e-06
3.22044e-08
5.73719e-06
-4.70985e-08
5.72712e-06
-1.60382e-07
5.7149e-06
-2.33547e-07
5.70481e-06
-1.8861e-07
5.68684e-06
-1.74237e-07
5.67358e-06
-1.62525e-07
5.66853e-06
-9.32625e-08
5.66308e-06
-2.73951e-08
5.66008e-06
1.12062e-08
4.46103e-08
5.66302e-06
5.97942e-06
-1.67853e-07
5.98734e-06
1.09771e-07
6.00487e-06
1.72479e-07
6.01414e-06
-1.2362e-07
5.98219e-06
-4.90468e-07
5.95514e-06
-5.24432e-07
5.95722e-06
-1.45506e-07
5.97404e-06
1.17389e-07
5.99853e-06
1.36249e-07
6.00857e-06
2.2163e-08
6.00911e-06
-4.76372e-08
5.99899e-06
-1.50255e-07
5.9866e-06
-2.21163e-07
5.97683e-06
-1.7884e-07
5.95974e-06
-1.5714e-07
5.94602e-06
-1.48811e-07
5.9413e-06
-8.85413e-08
5.93693e-06
-2.30303e-08
5.93382e-06
1.43205e-08
4.24606e-08
5.93597e-06
6.26554e-06
-1.57907e-07
6.27445e-06
1.00858e-07
6.28913e-06
1.57806e-07
6.29916e-06
-1.33653e-07
6.26872e-06
-4.60024e-07
6.24135e-06
-4.97062e-07
6.24496e-06
-1.49115e-07
6.26129e-06
1.01058e-07
6.28356e-06
1.13976e-07
6.29363e-06
1.20907e-08
6.29378e-06
-4.77811e-08
6.28355e-06
-1.40027e-07
6.27101e-06
-2.08621e-07
6.26161e-06
-1.69445e-07
6.24566e-06
-1.41184e-07
6.23166e-06
-1.34814e-07
6.227e-06
-8.38812e-08
6.22383e-06
-1.98655e-08
6.2208e-06
1.73549e-08
4.10787e-08
6.22218e-06
6.56534e-06
-1.47773e-07
6.5754e-06
9.07911e-08
6.58761e-06
1.45594e-07
6.5972e-06
-1.43238e-07
6.56914e-06
-4.31962e-07
6.54098e-06
-4.68903e-07
6.54552e-06
-1.53654e-07
6.56161e-06
8.49677e-08
6.58126e-06
9.43201e-08
6.59113e-06
2.22066e-09
6.5914e-06
-4.805e-08
6.58128e-06
-1.29909e-07
6.56865e-06
-1.95982e-07
6.55973e-06
-1.60525e-07
6.54515e-06
-1.26612e-07
6.53114e-06
-1.20797e-07
6.52622e-06
-7.89672e-08
6.52433e-06
-1.79703e-08
6.52164e-06
2.00452e-08
4.04393e-08
6.52228e-06
6.87949e-06
-1.37473e-07
6.89079e-06
7.94909e-08
6.90108e-06
1.35309e-07
6.90893e-06
-1.51092e-07
6.88393e-06
-4.06966e-07
6.85496e-06
-4.39929e-07
6.8591e-06
-1.57791e-07
6.87491e-06
6.91527e-08
6.89226e-06
7.69724e-08
6.90176e-06
-7.28029e-09
6.90258e-06
-4.8865e-08
6.89288e-06
-1.2021e-07
6.88026e-06
-1.83368e-07
6.87184e-06
-1.52098e-07
6.85886e-06
-1.13636e-07
6.84505e-06
-1.06991e-07
6.83975e-06
-7.36646e-08
6.83889e-06
-1.71115e-08
6.8369e-06
2.20378e-08
4.04345e-08
6.8369e-06
7.20872e-06
-1.2706e-07
7.22123e-06
6.6983e-08
7.23009e-06
1.26448e-07
7.23535e-06
-1.56352e-07
7.21355e-06
-3.85165e-07
7.18428e-06
-4.10654e-07
7.18757e-06
-1.61085e-07
7.20359e-06
5.31309e-08
7.21865e-06
6.19127e-08
7.22704e-06
-1.56663e-08
7.22831e-06
-5.01387e-08
7.21926e-06
-1.11156e-07
7.20668e-06
-1.70793e-07
7.19872e-06
-1.44139e-07
7.18738e-06
-1.02288e-07
7.17409e-06
-9.37089e-08
7.16829e-06
-6.78633e-08
7.16814e-06
-1.6956e-08
7.16711e-06
2.30626e-08
4.08104e-08
7.16674e-06
7.55378e-06
-1.16614e-07
7.56738e-06
5.33818e-08
7.57532e-06
1.18515e-07
7.57761e-06
-1.58648e-07
7.55862e-06
-3.6617e-07
7.53018e-06
-3.82216e-07
7.53187e-06
-1.62773e-07
7.54841e-06
3.65877e-08
7.56149e-06
4.88323e-08
7.56805e-06
-2.22245e-08
7.56956e-06
-5.16538e-08
7.56132e-06
-1.02914e-07
7.54883e-06
-1.58305e-07
7.54121e-06
-1.36512e-07
7.53146e-06
-9.25372e-08
7.51893e-06
-8.11798e-08
7.51261e-06
-6.15456e-08
7.5128e-06
-1.71433e-08
7.51282e-06
2.3035e-08
4.12091e-08
7.51242e-06
7.91547e-06
-1.06269e-07
7.92981e-06
3.904e-08
7.93765e-06
1.10673e-07
7.93669e-06
-1.5769e-07
7.92041e-06
-3.49887e-07
7.8943e-06
-3.56107e-07
7.89499e-06
-1.63463e-07
7.91151e-06
2.00666e-08
7.92133e-06
3.90143e-08
7.92567e-06
-2.65615e-08
7.92724e-06
-5.32248e-08
7.91991e-06
-9.5586e-08
7.90762e-06
-1.4602e-07
7.90014e-06
-1.29029e-07
7.89185e-06
-8.42438e-08
7.8803e-06
-6.96347e-08
7.87353e-06
-5.47737e-08
7.87366e-06
-1.72771e-08
7.87467e-06
2.20328e-08
4.12553e-08
7.87462e-06
8.2946e-06
-9.61883e-08
8.3091e-06
2.45447e-08
8.31831e-06
1.01456e-07
8.31411e-06
-1.53483e-07
8.30029e-06
-3.36074e-07
8.27738e-06
-3.33197e-07
8.27668e-06
-1.62763e-07
8.28949e-06
7.26389e-09
8.2977e-06
3.07969e-08
8.30101e-06
-2.98696e-08
8.30238e-06
-5.4594e-08
8.29581e-06
-8.90129e-08
8.28387e-06
-1.34086e-07
8.27634e-06
-1.21492e-07
8.26932e-06
-7.72294e-08
8.25898e-06
-5.92934e-08
8.25184e-06
-4.76332e-08
8.25166e-06
-1.70967e-08
8.25341e-06
2.02847e-08
4.06858e-08
8.25398e-06
8.69203e-06
-8.65574e-08
8.70617e-06
1.04059e-08
8.71757e-06
9.0055e-08
8.7118e-06
-1.47714e-07
8.69644e-06
-3.20712e-07
8.67008e-06
-3.06838e-07
8.66386e-06
-1.56545e-07
8.67912e-06
-7.99584e-09
8.69165e-06
1.8264e-08
8.6951e-06
-3.33135e-08
8.69585e-06
-5.53492e-08
8.68977e-06
-8.29256e-08
8.67825e-06
-1.22568e-07
8.6706e-06
-1.13843e-07
8.66465e-06
-7.12854e-08
8.65567e-06
-5.0309e-08
8.64838e-06
-4.03432e-08
8.6477e-06
-1.64183e-08
8.64994e-06
1.80497e-08
3.93971e-08
8.65123e-06
9.10861e-06
-7.75499e-08
9.12184e-06
-2.81768e-09
9.13477e-06
7.71214e-08
9.12418e-06
-1.37126e-07
9.10634e-06
-3.02868e-07
9.0856e-06
-2.86101e-07
9.0795e-06
-1.50442e-07
9.09244e-06
-2.0936e-08
9.10483e-06
5.86907e-09
9.10834e-06
-3.68195e-08
9.10853e-06
-5.55371e-08
9.10279e-06
-7.71923e-08
9.09175e-06
-1.11528e-07
9.08398e-06
-1.06071e-07
9.07884e-06
-6.61449e-08
9.07128e-06
-4.27441e-08
9.06409e-06
-3.31601e-08
9.06275e-06
-1.50777e-08
9.06519e-06
1.56124e-08
3.74313e-08
9.06716e-06
9.54526e-06
-6.93495e-08
9.55671e-06
-1.42709e-08
9.57123e-06
6.26067e-08
9.55936e-06
-1.25259e-07
9.54105e-06
-2.8456e-07
9.52254e-06
-2.67585e-07
9.51607e-06
-1.43974e-07
9.5263e-06
-3.11663e-08
9.53782e-06
-5.64762e-09
9.54138e-06
-4.03811e-08
9.54127e-06
-5.54255e-08
9.53586e-06
-7.17893e-08
9.52529e-06
-1.00952e-07
9.51747e-06
-9.82487e-08
9.51285e-06
-6.15312e-08
9.50666e-06
-3.65516e-08
9.49993e-06
-2.64314e-08
9.49781e-06
-1.29619e-08
9.50016e-06
1.32625e-08
3.48888e-08
9.50271e-06
1.00029e-05
-6.2066e-08
1.00122e-05
-2.36484e-08
1.00284e-05
4.64756e-08
1.00168e-05
-1.13688e-07
9.99692e-06
-2.64688e-07
9.98001e-06
-2.5068e-07
9.97376e-06
-1.37717e-07
9.98153e-06
-3.89371e-08
9.99154e-06
-1.56647e-08
9.99517e-06
-4.40086e-08
9.995e-06
-5.52573e-08
9.98995e-06
-6.67359e-08
9.97983e-06
-9.08333e-08
9.97196e-06
-9.03835e-08
9.96767e-06
-5.72386e-08
9.96271e-06
-3.15938e-08
9.9567e-06
-2.04149e-08
9.95398e-06
-1.0245e-08
9.95592e-06
1.13263e-08
3.19196e-08
9.95889e-06
1.04824e-05
-5.57868e-08
1.04897e-05
-3.10263e-08
1.05067e-05
2.94861e-08
1.04964e-05
-1.03358e-07
1.04751e-05
-2.43356e-07
1.0459e-05
-2.34574e-07
1.04533e-05
-1.32084e-07
1.04591e-05
-4.47513e-08
1.04673e-05
-2.38282e-08
1.04707e-05
-4.73733e-08
1.04706e-05
-5.52102e-08
1.0466e-05
-6.21013e-08
1.04564e-05
-8.12284e-08
1.04485e-05
-8.25125e-08
1.04444e-05
-5.30981e-08
1.04405e-05
-2.7684e-08
1.04353e-05
-1.52908e-08
1.04323e-05
-7.19688e-09
1.04336e-05
1.0015e-08
2.87603e-08
1.04368e-05
1.09848e-05
-5.05502e-08
1.09901e-05
-3.63949e-08
1.10074e-05
1.22304e-08
1.0999e-05
-9.49182e-08
1.09763e-05
-2.2069e-07
1.09604e-05
-2.18672e-07
1.09556e-05
-1.273e-07
1.09601e-05
-4.92063e-08
1.09663e-05
-3.00642e-08
1.0969e-05
-5.00816e-08
1.09691e-05
-5.52926e-08
1.0965e-05
-5.8035e-08
1.0956e-05
-7.22406e-08
1.09482e-05
-7.46604e-08
1.09441e-05
-4.90473e-08
1.0941e-05
-2.45113e-08
1.09368e-05
-1.11221e-08
1.09337e-05
-4.13054e-09
1.09344e-05
9.37785e-09
2.56939e-08
1.09374e-05
1.15111e-05
-4.63173e-08
1.15146e-05
-3.9816e-08
1.15314e-05
-4.64156e-09
1.1525e-05
-8.84623e-08
1.15014e-05
-1.971e-07
1.14854e-05
-2.02686e-07
1.14816e-05
-1.2348e-07
1.14853e-05
-5.29807e-08
1.14898e-05
-3.45012e-08
1.14915e-05
-5.17547e-08
1.14915e-05
-5.53125e-08
1.14881e-05
-5.46435e-08
1.14798e-05
-6.39677e-08
1.14721e-05
-6.69603e-08
1.14681e-05
-4.50037e-08
1.14654e-05
-2.18331e-08
1.14622e-05
-7.8843e-09
1.14593e-05
-1.31288e-09
1.14594e-05
9.30545e-09
2.29942e-08
1.14621e-05
1.20625e-05
-4.29573e-08
1.2064e-05
-4.14031e-08
1.20796e-05
-2.01454e-08
1.20748e-05
-8.37154e-08
1.20515e-05
-1.7384e-07
1.20354e-05
-1.86525e-07
1.20323e-05
-1.2037e-07
1.20358e-05
-5.65504e-08
1.20388e-05
-3.75028e-08
1.20393e-05
-5.22058e-08
1.2039e-05
-5.50132e-08
1.20362e-05
-5.18924e-08
1.20289e-05
-5.65969e-08
1.20214e-05
-5.94938e-08
1.20173e-05
-4.09379e-08
1.2015e-05
-1.95079e-08
1.20125e-05
-5.36215e-09
1.20102e-05
1.01489e-09
1.20099e-05
9.61748e-09
2.08275e-08
1.2012e-05
1.26399e-05
-4.02578e-08
1.26396e-05
-4.10682e-08
1.26521e-05
-3.27338e-08
1.26497e-05
-8.12874e-08
1.26284e-05
-1.52498e-07
1.26119e-05
-1.70091e-07
1.26089e-05
-1.17337e-07
1.26125e-05
-6.01871e-08
1.26146e-05
-3.96002e-08
1.26139e-05
-5.1474e-08
1.2613e-05
-5.40598e-08
1.26107e-05
-4.96247e-08
1.26043e-05
-5.02469e-08
1.25972e-05
-5.23907e-08
1.25932e-05
-3.6858e-08
1.25911e-05
-1.74414e-08
1.25892e-05
-3.42371e-09
1.25873e-05
2.90404e-09
1.25868e-05
1.00397e-08
1.91753e-08
1.25885e-05
1.32446e-05
-3.79584e-08
1.32423e-05
-3.8714e-08
1.32515e-05
-4.19282e-08
1.32518e-05
-8.16185e-08
1.32333e-05
-1.33973e-07
1.32165e-05
-1.53356e-07
1.32128e-05
-1.13611e-07
1.32165e-05
-6.38506e-08
1.32183e-05
-4.1378e-08
1.32165e-05
-4.97561e-08
1.32147e-05
-5.22638e-08
1.32127e-05
-4.75944e-08
1.32074e-05
-4.48887e-08
1.32008e-05
-4.58456e-08
1.31968e-05
-3.28013e-08
1.31949e-05
-1.55549e-08
1.31934e-05
-1.95703e-09
1.31919e-05
4.41369e-09
1.31915e-05
1.04285e-08
1.78975e-08
1.31928e-05
1.38781e-05
-3.58651e-08
1.38756e-05
-3.62786e-08
1.38809e-05
-4.72418e-08
1.38826e-05
-8.32549e-08
1.38673e-05
-1.1867e-07
1.38505e-05
-1.36623e-07
1.38456e-05
-1.0863e-07
1.38489e-05
-6.7169e-08
1.38507e-05
-4.32327e-08
1.38485e-05
-4.7498e-08
1.38458e-05
-4.96078e-08
1.38437e-05
-4.54948e-08
1.38392e-05
-4.03844e-08
1.38334e-05
-3.99789e-08
1.38295e-05
-2.89049e-08
1.38276e-05
-1.3735e-08
1.38266e-05
-8.92269e-10
1.38254e-05
5.56119e-09
1.38251e-05
1.07869e-08
1.6815e-08
1.38262e-05
1.45416e-05
-3.37868e-08
1.45391e-05
-3.38412e-08
1.45415e-05
-4.9557e-08
1.45433e-05
-8.51295e-08
1.45314e-05
-1.06686e-07
1.45153e-05
-1.20523e-07
1.45088e-05
-1.02189e-07
1.45112e-05
-6.9552e-08
1.45132e-05
-4.52807e-08
1.4511e-05
-4.52346e-08
1.45076e-05
-4.62311e-08
1.45051e-05
-4.30336e-08
1.45014e-05
-3.66066e-08
1.44962e-05
-3.47841e-08
1.44925e-05
-2.52712e-08
1.44908e-05
-1.19916e-08
1.449e-05
-1.08408e-10
1.44892e-05
6.32953e-09
1.44889e-05
1.11315e-08
1.58485e-08
1.44899e-05
1.52367e-05
-3.16144e-08
1.52351e-05
-3.22327e-08
1.52348e-05
-4.93036e-08
1.52356e-05
-8.59209e-08
1.52267e-05
-9.77276e-08
1.52119e-05
-1.05768e-07
1.52042e-05
-9.4416e-08
1.52051e-05
-7.04551e-08
1.52071e-05
-4.73617e-08
1.52052e-05
-4.33478e-08
1.52015e-05
-4.24633e-08
1.51986e-05
-4.01094e-08
1.51952e-05
-3.32729e-08
1.51907e-05
-3.02891e-08
1.51873e-05
-2.18674e-08
1.51858e-05
-1.04438e-08
1.51851e-05
5.25715e-10
1.51847e-05
6.74319e-09
1.51845e-05
1.13763e-08
1.50454e-08
1.51853e-05
1.5965e-05
-2.9302e-08
1.59643e-05
-3.14894e-08
1.59623e-05
-4.72977e-08
1.59612e-05
-8.48817e-08
1.59546e-05
-9.11471e-08
1.59418e-05
-9.29594e-08
1.59331e-05
-8.56858e-08
1.59323e-05
-6.96291e-08
1.5934e-05
-4.90297e-08
1.59326e-05
-4.19774e-08
1.59289e-05
-3.87376e-08
1.59255e-05
-3.67699e-08
1.59224e-05
-3.01389e-08
1.59185e-05
-2.64135e-08
1.59154e-05
-1.87826e-08
1.5914e-05
-9.00393e-09
1.59135e-05
9.92395e-10
1.59134e-05
6.90676e-09
1.59133e-05
1.14058e-08
1.44224e-08
1.59139e-05
1.67282e-05
-2.68597e-08
1.67277e-05
-3.10311e-08
1.67249e-05
-4.44808e-08
1.6722e-05
-8.19474e-08
1.67169e-05
-8.6079e-08
1.67063e-05
-8.23617e-08
1.66972e-05
-7.66227e-08
1.66947e-05
-6.70855e-08
1.66954e-05
-4.97739e-08
1.66945e-05
-4.10603e-08
1.66911e-05
-3.53754e-08
1.66876e-05
-3.32056e-08
1.66845e-05
-2.70563e-08
1.66811e-05
-2.30104e-08
1.66784e-05
-1.60573e-08
1.6677e-05
-7.64014e-09
1.66767e-05
1.32341e-09
1.66767e-05
6.86906e-09
1.66769e-05
1.12102e-08
1.38685e-08
1.66775e-05
1.75279e-05
-2.43635e-08
1.75277e-05
-3.08585e-08
1.75245e-05
-4.12441e-08
1.75197e-05
-7.72236e-08
1.75151e-05
-8.14917e-08
1.75067e-05
-7.39681e-08
1.7498e-05
-6.78687e-08
1.74939e-05
-6.30385e-08
1.74934e-05
-4.92723e-08
1.74927e-05
-4.02656e-08
1.74898e-05
-3.25509e-08
1.74863e-05
-2.96931e-08
1.74833e-05
-2.39922e-08
1.74802e-05
-1.99472e-08
1.74778e-05
-1.36267e-08
1.74765e-05
-6.42574e-09
1.74763e-05
1.60772e-09
1.74765e-05
6.65281e-09
1.74769e-05
1.08307e-08
1.32621e-08
1.74775e-05
1.83659e-05
-2.18995e-08
1.83655e-05
-3.05166e-08
1.83624e-05
-3.81136e-08
1.83563e-05
-7.11553e-08
1.83515e-05
-7.6613e-08
1.83449e-05
-6.74009e-08
1.83369e-05
-5.99165e-08
1.83318e-05
-5.78819e-08
1.833e-05
-4.7476e-08
1.83289e-05