/*--------------------------------*- C++ -*----------------------------------*\
| =========                 |                                                 |
| \\      /  F ield         | OpenFOAM: The Open Source CFD Toolbox           |
|  \\    /   O peration     | Version:  v1906                                 |
|   \\  /    A nd           | Web:      www.OpenFOAM.com                      |
|    \\/     M anipulation  |                                                 |
\*---------------------------------------------------------------------------*/
FoamFile
{
    version     2.0;
    format      ascii;
    class       volScalarField;
    location    "2.8";
    object      p;
}
// * * * * * * * * * * * * * * * * * * * * * * * * * * * * * * * * * * * * * //

dimensions      [0 2 -2 0 0 0 0];


internalField   nonuniform List<scalar> 
9600
(
-1.00485e-10
-0.000833982
-0.000980151
-0.00200201
-5.17121e-05
0.00200292
-0.000455307
-0.00194614
-0.000793552
-0.000100214
0.000110072
0.0018433
0.00265138
0.0032944
0.0045974
0.00506827
0.00747048
0.00809844
0.0118338
0.0166039
1.84915e-06
-0.000841787
-0.000980893
-0.00198787
-5.15195e-05
0.00195959
-0.000446562
-0.00194776
-0.000790985
-7.5708e-05
0.00010187
0.0018443
0.00265702
0.00327786
0.00459063
0.00500223
0.00747697
0.00802665
0.0118936
0.016132
3.03663e-06
-0.000850761
-0.000979366
-0.00197309
-6.0412e-05
0.00191199
-0.000436569
-0.00194837
-0.00078054
-5.63645e-05
9.04269e-05
0.00184402
0.00265985
0.00324977
0.00456925
0.00494559
0.00747581
0.00795912
0.0119026
0.0155138
2.81442e-06
-0.000859081
-0.000977375
-0.00196025
-6.95051e-05
0.00186102
-0.000433533
-0.00194367
-0.000764219
-4.39544e-05
8.09867e-05
0.00183791
0.00266177
0.00321788
0.00454535
0.0048883
0.00746833
0.00789824
0.0118373
0.0149923
1.51684e-06
-0.000866642
-0.000975579
-0.00194764
-7.47073e-05
0.00180528
-0.000435546
-0.00193174
-0.000743455
-3.70132e-05
7.22626e-05
0.00182728
0.00266594
0.00318408
0.00452346
0.00482605
0.00746416
0.00783402
0.0117444
0.0145274
-6.07249e-07
-0.00087335
-0.000974002
-0.00193443
-7.62107e-05
0.0017457
-0.00043968
-0.00191285
-0.000719919
-3.42851e-05
6.2981e-05
0.00181496
0.00267122
0.00314793
0.00450373
0.0047624
0.00745922
0.00777013
0.011624
0.0140908
-3.33736e-06
-0.000879232
-0.000972702
-0.00192035
-7.45785e-05
0.00168326
-0.000444226
-0.00188816
-0.000694794
-3.38676e-05
5.27919e-05
0.00180202
0.0026763
0.0031089
0.00448638
0.00469931
0.0074478
0.00771048
0.0114673
0.0136753
-6.4367e-06
-0.000884543
-0.000971664
-0.00190528
-7.07069e-05
0.00161835
-0.000448031
-0.00185914
-0.000668549
-3.403e-05
4.15839e-05
0.00178882
0.00268103
0.00306635
0.00447083
0.004638
0.00742684
0.00765674
0.0112709
0.0132781
-9.72626e-06
-0.000889618
-0.000970762
-0.00188934
-6.60033e-05
0.00155119
-0.000450496
-0.00182717
-0.000641372
-3.37662e-05
2.93431e-05
0.00177559
0.00268531
0.00302001
0.00445546
0.00458025
0.00739386
0.00760918
0.0110346
0.0128947
-1.31066e-05
-0.000894741
-0.000969882
-0.00187288
-6.16496e-05
0.00148209
-0.000451535
-0.00179334
-0.000613425
-3.25969e-05
1.59345e-05
0.00176222
0.0026891
0.00297018
0.00443836
0.00452794
0.00734608
0.00756646
0.0107603
0.01252
-1.65317e-05
-0.000900113
-0.000968964
-0.00185616
-5.82669e-05
0.00141138
-0.000451326
-0.00175856
-0.000584962
-3.02224e-05
1.04971e-06
0.00174857
0.00269244
0.0029174
0.00441761
0.0044822
0.00728083
0.00752631
0.0104524
0.0121479
-1.9982e-05
-0.000905867
-0.000967985
-0.00183933
-5.60712e-05
0.00133934
-0.0004501
-0.00172353
-0.000556388
-2.63729e-05
-1.56464e-05
0.00173454
0.00269501
0.00286248
0.00439153
0.00444299
0.00719634
0.00748656
0.0101164
0.0117731
-2.34446e-05
-0.000912083
-0.000966941
-0.0018224
-5.50815e-05
0.0012662
-0.000448105
-0.0016887
-0.000528124
-2.07824e-05
-3.4476e-05
0.00171993
0.00269631
0.00280644
0.00435858
0.00440945
0.00709202
0.00744682
0.00975793
0.011381
-2.69065e-05
-0.000918813
-0.000965842
-0.00180532
-5.52529e-05
0.00119222
-0.00044559
-0.0016543
-0.000500565
-1.31631e-05
-5.57594e-05
0.00170452
0.00269592
0.00275014
0.00431728
0.00438036
0.00696849
0.00739475
0.00938257
0.0109731
-3.03577e-05
-0.000926089
-0.000964712
-0.00178801
-5.65538e-05
0.00111761
-0.000442805
-0.00162046
-0.000474129
-3.18778e-06
-7.97958e-05
0.0016882
0.00269348
0.00269419
0.00426649
0.00435401
0.00682725
0.00732857
0.00899641
0.0105479
-3.37958e-05
-0.000933929
-0.000963584
-0.0017704
-5.90065e-05
0.00104263
-0.000440004
-0.00158716
-0.000449286
9.49019e-06
-0.00010683
0.00167086
0.00268872
0.00263873
0.00420586
0.0043283
0.00666994
0.00724523
0.00860506
0.0101059
-3.72288e-05
-0.000942336
-0.000962499
-0.00175244
-6.27029e-05
0.000967518
-0.000437438
-0.00155427
-0.000426577
2.51641e-05
-0.000136976
0.00165213
0.00268165
0.0025835
0.00413567
0.00430046
0.00649833
0.00714208
0.00821249
0.00964823
-4.0675e-05
-0.000951299
-0.000961508
-0.00173407
-6.78046e-05
0.00089258
-0.000435377
-0.00152164
-0.00040651
4.40309e-05
-0.000170214
0.00163157
0.00267233
0.00252789
0.00405669
0.00426752
0.00631396
0.00701872
0.0078216
0.00917572
-4.41617e-05
-0.000960792
-0.00096068
-0.0017152
-7.45299e-05
0.000818135
-0.000434123
-0.00148907
-0.000389591
6.62176e-05
-0.000206385
0.00160861
0.00266107
0.00247071
0.00397003
0.00422791
0.00611751
0.00687503
0.0074344
0.00868927
-4.77274e-05
-0.000970764
-0.000960107
-0.00169577
-8.31313e-05
0.000744535
-0.000434039
-0.00145635
-0.000376311
9.16798e-05
-0.000245081
0.00158222
0.00264876
0.00241069
0.00387632
0.00418095
0.00590848
0.00671125
0.00705328
0.00818995
-5.14281e-05
-0.000981134
-0.000959901
-0.00167566
-9.39035e-05
0.000672144
-0.000435477
-0.00142335
-0.00036697
0.000120197
-0.000285584
0.00155098
0.00263634
0.00234656
0.00377529
0.00412659
0.00568613
0.00652781
0.00668125
0.00767886
-5.53354e-05
-0.000991796
-0.000960201
-0.00165474
-0.000107162
0.000601285
-0.000438739
-0.00138998
-0.000361891
0.000151331
-0.000326734
0.00151332
0.00262451
0.00227747
0.00366587
0.00406589
0.00545019
0.00632346
0.0063219
0.00715823
-5.95357e-05
-0.00100262
-0.000961186
-0.00163289
-0.000123212
0.000532301
-0.00044417
-0.00135611
-0.000361337
0.000184328
-0.000367019
0.00146756
0.00261373
0.00220337
0.00354652
0.00400048
0.00520068
0.00609546
0.00597922
0.00663199
-6.41423e-05
-0.00101344
-0.000963042
-0.00160995
-0.000142358
0.00046552
-0.000452043
-0.00132193
-0.000365178
0.000218126
-0.000404837
0.00141222
0.00260389
0.00212492
0.00341511
0.00393139
0.00493931
0.00584083
0.00565558
0.00610607
-6.92971e-05
-0.001024
-0.000965985
-0.00158581
-0.00016487
0.000401114
-0.000462511
-0.00128765
-0.000373151
0.000251322
-0.000438513
0.0013461
0.00259433
0.0020434
0.00326874
0.00385875
0.00467028
0.00555601
0.00535018
0.00558966
-7.51721e-05
-0.00103404
-0.000970254
-0.0015604
-0.000190969
0.000339172
-0.000475635
-0.00125358
-0.00038486
0.00028247
-0.000466598
0.00126823
0.00258357
0.00196072
0.00310481
0.0037813
0.00439985
0.00523855
0.00505883
0.00509465
-8.19743e-05
-0.00104321
-0.000976089
-0.00153369
-0.000220838
0.000279755
-0.00049125
-0.0012204
-0.000399491
0.000310038
-0.000488226
0.00117834
0.00256951
0.00187927
0.00292129
0.00369569
0.00413569
0.0048892
0.00477294
0.00463308
-8.99343e-05
-0.00105118
-0.000983711
-0.00150569
-0.000254535
0.000222757
-0.000508943
-0.00118906
-0.000416092
0.000332665
-0.000503288
0.00107693
0.00254964
0.00180123
0.00271719
0.00359705
0.00388464
0.00451167
0.00448076
0.00421519
-9.9306e-05
-0.00105753
-0.000993323
-0.00147652
-0.000291986
0.000167784
-0.000527902
-0.00116068
-0.000434161
0.000349516
-0.000512102
0.000965022
0.00252077
0.00172847
0.00249341
0.00347948
0.00365141
0.0041134
0.00416909
0.00384489
-0.000110385
-0.00106189
-0.00100502
-0.00144637
-0.000333061
0.000114343
-0.000547023
-0.00113639
-0.000453646
0.000359535
-0.000515126
0.000843993
0.00247976
0.00166245
0.00225202
0.00333664
0.00343839
0.00370605
0.00382577
0.00351508
-0.000123462
-0.00106392
-0.00101887
-0.00141556
-0.000377297
6.16524e-05
-0.00056524
-0.00111691
-0.000474795
0.000360823
-0.000513244
0.000715135
0.00242369
0.00160376
0.0019965
0.00316311
0.0032445
0.00330322
0.003445
0.0032094
-0.00013881
-0.00106325
-0.0010349
-0.00138463
-0.000423862
8.50582e-06
-0.000581608
-0.0011023
-0.000498405
0.000356495
-0.000507762
0.000579541
0.00234981
0.00155221
0.00173182
0.00295513
0.00306477
0.00291796
0.00303004
0.00290413
-0.000156732
-0.00105957
-0.00105289
-0.00135436
-0.000471759
-4.61273e-05
-0.000595629
-0.00109207
-0.000525422
0.000345234
-0.000499785
0.000438461
0.00225553
0.00150672
0.00146347
0.00271083
0.00289181
0.00256056
0.00259101
0.00257585
-0.000177506
-0.00105259
-0.00107241
-0.00132576
-0.000519768
-0.000102997
-0.000607497
-0.00108516
-0.000556681
0.000325659
-0.000490359
0.000293319
0.00213818
0.00146569
0.0011978
0.00242995
0.002717
0.00223654
0.00214147
0.00221163
-0.000201317
-0.00104218
-0.00109273
-0.0013001
-0.000566931
-0.000162447
-0.00061791
-0.00108061
-0.000592941
0.000296862
-0.000480491
0.000145167
0.00199548
0.00142696
0.000941619
0.00211405
0.00253131
0.00194714
0.00169535
0.00181116
-0.000228282
-0.00102748
-0.00111277
-0.00127833
-0.000612688
-0.000224083
-0.000627971
-0.00107798
-0.000634738
0.000257995
-0.000471427
-5.0483e-06
0.00182634
0.00138693
0.000702084
0.0017674
0.00232503
0.0016906
0.00126508
0.00138116
-0.00025846
-0.00101229
-0.00113126
-0.00126093
-0.000657054
-0.000287468
-0.000638623
-0.00107715
-0.000682427
0.000208103
-0.000464873
-0.000156146
0.00163087
0.00134086
0.000486106
0.00139688
0.0020886
0.00146257
0.000861033
0.000930468
-0.000291799
-0.00099658
-0.00114693
-0.00124722
-0.000700907
-0.00035261
-0.000650462
-0.00107819
-0.000736452
0.000146215
-0.000461968
-0.000306128
0.00141052
0.00128346
0.000297822
0.00101124
0.00181403
0.0012552
0.000492113
0.00046945
-0.000328231
-0.000981007
-0.00115886
-0.00123612
-0.000745084
-0.000420177
-0.000664555
-0.00108117
-0.000796763
7.16885e-05
-0.000462816
-0.00045143
0.00116827
0.00120832
0.000137699
0.000620681
0.00149617
0.00105655
0.000165696
1.10158e-05
-0.000367558
-0.000966365
-0.0011666
-0.00122684
-0.000789827
-0.000491525
-0.00068334
-0.00108563
-0.000861989
-1.55751e-05
-0.000468652
-0.000588099
0.000907877
0.00110779
2.73348e-06
0.000236871
0.00113488
0.000851739
-0.000114852
-0.000429436
-0.000409198
-0.000953452
-0.00117064
-0.00121876
-0.000834574
-0.000567892
-0.000709639
-0.00109119
-0.000930023
-0.000115424
-0.000481439
-0.000713165
0.000633919
0.000975614
-0.000112978
-0.000128555
0.000735676
0.000624972
-0.00035392
-0.00083609
-0.000452346
-0.000942906
-0.00117203
-0.00121171
-0.000877939
-0.000649485
-0.000746568
-0.00109746
-0.000999495
-0.000227004
-0.000502819
-0.000825139
0.00035192
0.000809131
-0.000217517
-0.000466864
0.000308479
0.000363303
-0.000563277
-0.00119639
-0.000496452
-0.000934759
-0.00117191
-0.00120581
-0.000919411
-0.00073443
-0.000795389
-0.00111063
-0.00107049
-0.00034794
-0.000534256
-0.00092396
6.81427e-05
0.000608384
-0.000320141
-0.000772664
-0.000134046
5.96028e-05
-0.000759529
-0.00150494
-0.000541267
-0.00092862
-0.00117087
-0.00120237
-0.000958425
-0.000821446
-0.000858507
-0.00114024
-0.00114232
-0.000474762
-0.00057737
-0.00101131
-0.000210581
0.000375764
-0.000430351
-0.00104414
-0.000578291
-0.000286408
-0.00096002
-0.0017653
-0.000586328
-0.000924664
-0.00116958
-0.00120289
-0.000994546
-0.000909997
-0.000939217
-0.00117575
-0.00121109
-0.000606953
-0.000635803
-0.00109116
-0.000479545
0.000116021
-0.000556791
-0.00128346
-0.00101086
-0.000669543
-0.00118004
-0.00198845
-0.000630963
-0.000923362
-0.0011695
-0.00121037
-0.00103419
-0.000996076
-0.00102307
-0.00121639
-0.0012792
-0.000745596
-0.000714157
-0.00117129
-0.000737915
-0.000165249
-0.000705626
-0.0014961
-0.00142029
-0.00108078
-0.00143079
-0.00218963
-0.000674933
-0.000925136
-0.00117161
-0.00122675
-0.00107755
-0.00107497
-0.00110778
-0.00126772
-0.00134904
-0.000888263
-0.000812558
-0.00125616
-0.000984998
-0.000462111
-0.000880066
-0.00168967
-0.00179801
-0.00150724
-0.00171716
-0.00238533
-0.000718251
-0.000930352
-0.00117606
-0.00125357
-0.0011247
-0.00114858
-0.00119459
-0.00132911
-0.00142094
-0.00103444
-0.000930319
-0.00134798
-0.00121869
-0.000767673
-0.00108095
-0.00187287
-0.00214027
-0.00193497
-0.00203793
-0.00259055
-0.000760905
-0.000939408
-0.00118243
-0.00128362
-0.00117855
-0.00121978
-0.00128058
-0.00139874
-0.00149958
-0.0011837
-0.00106353
-0.00144793
-0.00143958
-0.00107648
-0.00130782
-0.00205515
-0.00244864
-0.00235153
-0.00238666
-0.00281577
-0.000802913
-0.000952549
-0.00119083
-0.00131988
-0.00124029
-0.0012903
-0.00136481
-0.00147576
-0.00158527
-0.00133503
-0.00120889
-0.00155781
-0.00165053
-0.00138452
-0.00155815
-0.00224462
-0.0027276
-0.00274638
-0.00275267
-0.00306549
-0.000844218
-0.000969974
-0.00120213
-0.00135951
-0.00130983
-0.00136292
-0.0014476
-0.00155776
-0.00167694
-0.00148888
-0.00136687
-0.0016794
-0.00185257
-0.00168743
-0.00182722
-0.0024467
-0.00298383
-0.00311358
-0.00312489
-0.00333908
-0.000884853
-0.000992065
-0.00121721
-0.00140176
-0.00138662
-0.00144029
-0.00152969
-0.00164325
-0.00177397
-0.0016453
-0.00153725
-0.00181409
-0.00204665
-0.00198131
-0.00210958
-0.00266408
-0.00322605
-0.00345261
-0.00349357
-0.00363167
-0.000925123
-0.00101917
-0.0012372
-0.00144456
-0.00146856
-0.00152433
-0.00161344
-0.00173187
-0.00187583
-0.00180365
-0.00171764
-0.00196303
-0.00223609
-0.00226341
-0.00239939
-0.00289666
-0.00346145
-0.00376508
-0.00385057
-0.00393697
-0.000965583
-0.00105158
-0.00126285
-0.00148762
-0.00155283
-0.00161592
-0.00170227
-0.00182385
-0.00198158
-0.0019634
-0.00190573
-0.00212565
-0.00242456
-0.00253351
-0.00269133
-0.0031426
-0.00369466
-0.00405418
-0.00419056
-0.00424887
-0.00100697
-0.00108902
-0.00129467
-0.00153136
-0.00163744
-0.00171489
-0.00179882
-0.0019202
-0.00209007
-0.0021235
-0.00210024
-0.0023011
-0.00261437
-0.00279313
-0.00298099
-0.00339875
-0.00392958
-0.00432464
-0.0045106
-0.00456101
-0.00104991
-0.00113106
-0.00133294
-0.00157697
-0.00172127
-0.00181982
-0.00190424
-0.002023
-0.00220164
-0.00228195
-0.00229892
-0.00248916
-0.00280723
-0.003043
-0.00326476
-0.00366043
-0.00416882
-0.00458229
-0.00480975
-0.00486756
-0.00109488
-0.0011772
-0.00137784
-0.00162644
-0.00180415
-0.00192826
-0.00201828
-0.00213432
-0.00231771
-0.002438
-0.00249781
-0.00268755
-0.00300543
-0.00328446
-0.00354118
-0.00392358
-0.0044115
-0.00483242
-0.0050893
-0.00516337
-0.00114239
-0.00122706
-0.00142941
-0.00168155
-0.00188648
-0.00203806
-0.00214024
-0.00225508
-0.00243937
-0.00259288
-0.00269432
-0.00289159
-0.00320959
-0.00352028
-0.00381025
-0.00418628
-0.00465468
-0.00507758
-0.00535267
-0.00544413
-0.00119297
-0.0012806
-0.00148709
-0.00174327
-0.00196936
-0.00214793
-0.00226834
-0.00238542
-0.00256777
-0.00274724
-0.00288817
-0.00309804
-0.00341742
-0.0037523
-0.00407153
-0.00444713
-0.0048969
-0.00531778
-0.00560422
-0.00570857
-0.0012471
-0.00133787
-0.00155014
-0.00181201
-0.00205481
-0.00225763
-0.00239977
-0.00252432
-0.00270473
-0.00290174
-0.00307833
-0.00330557
-0.00362698
-0.00398025
-0.00432443
-0.00470388
-0.00513842
-0.00555296
-0.0058468
-0.00595869
-0.00130523
-0.00139911
-0.00161793
-0.00188759
-0.00214465
-0.00236795
-0.00253249
-0.00266964
-0.00285068
-0.00305886
-0.00326399
-0.00351136
-0.00383736
-0.00420366
-0.00456905
-0.00495425
-0.00537794
-0.00578355
-0.00608077
-0.00619731
-0.0013677
-0.00146469
-0.0016902
-0.00196958
-0.00223985
-0.00247987
-0.00266592
-0.00281895
-0.00300355
-0.00322052
-0.00344694
-0.00371237
-0.00404608
-0.00442237
-0.00480509
-0.0051972
-0.00561276
-0.00600944
-0.00630615
-0.00642612
-0.00143479
-0.00153498
-0.00176703
-0.00205726
-0.00234061
-0.00259458
-0.00280014
-0.00297065
-0.00316134
-0.00338557
-0.00362904
-0.00390892
-0.00425007
-0.00463511
-0.00503127
-0.00543161
-0.00584137
-0.00622964
-0.00652344
-0.00664504
-0.00150667
-0.00161032
-0.00184872
-0.00214993
-0.00244658
-0.00271323
-0.00293561
-0.0031234
-0.0033228
-0.00355266
-0.00380921
-0.0041018
-0.00444843
-0.00483995
-0.00524621
-0.00565463
-0.00606201
-0.00644247
-0.00673236
-0.0068535
-0.00158356
-0.00169096
-0.0019355
-0.00224721
-0.00255738
-0.00283634
-0.00307302
-0.00327632
-0.00348611
-0.00372169
-0.0039862
-0.00428917
-0.00464078
-0.00503556
-0.00544893
-0.00586361
-0.00627096
-0.00664548
-0.00693132
-0.00705075
-0.00166572
-0.00177709
-0.00202765
-0.00234904
-0.0026725
-0.00296368
-0.00321311
-0.00342981
-0.00364931
-0.00389116
-0.00416056
-0.00446898
-0.00482449
-0.00522036
-0.005638
-0.00605755
-0.00646533
-0.00683626
-0.00711851
-0.00723694
-0.00175336
-0.00186874
-0.00212527
-0.00245574
-0.00279173
-0.00309476
-0.00335577
-0.00358439
-0.0038121
-0.00405842
-0.00433152
-0.00464159
-0.00499693
-0.00539174
-0.00581082
-0.00623429
-0.00664276
-0.00701179
-0.0072922
-0.00741091
-0.00184661
-0.0019658
-0.00222838
-0.00256739
-0.00291506
-0.00322954
-0.00350082
-0.00373962
-0.00397469
-0.00422284
-0.00449652
-0.00480649
-0.00515738
-0.00554707
-0.00596422
-0.00638939
-0.00679896
-0.00716723
-0.0074481
-0.00756917
-0.00194565
-0.00206837
-0.00233682
-0.00268402
-0.0030423
-0.0033678
-0.0036487
-0.00389543
-0.00413636
-0.0043851
-0.0046552
-0.00496125
-0.00530434
-0.00568358
-0.00609369
-0.00651701
-0.00692767
-0.00729664
-0.00758018
-0.0077065
-0.00205064
-0.0021764
-0.00245039
-0.00280548
-0.00317364
-0.00350931
-0.00379932
-0.00405284
-0.00429705
-0.00454455
-0.00480897
-0.00510553
-0.00543564
-0.00579868
-0.00619254
-0.00660675
-0.00701649
-0.00738862
-0.00767946
-0.00781736
-0.00216165
-0.00228993
-0.00256921
-0.00293112
-0.0033086
-0.00365448
-0.00395302
-0.0042127
-0.00445833
-0.00470105
-0.00495719
-0.00523998
-0.00555004
-0.00589009
-0.00625732
-0.00664814
-0.00704567
-0.0074173
-0.00771883
-0.00787998
-0.00227904
-0.00240983
-0.00269236
-0.00306038
-0.0034468
-0.00380291
-0.00411098
-0.00437699
-0.00462277
-0.00485707
-0.0050986
-0.00536128
-0.00564414
-0.0059527
-0.00628612
-0.0066401
-0.00700832
-0.00736169
-0.00765563
-0.00783022
-0.002402
-0.00253428
-0.00281994
-0.00319374
-0.00358806
-0.00395394
-0.00427337
-0.0045494
-0.0047982
-0.00502201
-0.00523849
-0.00546782
-0.00570733
-0.00596915
-0.00626212
-0.00658094
-0.00691991
-0.00724584
-0.00751746
-0.00766549
-0.00252883
-0.00266224
-0.00295322
-0.00333146
-0.00373018
-0.0041045
-0.00443767
-0.00473022
-0.00499466
-0.00522514
-0.00541685
-0.00557824
-0.00570783
-0.00582658
-0.00598879
-0.00622744
-0.00656072
-0.00697696
-0.00741603
-0.00778137
-0.00266184
-0.002799
-0.00309155
-0.0034695
-0.00386834
-0.00424739
-0.00459359
-0.0049097
-0.0052019
-0.00547388
-0.00573656
-0.00597791
-0.00610562
-0.00603935
-0.00588012
-0.00575557
-0.00567659
-0.00562062
-0.00558923
-0.00563188
-0.00280406
-0.00294462
-0.00323457
-0.00360796
-0.00400332
-0.00438127
-0.00473397
-0.00506713
-0.00537984
-0.00561635
-0.00570439
-0.00566198
-0.00558379
-0.00554855
-0.00558044
-0.00567849
-0.00580915
-0.00596502
-0.00614289
-0.00637051
-0.00295739
-0.00308077
-0.00336944
-0.00374678
-0.00415964
-0.00456985
-0.00493207
-0.00518635
-0.00531923
-0.00539115
-0.00546659
-0.00556919
-0.00568557
-0.00580767
-0.00588617
-0.00589422
-0.00584632
-0.0057465
-0.00565617
-0.00566214
-0.00314901
-0.0032633
-0.00347195
-0.00375907
-0.00409985
-0.00445237
-0.00477377
-0.00503363
-0.00523669
-0.00538956
-0.00550814
-0.0056248
-0.00573444
-0.00585946
-0.006047
-0.00631548
-0.0066842
-0.00712615
-0.00758898
-0.00800249
-0.00332733
-0.00346043
-0.00362228
-0.00384535
-0.0041386
-0.00446788
-0.00479643
-0.00508363
-0.00531509
-0.00550184
-0.00563029
-0.00572922
-0.00581942
-0.00587258
-0.00589513
-0.00587532
-0.00581874
-0.00575227
-0.00572902
-0.00582725
-0.00342017
-0.00355319
-0.0037412
-0.00397107
-0.00423418
-0.0045118
-0.00479156
-0.00504314
-0.00524323
-0.00541587
-0.00555566
-0.00566443
-0.00577907
-0.00589023
-0.00600087
-0.00611637
-0.00623184
-0.00635991
-0.00652137
-0.00677285
0.0246961
0.0155099
0.0046583
-0.00240284
-0.00501586
-0.0050507
-0.00461081
-0.0046666
-0.00529522
-0.0061846
-0.00694541
-0.00736562
-0.0075781
-0.00782983
-0.00818057
-0.00859568
-0.00903902
-0.00938672
-0.00958902
-0.00979442
-0.0101209
-0.0105311
-0.0109337
-0.0112719
-0.0115771
-0.0119343
-0.0123658
-0.0128124
-0.0132242
-0.0136141
-0.0140153
-0.0144229
-0.0148031
-0.0151532
-0.0155117
-0.015899
-0.0162912
-0.016665
-0.0170438
-0.0174588
-0.0178948
-0.0183219
-0.0187477
-0.019194
-0.0196415
-0.0200644
-0.0204871
-0.0209305
-0.0213752
-0.0218154
-0.0222845
-0.0227843
-0.0232749
-0.0237661
-0.0242793
-0.0247791
-0.0252673
-0.0257788
-0.0263043
-0.026837
-0.0273924
-0.0279584
-0.0285222
-0.0290878
-0.0296613
-0.0302424
-0.0308375
-0.0314489
-0.0320736
-0.0327047
-0.0333457
-0.0339935
-0.0346497
-0.035317
-0.0360011
-0.0366976
-0.0374058
-0.0381232
-0.0388526
-0.0395953
-0.0403514
-0.0411181
-0.0418979
-0.0426923
-0.0434998
-0.0443211
-0.045155
-0.0460019
-0.0468634
-0.0477396
-0.0486293
-0.0495321
-0.0504501
-0.051383
-0.0523306
-0.0532824
-0.0542569
-0.0552237
-0.0560943
-0.056981
0.0232478
0.0153579
0.004753
-0.00228445
-0.00494057
-0.00500852
-0.00458111
-0.00464543
-0.00528079
-0.00617476
-0.00693856
-0.00736039
-0.00757342
-0.00782531
-0.00817616
-0.00859147
-0.00903534
-0.00938363
-0.00958611
-0.0097915
-0.0101181
-0.0105287
-0.0109316
-0.01127
-0.0115752
-0.0119325
-0.0123641
-0.012811
-0.0132228
-0.0136128
-0.014014
-0.0144217
-0.014802
-0.0151522
-0.0155107
-0.0158981
-0.0162904
-0.0166642
-0.0170431
-0.0174581
-0.0178941
-0.0183213
-0.0187471
-0.0191934
-0.0196409
-0.0200639
-0.0204866
-0.02093
-0.0213747
-0.021815
-0.0222841
-0.0227838
-0.0232745
-0.0237658
-0.0242789
-0.0247788
-0.0252669
-0.0257784
-0.026304
-0.0268367
-0.0273921
-0.0279582
-0.028522
-0.0290875
-0.0296611
-0.0302422
-0.0308373
-0.0314487
-0.0320734
-0.0327045
-0.0333455
-0.0339933
-0.0346495
-0.0353168
-0.0360009
-0.0366975
-0.0374057
-0.038123
-0.0388525
-0.0395952
-0.0403512
-0.0411179
-0.0418977
-0.0426922
-0.0434997
-0.044321
-0.0451549
-0.0460018
-0.0468633
-0.0477396
-0.0486292
-0.049532
-0.05045
-0.0513829
-0.0523305
-0.0532823
-0.0542568
-0.0552236
-0.0560942
-0.056981
0.0221209
0.0153082
0.00498602
-0.00205021
-0.00481698
-0.00496301
-0.00455826
-0.00462509
-0.00526237
-0.00615951
-0.00692676
-0.00735183
-0.00756751
-0.00782121
-0.0081728
-0.00858803
-0.00903193
-0.00938056
-0.00958329
-0.00978883
-0.0101157
-0.0105264
-0.0109296
-0.0112682
-0.0115735
-0.0119309
-0.0123627
-0.0128096
-0.0132216
-0.0136116
-0.0140129
-0.0144207
-0.0148011
-0.0151512
-0.0155098
-0.0158973
-0.0162896
-0.0166635
-0.0170424
-0.0174574
-0.0178935
-0.0183207
-0.0187466
-0.0191929
-0.0196405
-0.0200634
-0.0204862
-0.0209296
-0.0213744
-0.0218146
-0.0222837
-0.0227835
-0.0232742
-0.0237654
-0.0242786
-0.0247785
-0.0252666
-0.0257782
-0.0263037
-0.0268364
-0.0273918
-0.0279579
-0.0285218
-0.0290873
-0.0296609
-0.030242
-0.0308371
-0.0314485
-0.0320732
-0.0327044
-0.0333453
-0.0339932
-0.0346494
-0.0353167
-0.0360008
-0.0366973
-0.0374056
-0.0381229
-0.0388523
-0.0395951
-0.0403511
-0.0411178
-0.0418976
-0.0426921
-0.0434996
-0.0443209
-0.0451548
-0.0460017
-0.0468632
-0.0477395
-0.0486291
-0.0495319
-0.05045
-0.0513829
-0.0523304
-0.0532822
-0.0542567
-0.0552236
-0.0560942
-0.056981
0.0210725
0.0152195
0.00525415
-0.00176727
-0.00466049
-0.00490966
-0.00453241
-0.00459869
-0.00523677
-0.00613646
-0.00690597
-0.00733495
-0.00755636
-0.00781529
-0.0081695
-0.0085847
-0.00902772
-0.00937628
-0.00957982
-0.00978621
-0.0101133
-0.0105238
-0.0109269
-0.0112659
-0.0115715
-0.011929
-0.0123609
-0.0128081
-0.0132203
-0.0136104
-0.0140118
-0.0144196
-0.0148001
-0.0151503
-0.0155089
-0.0158964
-0.0162888
-0.0166627
-0.0170416
-0.0174567
-0.0178929
-0.0183201
-0.018746
-0.0191924
-0.01964
-0.020063
-0.0204857
-0.0209292
-0.0213739
-0.0218142
-0.0222833
-0.0227831
-0.0232738
-0.0237651
-0.0242783
-0.0247782
-0.0252663
-0.0257779
-0.0263034
-0.0268361
-0.0273916
-0.0279577
-0.0285215
-0.0290871
-0.0296607
-0.0302418
-0.0308369
-0.0314483
-0.032073
-0.0327042
-0.0333452
-0.033993
-0.0346492
-0.0353165
-0.0360007
-0.0366972
-0.0374054
-0.0381228
-0.0388522
-0.039595
-0.040351
-0.0411177
-0.0418975
-0.042692
-0.0434995
-0.0443208
-0.0451547
-0.0460016
-0.0468631
-0.0477394
-0.0486291
-0.0495319
-0.0504499
-0.0513828
-0.0523303
-0.0532822
-0.0542567
-0.0552236
-0.0560942
-0.0569811
0.0199996
0.0150465
0.00551831
-0.00146916
-0.00449199
-0.00485352
-0.004506
-0.00456867
-0.00520542
-0.00610582
-0.00687544
-0.0073081
-0.00753764
-0.00780533
-0.00816492
-0.00858072
-0.00902189
-0.00936981
-0.00957508
-0.00978359
-0.0101111
-0.0105208
-0.0109234
-0.0112628
-0.011569
-0.0119268
-0.0123586
-0.0128058
-0.0132184
-0.013609
-0.0140105
-0.0144183
-0.0147988
-0.0151491
-0.0155078
-0.0158953
-0.0162878
-0.0166618
-0.0170407
-0.0174559
-0.0178921
-0.0183194
-0.0187453
-0.0191918
-0.0196394
-0.0200624
-0.0204852
-0.0209287
-0.0213735
-0.0218137
-0.0222828
-0.0227827
-0.0232735
-0.0237647
-0.024278
-0.0247779
-0.025266
-0.0257776
-0.0263031
-0.0268358
-0.0273913
-0.0279575
-0.0285213
-0.0290869
-0.0296605
-0.0302415
-0.0308367
-0.0314481
-0.0320728
-0.032704
-0.033345
-0.0339928
-0.034649
-0.0353163
-0.0360005
-0.036697
-0.0374053
-0.0381226
-0.0388521
-0.0395948
-0.0403509
-0.0411176
-0.0418974
-0.0426918
-0.0434994
-0.0443207
-0.0451546
-0.0460015
-0.046863
-0.0477393
-0.048629
-0.0495318
-0.0504498
-0.0513827
-0.0523303
-0.0532821
-0.0542566
-0.0552235
-0.0560943
-0.0569812
0.0189099
0.0147965
0.00577829
-0.00115776
-0.00431348
-0.00479495
-0.00448067
-0.00453789
-0.0051714
-0.00607134
-0.00683931
-0.00727443
-0.0075127
-0.00779103
-0.00815794
-0.00857511
-0.00901379
-0.00936074
-0.00956883
-0.00978091
-0.0101093
-0.0105175
-0.010919
-0.011259
-0.0115664
-0.0119244
-0.0123555
-0.0128025
-0.0132157
-0.0136071
-0.0140089
-0.0144166
-0.0147972
-0.0151477
-0.0155066
-0.015894
-0.0162864
-0.0166605
-0.0170395
-0.0174548
-0.0178911
-0.0183185
-0.0187445
-0.019191
-0.0196387
-0.0200618
-0.0204845
-0.0209281
-0.0213729
-0.0218131
-0.0222823
-0.0227823
-0.023273
-0.0237643
-0.0242776
-0.0247775
-0.0252656
-0.0257772
-0.0263028
-0.0268355
-0.027391
-0.0279572
-0.028521
-0.0290866
-0.0296602
-0.0302413
-0.0308364
-0.0314479
-0.0320726
-0.0327038
-0.0333448
-0.0339926
-0.0346488
-0.0353162
-0.0360003
-0.0366969
-0.0374051
-0.0381225
-0.0388519
-0.0395947
-0.0403508
-0.0411175
-0.0418973
-0.0426917
-0.0434993
-0.0443206
-0.0451545
-0.0460014
-0.0468629
-0.0477392
-0.0486289
-0.0495317
-0.0504497
-0.0513826
-0.0523302
-0.053282
-0.0542565
-0.0552235
-0.0560944
-0.0569814
0.0178271
0.0144819
0.00603446
-0.000832535
-0.00412416
-0.00473336
-0.00445693
-0.0045074
-0.00513575
-0.00603494
-0.00680096
-0.00723788
-0.00748455
-0.00777376
-0.00814857
-0.00856736
-0.00900324
-0.00934927
-0.00956123
-0.00977809
-0.0101077
-0.0105138
-0.0109138
-0.0112547
-0.011564
-0.0119222
-0.0123519
-0.012798
-0.0132119
-0.0136045
-0.0140067
-0.0144142
-0.0147949
-0.0151461
-0.0155053
-0.0158926
-0.0162848
-0.016659
-0.0170382
-0.0174534
-0.0178897
-0.0183173
-0.0187435
-0.0191901
-0.0196378
-0.020061
-0.0204838
-0.0209274
-0.0213722
-0.0218124
-0.0222817
-0.0227817
-0.0232725
-0.0237638
-0.0242771
-0.0247771
-0.0252652
-0.0257768
-0.0263024
-0.0268351
-0.0273906
-0.0279569
-0.0285207
-0.0290863
-0.0296599
-0.030241
-0.0308361
-0.0314476
-0.0320723
-0.0327036
-0.0333445
-0.0339924
-0.0346486
-0.035316
-0.0360001
-0.0366967
-0.0374049
-0.0381223
-0.0388518
-0.0395945
-0.0403506
-0.0411173
-0.0418971
-0.0426916
-0.0434991
-0.0443204
-0.0451544
-0.0460013
-0.0468628
-0.0477391
-0.0486288
-0.0495316
-0.0504496
-0.0513825
-0.0523301
-0.0532819
-0.0542565
-0.0552236
-0.0560946
-0.0569817
0.0167691
0.0141068
0.00627941
-0.000496838
-0.0039245
-0.0046686
-0.00443511
-0.0044778
-0.00509873
-0.00599694
-0.00676137
-0.00720007
-0.00745491
-0.00775478
-0.00813736
-0.00855769
-0.00899065
-0.00933597
-0.00955259
-0.00977508
-0.0101061
-0.0105098
-0.0109078
-0.0112501
-0.011562
-0.0119206
-0.0123483
-0.0127928
-0.0132072
-0.013601
-0.0140036
-0.0144109
-0.014792
-0.015144
-0.0155037
-0.0158909
-0.016283
-0.0166574
-0.0170367
-0.0174517
-0.0178879
-0.0183158
-0.0187423
-0.0191889
-0.0196367
-0.02006
-0.020483
-0.0209265
-0.0213713
-0.0218116
-0.0222809
-0.0227809
-0.0232718
-0.0237632
-0.0242766
-0.0247766
-0.0252647
-0.0257763
-0.0263019
-0.0268347
-0.0273902
-0.0279565
-0.0285203
-0.029086
-0.0296596
-0.0302407
-0.0308358
-0.0314473
-0.0320721
-0.0327033
-0.0333443
-0.0339922
-0.0346484
-0.0353157
-0.0359999
-0.0366965
-0.0374047
-0.0381221
-0.0388516
-0.0395944
-0.0403504
-0.0411172
-0.041897
-0.0426914
-0.043499
-0.0443203
-0.0451542
-0.0460011
-0.0468627
-0.047739
-0.0486287
-0.0495315
-0.0504495
-0.0513824
-0.05233
-0.0532819
-0.0542564
-0.0552236
-0.0560948
-0.0569821
0.0157497
0.0136735
0.00650212
-0.000155044
-0.00371392
-0.00459898
-0.00441449
-0.0044493
-0.00506044
-0.00595722
-0.00672054
-0.00716125
-0.00742423
-0.00773464
-0.00812488
-0.00854665
-0.0089766
-0.00932134
-0.00954313
-0.00977181
-0.0101043
-0.0105054
-0.0109013
-0.0112451
-0.0115601
-0.0119195
-0.0123451
-0.0127876
-0.013202
-0.0135969
-0.0139998
-0.0144067
-0.0147882
-0.0151414
-0.0155019
-0.0158889
-0.0162809
-0.0166557
-0.0170352
-0.0174499
-0.0178858
-0.0183138
-0.0187406
-0.0191873
-0.0196352
-0.0200589
-0.020482
-0.0209255
-0.0213703
-0.0218107
-0.0222799
-0.02278
-0.023271
-0.0237625
-0.0242759
-0.0247759
-0.0252641
-0.0257756
-0.0263013
-0.0268341
-0.0273897
-0.027956
-0.0285199
-0.0290855
-0.0296592
-0.0302403
-0.0308354
-0.031447
-0.0320717
-0.032703
-0.033344
-0.0339919
-0.0346481
-0.0353155
-0.0359996
-0.0366962
-0.0374045
-0.0381219
-0.0388513
-0.0395941
-0.0403502
-0.041117
-0.0418968
-0.0426913
-0.0434988
-0.0443201
-0.0451541
-0.046001
-0.0468626
-0.0477388
-0.0486285
-0.0495314
-0.0504494
-0.0513823
-0.0523299
-0.0532817
-0.0542563
-0.0552236
-0.0560951
-0.0569826
0.0147805
0.0131851
0.00669178
0.000189705
-0.00349007
-0.00452167
-0.004394
-0.00442239
-0.00502146
-0.00591588
-0.00667843
-0.00712134
-0.00739253
-0.00771355
-0.00811145
-0.0085346
-0.00896141
-0.00930557