/*--------------------------------*- C++ -*----------------------------------*\
| =========                 |                                                 |
| \\      /  F ield         | OpenFOAM: The Open Source CFD Toolbox           |
|  \\    /   O peration     | Version:  v1906                                 |
|   \\  /    A nd           | Web:      www.OpenFOAM.com                      |
|    \\/     M anipulation  |                                                 |
\*---------------------------------------------------------------------------*/
FoamFile
{
    version     2.0;
    format      ascii;
    class       surfaceScalarField;
    location    "2.7";
    object      phi;
}
// * * * * * * * * * * * * * * * * * * * * * * * * * * * * * * * * * * * * * //

dimensions      [0 3 -1 0 0 0 0];
oriented        oriented;


internalField   nonuniform List<scalar> 
19000
(
1.16496e-06
1.70108e-07
1.15442e-06
-2.70169e-07
1.19095e-06
-3.885e-07
1.20991e-06
2.04626e-07
1.1488e-06
7.93551e-07
1.09541e-06
1.70922e-08
1.15376e-06
-1.27894e-07
1.14799e-06
-9.11791e-07
1.17665e-06
-6.5197e-07
1.19759e-06
-1.57104e-07
1.17741e-06
-8.10332e-08
1.17976e-06
3.12727e-07
1.16057e-06
4.13101e-07
1.1408e-06
3.42593e-07
1.14066e-06
4.32008e-07
1.11191e-06
-1.1794e-07
1.13013e-06
2.45321e-07
1.10128e-06
-2.3917e-07
1.11649e-06
1.80652e-08
-3.57608e-07
1.04329e-06
1.21837e-06
1.75998e-07
1.20901e-06
-2.60804e-07
1.24688e-06
-4.26377e-07
1.26851e-06
1.83002e-07
1.20268e-06
8.59377e-07
1.15513e-06
6.46473e-08
1.2046e-06
-1.77364e-07
1.20005e-06
-9.07243e-07
1.23048e-06
-6.82396e-07
1.25502e-06
-1.81652e-07
1.23165e-06
-5.76556e-08
1.23943e-06
3.04948e-07
1.21313e-06
4.39398e-07
1.20246e-06
3.53259e-07
1.19e-06
4.44468e-07
1.17732e-06
-1.05256e-07
1.17628e-06
2.46362e-07
1.17448e-06
-2.37368e-07
1.16176e-06
3.07823e-08
-3.319e-07
1.13605e-06
1.27376e-06
1.85017e-07
1.2676e-06
-2.54638e-07
1.30259e-06
-4.61372e-07
1.32781e-06
1.57785e-07
1.26395e-06
9.23236e-07
1.22309e-06
1.05505e-07
1.25991e-06
-2.1418e-07
1.26146e-06
-9.08799e-07
1.28529e-06
-7.06218e-07
1.31371e-06
-2.10074e-07
1.28937e-06
-3.33145e-08
1.29582e-06
2.98492e-07
1.27024e-06
4.64976e-07
1.26059e-06
3.62915e-07
1.25172e-06
4.53341e-07
1.24216e-06
-9.56954e-08
1.24624e-06
2.42274e-07
1.24367e-06
-2.34793e-07
1.24193e-06
3.2523e-08
-3.04657e-07
1.21468e-06
1.33246e-06
1.96662e-07
1.33035e-06
-2.52527e-07
1.3587e-06
-4.89726e-07
1.38572e-06
1.30764e-07
1.33193e-06
9.77032e-07
1.29776e-06
1.39673e-07
1.32006e-06
-2.36483e-07
1.32806e-06
-9.16792e-07
1.34325e-06
-7.21409e-07
1.37152e-06
-2.38349e-07
1.35122e-06
-1.30097e-08
1.34926e-06
3.00451e-07
1.33094e-06
4.83295e-07
1.32065e-06
3.73202e-07
1.31764e-06
4.56351e-07
1.30972e-06
-8.77777e-08
1.31641e-06
2.35585e-07
1.31123e-06
-2.29609e-07
1.31327e-06
3.0486e-08
-2.73582e-07
1.28219e-06
1.39578e-06
2.09238e-07
1.39673e-06
-2.53482e-07
1.41628e-06
-5.09268e-07
1.44208e-06
1.0496e-07
1.40483e-06
1.01428e-06
1.37678e-06
1.67722e-07
1.38592e-06
-2.45627e-07
1.39629e-06
-9.27156e-07
1.40493e-06
-7.30049e-07
1.42938e-06
-2.62802e-07
1.41621e-06
1.56302e-10
1.40692e-06
3.09746e-07
1.39458e-06
4.95637e-07
1.38685e-06
3.80925e-07
1.38791e-06
4.5529e-07
1.38115e-06
-8.10125e-08
1.38927e-06
2.27469e-07
1.38111e-06
-2.21455e-07
1.38498e-06
2.66147e-08
-2.40458e-07
1.35186e-06
1.46446e-06
2.20453e-07
1.46639e-06
-2.55411e-07
1.47677e-06
-5.19644e-07
1.49889e-06
8.28346e-08
1.48046e-06
1.03271e-06
1.45843e-06
1.89753e-07
1.45764e-06
-2.44831e-07
1.46552e-06
-9.35034e-07
1.46975e-06
-7.34278e-07
1.48941e-06
-2.82471e-07
1.48262e-06
6.94867e-09
1.4714e-06
3.2097e-07
1.46301e-06
5.04025e-07
1.45909e-06
3.84843e-07
1.46328e-06
4.51106e-07
1.45673e-06
-7.44621e-08
1.46566e-06
2.18534e-07
1.45432e-06
-2.10109e-07
1.45911e-06
2.18166e-08
-2.06077e-07
1.42473e-06
1.53823e-06
2.28444e-07
1.53924e-06
-2.56427e-07
1.54145e-06
-5.2185e-07
1.55898e-06
6.53017e-08
1.55731e-06
1.03438e-06
1.54168e-06
2.05378e-07
1.53452e-06
-2.37668e-07
1.53677e-06
-9.37282e-07
1.53707e-06
-7.34579e-07
1.55263e-06
-2.9803e-07
1.55024e-06
9.33339e-09
1.54139e-06
3.29828e-07
1.53683e-06
5.08581e-07
1.53637e-06
3.85302e-07
1.54268e-06
4.44793e-07
1.53563e-06
-6.74102e-08
1.54492e-06
2.09242e-07
1.53034e-06
-1.95523e-07
1.53564e-06
1.6515e-08
-1.71065e-07
1.50063e-06
1.61605e-06
2.32518e-07
1.61529e-06
-2.55658e-07
1.61102e-06
-5.17584e-07
1.62447e-06
5.18469e-08
1.63512e-06
1.02373e-06
1.62597e-06
2.14529e-07
1.61549e-06
-2.27181e-07
1.61119e-06
-9.32981e-07
1.60716e-06
-7.3055e-07
1.61927e-06
-3.10141e-07
1.61995e-06
8.64955e-09
1.61538e-06
3.34401e-07
1.61506e-06
5.08901e-07
1.61751e-06
3.82848e-07
1.62507e-06
4.37237e-07
1.61694e-06
-5.92773e-08
1.62645e-06
1.99731e-07
1.60885e-06
-1.7793e-07
1.61444e-06
1.0934e-08
-1.3619e-07
1.57956e-06
1.69694e-06
2.33151e-07
1.69452e-06
-2.53237e-07
1.68566e-06
-5.08727e-07
1.69619e-06
4.13219e-08
1.71457e-06
1.00534e-06
1.71118e-06
2.17923e-07
1.69956e-06
-2.15562e-07
1.68943e-06
-9.2285e-07
1.68092e-06
-7.2204e-07
1.68968e-06
-3.18896e-07
1.69262e-06
5.7032e-09
1.69267e-06
3.3435e-07
1.69658e-06
5.04997e-07
1.70136e-06
3.78061e-07
1.7097e-06
4.28906e-07
1.70009e-06
-4.96704e-08
1.70985e-06
1.89965e-07
1.68975e-06
-1.57827e-07
1.69541e-06
5.27004e-09
-1.02338e-07
1.66156e-06
1.78047e-06
2.31403e-07
1.77703e-06
-2.49798e-07
1.76529e-06
-4.96989e-07
1.7739e-06
3.27125e-08
1.79649e-06
9.82756e-07
1.79757e-06
2.16843e-07
1.78618e-06
-2.04172e-07
1.7717e-06
-9.0837e-07
1.75922e-06
-7.09556e-07
1.76446e-06
-3.24143e-07
1.76889e-06
1.27129e-09
1.77299e-06
3.30253e-07
1.78066e-06
4.9733e-07
1.78711e-06
3.71604e-07
1.79611e-06
4.19913e-07
1.78493e-06
-3.84944e-08
1.79504e-06
1.79857e-07
1.77311e-06
-1.359e-07
1.77861e-06
-2.22685e-10
-7.04254e-08
1.74669e-06
1.86685e-06
2.28298e-07
1.86304e-06
-2.45983e-07
1.84972e-06
-4.83675e-07
1.85698e-06
2.5452e-08
1.8815e-06
9.58238e-07
1.8857e-06
2.12649e-07
1.87526e-06
-1.93738e-07
1.85796e-06
-8.91071e-07
1.84247e-06
-6.94061e-07
1.84423e-06
-3.25905e-07
1.84932e-06
-3.81898e-09
1.85633e-06
3.23242e-07
1.86703e-06
4.86634e-07
1.87451e-06
3.64123e-07
1.88426e-06
4.10169e-07
1.87171e-06
-2.59468e-08
1.88222e-06
1.69348e-07
1.85925e-06
-1.12934e-07
1.86423e-06
-5.20734e-09
-4.13024e-08
1.83511e-06
1.95662e-06
2.24522e-07
1.95285e-06
-2.42221e-07
1.93877e-06
-4.69593e-07
1.94489e-06
1.93321e-08
1.97009e-06
9.33043e-07
1.97629e-06
2.06446e-07
1.96712e-06
-1.84569e-07
1.94818e-06
-8.72133e-07
1.93073e-06
-6.76614e-07
1.92934e-06
-3.2451e-07
1.93442e-06
-8.90157e-09
1.94303e-06
3.14634e-07
1.95594e-06
4.73725e-07
1.9639e-06
3.56159e-07
1.97455e-06
3.99523e-07
1.96102e-06
-1.24206e-08
1.97187e-06
1.58495e-07
1.94867e-06
-8.97337e-08
1.95269e-06
-9.22755e-09
-1.56763e-08
1.92707e-06
2.05029e-06
2.20417e-07
2.04678e-06
-2.38702e-07
2.03231e-06
-4.55123e-07
2.03736e-06
1.42763e-08
2.06268e-06
9.07721e-07
2.07011e-06
1.99021e-07
2.06225e-06
-1.76713e-07
2.04241e-06
-8.52289e-07
2.02389e-06
-6.58099e-07
2.01984e-06
-3.20459e-07
2.02457e-06
-1.36326e-08
2.03362e-06
3.05587e-07
2.04801e-06
4.59331e-07
2.05607e-06
3.48106e-07
2.06771e-06
3.87883e-07
2.05366e-06
1.62242e-09
2.06465e-06
1.47512e-07
2.04196e-06
-6.70447e-08
2.04454e-06
-1.18077e-08
6.0069e-09
2.02286e-06
2.1483e-06
2.16113e-07
2.14506e-06
-2.35456e-07
2.13032e-06
-4.40387e-07
2.13442e-06
1.01792e-08
2.15973e-06
8.82406e-07
2.16785e-06
1.90903e-07
2.16121e-06
-1.70072e-07
2.1408e-06
-8.31883e-07
2.12185e-06
-6.39147e-07
2.11563e-06
-3.14237e-07
2.11997e-06
-1.79749e-08
2.12867e-06
2.96889e-07
2.144e-06
4.44004e-07
2.15192e-06
3.40186e-07
2.16451e-06
3.75291e-07
2.15042e-06
1.57084e-08
2.16116e-06
1.36772e-07
2.13963e-06
-4.55105e-08
2.14042e-06
-1.26028e-08
2.36623e-08
2.12277e-06
2.25095e-06
2.1165e-07
2.24792e-06
-2.32419e-07
2.23294e-06
-4.25407e-07
2.23625e-06
6.86367e-09
2.26164e-06
8.57023e-07
2.27007e-06
1.82463e-07
2.26448e-06
-1.64481e-07
2.24359e-06
-8.10989e-07
2.22462e-06
-6.20177e-07
2.21659e-06
-3.06204e-07
2.22069e-06
-2.20766e-08
2.22864e-06
2.88938e-07
2.24453e-06
4.28113e-07
2.25227e-06
3.32447e-07
2.26562e-06
3.61941e-07
2.25194e-06
2.93921e-08
2.26198e-06
1.2673e-07
2.24209e-06
-2.5625e-08
2.241e-06
-1.15121e-08
3.7585e-08
2.22708e-06
2.35849e-06
2.07035e-07
2.35557e-06
-2.29496e-07
2.34036e-06
-4.10198e-07
2.3431e-06
4.1219e-09
2.3687e-06
8.31423e-07
2.37719e-06
1.7397e-07
2.37249e-06
-1.59775e-07
2.35101e-06
-7.89517e-07
2.33231e-06
-6.01472e-07
2.32271e-06
-2.96602e-07
2.32677e-06
-2.61426e-08
2.3339e-06
2.81815e-07
2.3501e-06
4.11909e-07
2.35776e-06
3.24789e-07
2.37156e-06
3.4814e-07
2.35866e-06
4.22958e-08
2.36757e-06
1.17813e-07
2.34964e-06
-7.69131e-09
2.3468e-06
-8.67635e-09
4.83414e-08
2.33605e-06
2.47116e-06
2.02271e-07
2.46825e-06
-2.26586e-07
2.45285e-06
-3.94798e-07
2.4552e-06
1.77556e-09
2.48116e-06
8.05461e-07
2.48951e-06
1.65624e-07
2.48557e-06
-1.55838e-07
2.46335e-06
-7.67297e-07
2.44512e-06
-5.83239e-07
2.43412e-06
-2.85603e-07
2.43833e-06
-3.03543e-08
2.44476e-06
2.75386e-07
2.46106e-06
3.95603e-07
2.46885e-06
3.17004e-07
2.48271e-06
3.34275e-07
2.47088e-06
5.41291e-08
2.4784e-06
1.10292e-07
2.46245e-06
8.25519e-09
2.45816e-06
-4.38552e-09
5.65599e-08
2.44994e-06
2.58921e-06
1.97356e-07
2.58622e-06
-2.236e-07
2.5707e-06
-3.79278e-07
2.57276e-06
-2.84304e-10
2.59921e-06
7.79012e-07
2.60726e-06
1.57579e-07
2.60404e-06
-1.52617e-07
2.58089e-06
-7.44146e-07
2.56327e-06
-5.65628e-07
2.55103e-06
-2.73355e-07
2.55549e-06
-3.48176e-08
2.5615e-06
2.6938e-07
2.57767e-06
3.79426e-07
2.58585e-06
3.08828e-07
2.59936e-06
3.20764e-07
2.58878e-06
6.47093e-08
2.59485e-06
1.04218e-07
2.58064e-06
2.24663e-08
2.57528e-06
9.72562e-10
6.27888e-08
2.56905e-06
2.7129e-06
1.92284e-07
2.70976e-06
-2.20459e-07
2.69421e-06
-3.63732e-07
2.69602e-06
-2.08801e-09
2.72305e-06
7.51976e-07
2.73067e-06
1.49964e-07
2.72816e-06
-1.50111e-07
2.70393e-06
-7.19917e-07
2.68704e-06
-5.48736e-07
2.67371e-06
-2.60021e-07
2.67842e-06
-3.9535e-08
2.68435e-06
2.63456e-07
2.70012e-06
3.63652e-07
2.70895e-06
3e-07
2.72173e-06
3.07984e-07
2.71245e-06
7.39937e-08
2.71723e-06
9.94332e-08
2.70439e-06
3.53034e-08
2.69833e-06
7.03187e-09
6.74443e-08
2.69368e-06
2.84251e-06
1.87048e-07
2.83913e-06
-2.17087e-07
2.82368e-06
-3.48276e-07
2.82519e-06
-3.59891e-09
2.8529e-06
7.24267e-07
2.85996e-06
1.42896e-07
2.85821e-06
-1.48352e-07
2.83282e-06
-6.94528e-07
2.81668e-06
-5.32595e-07
2.80245e-06
-2.45791e-07
2.80731e-06
-4.43977e-08
2.81351e-06
2.57254e-07
2.82859e-06
3.48576e-07
2.83827e-06
2.90323e-07
2.85009e-06
2.96158e-07
2.84197e-06
8.21164e-08
2.84577e-06
9.56275e-08
2.83399e-06
4.70867e-08
2.82747e-06
1.35568e-08
7.07824e-08
2.82413e-06
2.97831e-06
1.81633e-07
2.97462e-06
-2.134e-07
2.9594e-06
-3.33048e-07
2.96053e-06
-4.73235e-09
2.98899e-06
6.95801e-07
2.99541e-06
1.36485e-07
2.99443e-06
-1.47371e-07
2.96788e-06
-6.67978e-07
2.95245e-06
-5.17166e-07
2.93756e-06
-2.30907e-07
2.94235e-06
-4.91876e-08
2.94918e-06
2.50425e-07
2.96328e-06
3.34474e-07
2.97389e-06
2.79713e-07
2.98476e-06
2.85292e-07
2.97747e-06
8.9407e-08
2.98067e-06
9.2426e-08
2.9698e-06
5.79591e-08
2.96282e-06
2.05319e-08
7.29087e-08
2.9607e-06
3.12061e-06
1.76027e-07
3.11652e-06
-2.09305e-07
3.10168e-06
-3.18208e-07
3.10232e-06
-5.37555e-09
3.13162e-06
6.66501e-07
3.13728e-06
1.30821e-07
3.13708e-06
-1.47168e-07
3.10945e-06
-6.40344e-07
3.09462e-06
-5.02343e-07
3.07937e-06
-2.15653e-07
3.08379e-06
-5.36115e-08
3.09155e-06
2.42665e-07
3.10448e-06
3.21549e-07
3.11596e-06
2.68231e-07
3.12605e-06
2.75205e-07
3.11919e-06
9.62678e-08
3.12207e-06
8.95422e-08
3.11219e-06
6.78385e-08
3.10464e-06
2.80829e-08
7.39143e-08
3.10363e-06
3.26972e-06
1.70213e-07
3.26511e-06
-2.04694e-07
3.25084e-06
-3.03937e-07
3.25087e-06
-5.4072e-09
3.28107e-06
6.36308e-07
3.28592e-06
1.25965e-07
3.28644e-06
-1.47692e-07
3.25789e-06
-6.1179e-07
3.24349e-06
-4.87943e-07
3.22821e-06
-2.00368e-07
3.23193e-06
-5.73347e-08
3.24084e-06
2.3375e-07
3.25251e-06
3.09887e-07
3.26464e-06
2.56098e-07
3.27426e-06
2.65586e-07
3.26746e-06
1.03068e-07
3.27013e-06
8.68662e-08
3.2615e-06
7.64764e-08
3.25325e-06
3.63293e-08
7.39952e-08
3.25317e-06
3.42597e-06
1.64178e-07
3.42073e-06
-1.99456e-07
3.40721e-06
-2.90414e-07
3.40652e-06
-4.72154e-09
3.43763e-06
6.052e-07
3.44167e-06
1.21926e-07
3.44281e-06
-1.4883e-07
3.41357e-06
-5.82557e-07
3.39936e-06
-4.73725e-07
3.3844e-06
-1.85409e-07
3.3871e-06
-6.00366e-08
3.39728e-06
2.23565e-07
3.40773e-06
2.99438e-07
3.42017e-06
2.43662e-07
3.42969e-06
2.56067e-07
3.4227e-06
1.10057e-07
3.42506e-06
8.4507e-08
3.418e-06
8.35381e-08
3.40907e-06
4.52582e-08
7.35238e-08
3.40954e-06
3.58968e-06
1.57909e-07
3.58371e-06
-1.93488e-07
3.5711e-06
-2.77805e-07
3.56963e-06
-3.24885e-09
3.60162e-06
5.73212e-07
3.60489e-06
1.18649e-07
3.60648e-06
-1.50412e-07
3.57687e-06
-5.52954e-07
3.56256e-06
-4.59411e-07
3.54828e-06
-1.71128e-07
3.5497e-06
-6.14593e-08
3.56113e-06
2.12132e-07
3.57054e-06
2.90029e-07
3.58287e-06
2.31335e-07
3.5926e-06
2.46337e-07
3.58538e-06
1.17278e-07
3.58718e-06
8.27104e-08
3.58193e-06
8.87855e-08
3.57253e-06
5.4658e-08
7.30123e-08
3.57304e-06
3.76122e-06
1.51398e-07
3.75444e-06
-1.86709e-07
3.74287e-06
-2.66238e-07
3.74059e-06
-9.72347e-10
3.77334e-06
5.40462e-07
3.77598e-06
1.16008e-07
3.77778e-06
-1.52208e-07
3.74818e-06
-5.23357e-07
3.73347e-06
-4.44693e-07
3.72018e-06
-1.57837e-07
3.72017e-06
-6.14507e-08
3.73268e-06
1.99623e-07
3.74132e-06
2.81382e-07
3.75311e-06
2.19548e-07
3.76327e-06
2.36177e-07
3.75596e-06
1.24588e-07
3.75692e-06
8.1754e-08
3.75352e-06
9.21862e-08
3.74406e-06
6.41103e-08
7.30247e-08
3.74405e-06
3.94094e-06
1.44642e-07
3.93331e-06
-1.79075e-07
3.92285e-06
-2.55781e-07
3.91982e-06
2.06393e-09
3.95314e-06
5.07144e-07
3.95534e-06
1.13801e-07
3.95707e-06
-1.53936e-07
3.92789e-06
-4.94176e-07
3.91249e-06
-4.2929e-07
3.9004e-06
-1.4575e-07
3.89896e-06
-6.00068e-08
3.91224e-06
1.86335e-07
3.92044e-06
2.73189e-07
3.93132e-06
2.08663e-07
3.94201e-06
2.25485e-07
3.93486e-06
1.31737e-07
3.93472e-06
8.18966e-08
3.93304e-06
9.38648e-08
3.92404e-06
7.31142e-08
7.40436e-08
3.92302e-06
4.12925e-06
1.37645e-07
4.12075e-06
-1.70578e-07
4.11141e-06
-2.46443e-07
4.10773e-06
5.74612e-09
4.14134e-06
4.73535e-07
4.14338e-06
1.11757e-07
4.14473e-06
-1.55279e-07
4.11639e-06
-4.65836e-07
4.10007e-06
-4.12975e-07
4.08927e-06
-1.34951e-07
4.08653e-06
-5.72609e-08
4.10022e-06
1.72644e-07
4.10825e-06
2.6516e-07
4.11797e-06
1.98937e-07
4.12916e-06
2.14301e-07
4.12249e-06
1.384e-07
4.12106e-06
8.33267e-08
4.12084e-06
9.40928e-08
4.11281e-06
8.11421e-08
7.63644e-08
4.11049e-06
4.32653e-06
1.30421e-07
4.31719e-06
-1.61244e-07
4.30892e-06
-2.38171e-07
4.30478e-06
9.8907e-09
4.33833e-06
4.39985e-07
4.34053e-06
1.09552e-07
4.34115e-06
-1.55897e-07
4.31405e-06
-4.38734e-07
4.29671e-06
-3.95634e-07
4.28714e-06
-1.2538e-07
4.2833e-06
-5.34302e-08
4.29703e-06
1.58914e-07
4.30512e-06
2.57079e-07
4.31357e-06
1.90488e-07
4.32506e-06
2.02803e-07
4.31923e-06
1.4423e-07
4.31644e-06
8.61208e-08
4.31728e-06
9.32549e-08
4.31069e-06
8.77291e-08
7.99641e-08
4.30709e-06
4.5332e-06
1.22994e-07
4.5231e-06
-1.51142e-07
4.51577e-06
-2.30843e-07
4.51142e-06
1.42411e-08
4.54449e-06
4.06911e-07
4.54722e-06
1.06826e-07
4.54678e-06
-1.55457e-07
4.52121e-06
-4.13169e-07
4.50292e-06
-3.77346e-07
4.49437e-06
-1.16828e-07
4.48973e-06
-4.87865e-08
4.50316e-06
1.45481e-07
4.51143e-06
2.48814e-07
4.51859e-06
1.83319e-07
4.53015e-06
1.91246e-07
4.52547e-06
1.48916e-07
4.52142e-06
9.01653e-08
4.52276e-06
9.19165e-08
4.51801e-06
9.24752e-08
8.44985e-08
4.51348e-06
4.74971e-06
1.15403e-07
4.73895e-06
-1.40384e-07
4.73237e-06
-2.24263e-07
4.72814e-06
1.84695e-08
4.76026e-06
3.7479e-07
4.7639e-06
1.03192e-07
4.76212e-06
-1.53684e-07
4.73815e-06
-3.89196e-07
4.71924e-06
-3.58437e-07
4.71145e-06
-1.09035e-07
4.70621e-06
-4.35528e-08
4.71908e-06
1.32617e-07
4.7276e-06
2.40287e-07
4.73351e-06
1.77415e-07
4.74491e-06
1.79847e-07
4.74156e-06
1.52261e-07
4.73653e-06
9.51972e-08
4.73782e-06
9.06305e-08
4.73504e-06
9.52514e-08
8.93082e-08
4.73023e-06
4.9765e-06
1.07701e-07
4.96525e-06
-1.29131e-07
4.95914e-06
-2.18153e-07
4.95543e-06
2.21807e-08
4.98608e-06
3.44136e-07
4.99102e-06
9.82536e-08
4.98777e-06
-1.50433e-07
4.96516e-06
-3.66591e-07
4.94611e-06
-3.39387e-07
4.93886e-06
-1.01777e-07
4.93322e-06
-3.79121e-08
4.94526e-06
1.20568e-07
4.95408e-06
2.31473e-07
4.95879e-06
1.72704e-07
4.96979e-06
1.68849e-07
4.96794e-06
1.54112e-07
4.96227e-06
1.00865e-07
4.96309e-06
8.98103e-08
4.96205e-06
9.62898e-08
9.35955e-08
4.95776e-06
5.21406e-06
9.99555e-08
5.20253e-06
-1.17596e-07
5.19652e-06
-2.12143e-07
5.19376e-06
2.49317e-08
5.22249e-06
3.15413e-07
5.229e-06
9.17392e-08
5.22442e-06
-1.45848e-07
5.20274e-06
-3.4491e-07
5.18396e-06
-3.20609e-07
5.17714e-06
-9.49638e-08
5.17119e-06
-3.19554e-08
5.18222e-06
1.09539e-07
5.19129e-06
2.22399e-07
5.19493e-06
1.69067e-07
5.20526e-06
1.58519e-07
5.20503e-06
1.54344e-07
5.19912e-06
1.06773e-07
5.19921e-06
8.97144e-08
5.19947e-06
9.60381e-08
9.67389e-08
5.19632e-06
5.46289e-06
9.22532e-08
5.45134e-06
-1.06045e-07
5.44495e-06
-2.05752e-07
5.44364e-06
2.62414e-08
5.47012e-06
2.88929e-07
5.47818e-06
8.3682e-08
5.47279e-06
-1.40456e-07
5.45152e-06
-3.23645e-07
5.4332e-06
-3.02282e-07
5.42684e-06
-8.86088e-08
5.42059e-06
-2.57014e-08
5.43042e-06
9.97037e-08
5.43969e-06
2.1313e-07
5.44243e-06
1.66331e-07
5.45187e-06
1.49073e-07
5.45328e-06
1.52934e-07
5.44756e-06
1.125e-07
5.44688e-06
9.03895e-08
5.44782e-06
9.51039e-08
9.8449e-08
5.44611e-06
5.72352e-06
8.46894e-08
5.71225e-06
-9.47738e-08
5.70488e-06
-1.9838e-07
5.70555e-06
2.55653e-08
5.72977e-06
2.6471e-07
5.73886e-06
7.45938e-08
5.73339e-06
-1.34981e-07
5.71229e-06
-3.02547e-07
5.69432e-06
-2.84316e-07
5.6884e-06
-8.26906e-08
5.68186e-06
-1.91618e-08
5.69031e-06
9.12632e-08
5.69974e-06
2.03697e-07
5.70182e-06
1.64253e-07
5.71026e-06
1.40634e-07
5.71324e-06
1.49949e-07
5.70803e-06
1.17708e-07
5.70666e-06
9.17618e-08
5.70786e-06
9.39097e-08
9.88859e-08
5.70742e-06
5.99652e-06
7.73632e-08
5.98584e-06
-8.4099e-08
5.9768e-06
-1.89337e-07
5.97999e-06
2.23762e-08
6.00232e-06
2.42383e-07
6.01149e-06
6.54209e-08
6.00653e-06
-1.30023e-07
5.98567e-06
-2.81687e-07
5.96776e-06
-2.66398e-07
5.96211e-06
-7.70444e-08
5.95526e-06
-1.23096e-08
5.96226e-06
8.42638e-08
5.97192e-06
1.94033e-07
5.9737e-06
1.62479e-07
5.98104e-06
1.33285e-07
5.98546e-06
1.4553e-07
5.98108e-06
1.22093e-07
5.97909e-06
9.37438e-08
5.98033e-06
9.26729e-08
9.84301e-08
5.98079e-06
6.28248e-06
7.03678e-08
6.27272e-06
-7.43374e-08
6.26171e-06
-1.7833e-07
6.26724e-06
1.68481e-08
6.28848e-06
2.21145e-07
6.29682e-06
5.70788e-08
6.29243e-06
-1.25632e-07
6.27194e-06
-2.61195e-07
6.25344e-06
-2.47902e-07
6.24768e-06
-7.12857e-08
6.24086e-06
-5.48874e-09
6.24675e-06
7.83759e-08
6.25688e-06
1.83906e-07
6.25873e-06
1.60626e-07
6.26494e-06
1.27078e-07
6.27052e-06
1.39952e-07
6.26725e-06
1.25359e-07
6.26473e-06
9.62666e-08
6.2659e-06
9.15025e-08
9.73725e-08
6.26696e-06
6.58206e-06
6.37735e-08
6.5735e-06
-6.57719e-08
6.56101e-06
-1.65841e-07
6.56765e-06
1.02129e-08
6.58879e-06
1.99998e-07
6.59579e-06
5.00823e-08
6.59131e-06
-1.21153e-07
6.57091e-06
-2.40795e-07
6.55157e-06
-2.28559e-07
6.54574e-06
-6.54559e-08
6.53948e-06
7.70709e-10
6.54464e-06
7.32158e-08
6.55535e-06
1.73192e-07
6.5576e-06
1.58378e-07
6.56261e-06
1.22066e-07
6.56899e-06
1.33569e-07
6.56711e-06
1.27241e-07
6.56418e-06
9.92002e-08
6.56515e-06
9.05329e-08
9.58256e-08
6.56669e-06
6.89594e-06
5.76214e-08
6.88887e-06
-5.87012e-08
6.87539e-06
-1.52361e-07
6.88198e-06
3.62265e-09
6.90355e-06
1.78431e-07
6.90943e-06
4.42049e-08
6.904e-06
-1.15723e-07
6.88383e-06
-2.20624e-07
6.86428e-06
-2.09016e-07
6.85826e-06
-5.94374e-08
6.85259e-06
6.44237e-09
6.85701e-06
6.87986e-08
6.86811e-06
1.62094e-07
6.87093e-06
1.55555e-07
6.87477e-06
1.18224e-07
6.88155e-06
1.26795e-07
6.88123e-06
1.27555e-07
6.87813e-06
1.023e-07
6.8787e-06
8.99646e-08
9.38408e-08
6.88069e-06
7.22483e-06
5.19277e-08
7.2196e-06
-5.34704e-08
7.20544e-06
-1.38205e-07
7.21116e-06
-2.09876e-09
7.23311e-06
1.56487e-07
7.23851e-06
3.88057e-08
7.2319e-06
-1.09115e-07
7.21245e-06
-2.01172e-07
7.19288e-06
-1.89453e-07
7.18631e-06
-5.28651e-08
7.18104e-06
1.17181e-08
7.18473e-06
6.51081e-08
7.19588e-06
1.50941e-07
7.19936e-06
1.52076e-07
7.20217e-06
1.15414e-07
7.20889e-06
1.20076e-07
7.21018e-06
1.26265e-07
7.20727e-06
1.05207e-07
7.20728e-06
8.99583e-08
9.15628e-08
7.20956e-06
7.56948e-06
4.66765e-08
7.56611e-06
-5.00996e-08
7.55186e-06
-1.23961e-07
7.55621e-06
-6.45132e-09
7.57798e-06
1.34722e-07
7.58374e-06
3.30483e-08
7.57633e-06
-1.01707e-07
7.55751e-06
-1.82356e-07
7.53786e-06
-1.69796e-07
7.53045e-06
-4.54639e-08
7.52546e-06
1.67109e-08
7.52851e-06
6.20563e-08
7.53942e-06
1.40033e-07
7.54357e-06
1.47931e-07
7.54556e-06
1.13419e-07
7.55184e-06
1.13796e-07
7.55456e-06
1.23541e-07
7.55228e-06
1.07489e-07
7.55172e-06
9.05202e-08
8.92837e-08
7.554e-06
7.93066e-06
4.18232e-08
7.92855e-06
-4.7983e-08
7.9155e-06
-1.10916e-07
7.91809e-06
-9.04134e-09
7.93916e-06
1.13655e-07
7.94559e-06
2.6616e-08
7.93857e-06
-9.46892e-08
7.92026e-06
-1.64043e-07
7.89955e-06
-1.49087e-07
7.8913e-06
-3.72107e-08
7.88663e-06
2.13824e-08
7.88906e-06
5.96208e-08
7.89948e-06
1.29615e-07
7.90428e-06
1.43135e-07
7.90571e-06
1.11991e-07
7.91129e-06
1.08211e-07
7.91514e-06
1.1969e-07
7.91378e-06
1.08846e-07
7.91284e-06
9.14613e-08
8.73019e-08
7.91482e-06
8.3092e-06
3.73082e-08
8.30761e-06
-4.63966e-08
8.29697e-06
-1.00271e-07
8.29763e-06
-9.70124e-09
8.31768e-06
9.35999e-08
8.32425e-06
2.00499e-08
8.31792e-06
-8.83605e-08
8.29945e-06
-1.45575e-07
8.27798e-06
-1.27619e-07
8.26965e-06
-2.88802e-08
8.2654e-06
2.56322e-08
8.26714e-06
5.78819e-08
8.27686e-06
1.19894e-07
8.28226e-06
1.37737e-07
8.28337e-06
1.10877e-07
8.28812e-06
1.0346e-07
8.29276e-06
1.15052e-07
8.29247e-06
1.09141e-07
8.29144e-06
9.24896e-08
8.57828e-08
8.29296e-06
8.70587e-06
3.30977e-08
8.70461e-06
-4.51347e-08
8.69583e-06
-9.14946e-08
8.69514e-06
-9.01018e-09
8.71338e-06
7.53672e-08
8.71936e-06
1.40612e-08
8.70926e-06
-7.8256e-08
8.69065e-06
-1.26962e-07
8.67357e-06
-1.10542e-07
8.66651e-06
-2.18251e-08
8.66259e-06
2.95575e-08
8.66357e-06
5.68977e-08
8.67244e-06
1.11029e-07
8.67833e-06
1.31844e-07
8.67942e-06
1.09788e-07
8.68326e-06
9.96223e-08
8.68831e-06
1.09995e-07
8.68912e-06
1.08331e-07
8.68827e-06
9.33427e-08
8.47128e-08
8.68934e-06
9.12156e-06
2.91527e-08
9.12065e-06
-4.42233e-08
9.1126e-06
-8.34464e-08
9.11015e-06
-6.55304e-09
9.11994e-06
6.55779e-08
9.12299e-06
1.10118e-08
9.11534e-06
-7.06138e-08
9.10188e-06
-1.13497e-07
9.08832e-06
-9.69803e-08
9.08266e-06
-1.61687e-08
9.07903e-06
3.31903e-08
9.07922e-06
5.67094e-08
9.08712e-06
1.03121e-07
9.09338e-06
1.25588e-07
9.09468e-06
1.08485e-07
9.09764e-06
9.66697e-08
9.10276e-06
1.0487e-07
9.10461e-06
1.06484e-07
9.10412e-06
9.38303e-08
8.39691e-08
9.10486e-06
9.55718e-06
2.54311e-08
9.55601e-06
-4.3047e-08
9.54878e-06
-7.62225e-08
9.54536e-06
-3.12865e-09
9.55377e-06
5.71631e-08
9.55685e-06
7.93551e-09
9.54939e-06
-6.31549e-08
9.53578e-06
-9.98881e-08
9.52326e-06
-8.44566e-08
9.51851e-06
-1.14254e-08
9.51536e-06
3.63392e-08
9.51503e-06
5.70456e-08
9.52184e-06
9.63094e-08
9.52827e-06
1.19159e-07
9.52995e-06
1.06803e-07
9.5322e-06
9.44251e-08
9.53708e-06
9.99867e-08
9.53984e-06
1.03725e-07
9.53989e-06
9.3776e-08
8.33766e-08
9.54049e-06
1.00137e-05
2.19022e-08
1.00117e-05
-4.11143e-08
1.00058e-05
-7.02793e-08
1.00027e-05
-6.8273e-11
1.00095e-05
5.03594e-08
1.00119e-05
5.59726e-09
1.00047e-05
-5.59625e-08
9.99129e-06
-8.65044e-08
9.97927e-06
-7.2435e-08
9.97502e-06
-7.17171e-09
9.97255e-06
3.88065e-08
9.97193e-06
5.76681e-08
9.97765e-06
9.05894e-08
9.98398e-06
1.12829e-07
9.98613e-06
1.04652e-07
9.98791e-06
9.26446e-08
9.99233e-06
9.557e-08
9.99578e-06
1.00276e-07
9.99649e-06
9.306e-08
8.27844e-08
9.99708e-06
1.0492e-05
1.85654e-08
1.04894e-05
-3.85236e-08
1.04845e-05
-6.54125e-08
1.04823e-05
2.12635e-09
1.04873e-05
4.53869e-08
1.04887e-05
4.19699e-09
1.04819e-05
-4.9161e-08
1.04691e-05
-7.36751e-08
1.04573e-05
-6.06934e-08
1.04533e-05
-3.16379e-09
1.04515e-05
4.06431e-08
1.04508e-05
5.83308e-08
1.04556e-05
8.58353e-08
1.04616e-05
1.06797e-07
1.04642e-05
1.02049e-07
1.04658e-05
9.10805e-08
1.04696e-05
9.17206e-08
1.04735e-05
9.64137e-08
1.04749e-05
9.16483e-08
8.20535e-08
1.04756e-05
1.09931e-05
1.54346e-08
1.099e-05
-3.5393e-08
1.09859e-05
-6.1335e-08
1.09846e-05
3.46294e-09
1.09881e-05
4.19032e-08
1.09884e-05
3.8666e-09
1.0982e-05
-4.27213e-08
1.09699e-05
-6.16263e-08
1.09586e-05
-4.93203e-08
1.09546e-05
8.39058e-10
1.09532e-05
4.19479e-08
1.09527e-05
5.88977e-08
1.09566e-05
8.18907e-08
1.09622e-05
1.01176e-07
1.09652e-05
9.9084e-08
1.09667e-05
8.95453e-08
1.09701e-05
8.84163e-08
1.09741e-05
9.23974e-08
1.09761e-05
8.95953e-08
8.10516e-08
1.09771e-05
1.15183e-05
1.25481e-08
1.15148e-05
-3.19121e-08
1.15109e-05
-5.74663e-08
1.15104e-05
3.92335e-09
1.15129e-05
3.94313e-08
1.15122e-05
4.60259e-09
1.1506e-05
-3.65332e-08
1.14949e-05
-5.05399e-08
1.1484e-05
-3.84284e-08
1.14799e-05
4.9361e-09
1.1479e-05
4.29053e-08
1.14785e-05
5.93051e-08
1.14819e-05
7.85494e-08
1.14871e-05
9.60073e-08
1.14903e-05
9.58857e-08
1.14919e-05
8.78856e-08
1.14948e-05
8.55646e-08
1.14987e-05
8.84431e-08
1.15013e-05
8.70247e-08
7.97075e-08
1.15026e-05
1.20684e-05
9.96911e-09
1.20646e-05
-2.81613e-08
1.20605e-05
-5.32878e-08
1.20608e-05
3.59748e-09
1.20628e-05
3.74129e-08
1.20612e-05
6.25845e-09
1.20551e-05
-3.04546e-08
1.2045e-05
-4.0493e-08
1.20348e-05
-2.82091e-08
1.20306e-05
9.18389e-09
1.20298e-05
4.36576e-08
1.20296e-05
5.95211e-08
1.20324e-05
7.57e-08
1.20372e-05
9.12509e-08
1.20405e-05
9.25977e-08
1.20423e-05
8.6039e-08
1.20449e-05
8.30325e-08
1.20486e-05
8.46957e-08
1.20516e-05
8.40752e-08
7.80036e-08
1.20533e-05
1.26448e-05
7.76788e-09
1.26407e-05
-2.40998e-08
1.26357e-05
-4.82543e-08
1.26368e-05
2.48731e-09
1.26389e-05
3.52756e-08
1.26366e-05
8.58135e-09
1.26305e-05
-2.43606e-08
1.26215e-05
-3.14152e-08
1.26121e-05
-1.88785e-08
1.26078e-05
1.35391e-08
1.2607e-05
4.43967e-08
1.2607e-05
5.95517e-08
1.26095e-05
7.32256e-08
1.26138e-05
8.68897e-08
1.26172e-05
8.92614e-08
1.26192e-05
8.40039e-08
1.26216e-05
8.0684e-08
1.2625e-05
8.12117e-08
1.26282e-05
8.08933e-08
7.59522e-08
1.26303e-05
1.32487e-05
6.00832e-09
1.32443e-05
-1.96951e-08
1.32385e-05
-4.24452e-08
1.324e-05
9.74685e-10
1.32426e-05
3.27e-08
1.32399e-05
1.12764e-08
1.32336e-05
-1.81357e-08
1.32254e-05
-2.31648e-08
1.3217e-05
-1.05071e-08
1.32127e-05
1.78214e-08
1.32119e-05
4.5204e-08
1.3212e-05
5.94683e-08
1.32142e-05
7.10544e-08
1.32182e-05
8.28776e-08
1.32216e-05
8.59088e-08
1.32238e-05
8.17925e-08
1.3226e-05
7.84313e-08
1.32292e-05
7.79947e-08
1.32325e-05
7.76299e-08
7.36016e-08
1.32349e-05
1.38815e-05
4.71384e-09
1.38772e-05
-1.54772e-08
1.38708e-05
-3.60003e-08
1.3872e-05
-2.76298e-10
1.3875e-05
2.97407e-08
1.38722e-05
1.4064e-08
1.38658e-05
-1.17283e-08
1.38582e-05
-1.55621e-08
1.38508e-05
-3.10214e-09
1.38467e-05
2.18867e-08
1.38459e-05
4.60554e-08
1.3846e-05
5.9349e-08
1.38479e-05
6.91352e-08
1.38516e-05
7.92099e-08
1.38549e-05
8.25863e-08
1.38573e-05
7.94061e-08
1.38595e-05
7.61901e-08
1.38625e-05
7.50056e-08
1.38658e-05
7.43764e-08
7.10111e-08
1.38684e-05
1.45445e-05
3.8865e-09
1.45406e-05
-1.15435e-08
1.45339e-05
-2.93299e-08
1.45345e-05
-8.64132e-10
1.45376e-05
2.65773e-08
1.4535e-05
1.67066e-08
1.45285e-05
-5.18402e-09
1.45213e-05
-8.42374e-09
1.45148e-05
3.44466e-09
1.45111e-05
2.55921e-08
1.45102e-05
4.69175e-08
1.45104e-05
5.91934e-08
1.4512e-05
6.74466e-08
1.45154e-05
7.58563e-08
1.45187e-05
7.93301e-08
1.45212e-05
7.68938e-08
1.45235e-05
7.38808e-08
1.45263e-05
7.21986e-08
1.45295e-05
7.11969e-08
6.82443e-08
1.45322e-05
1.52393e-05
3.48376e-09
1.52359e-05
-8.13962e-09
1.52292e-05
-2.26867e-08
1.52288e-05
-4.71906e-10
1.52319e-05
2.35658e-08
1.52296e-05
1.89887e-08
1.52231e-05
1.33379e-09
1.52162e-05
-1.56255e-09
1.52104e-05
9.24992e-09
1.52071e-05
2.88771e-08
1.52063e-05
4.77292e-08
1.52065e-05
5.89934e-08
1.5208e-05
6.59705e-08
1.5211e-05
7.27965e-08
1.52142e-05
7.61347e-08
1.52168e-05
7.43159e-08
1.52192e-05
7.14768e-08
1.52219e-05
6.94935e-08
1.5225e-05
6.81505e-08
6.53608e-08
1.52278e-05
1.59674e-05
3.43909e-09
1.59645e-05
-5.25445e-09
1.59582e-05
-1.63553e-08
1.59567e-05
9.71114e-10
1.59592e-05
2.10744e-08
1.59574e-05
2.08215e-08
1.59511e-05
7.59566e-09
1.59445e-05
5.08405e-09
1.59392e-05
1.45131e-08
1.59363e-05
3.1754e-08
1.59357e-05
4.83927e-08
1.59359e-05
5.87477e-08
1.59372e-05
6.46468e-08
1.594e-05
7.00408e-08
1.59431e-05
7.30163e-08
1.59457e-05
7.16778e-08
1.59482e-05
6.90226e-08
1.59509e-05
6.67953e-08
1.59538e-05
6.52452e-08
6.24323e-08
1.59567e-05
1.67304e-05
3.67853e-09
1.67277e-05
-2.61763e-09
1.6722e-05
-1.06262e-08
1.67197e-05
3.28028e-09
1.67214e-05
1.94082e-08
1.67199e-05
2.22516e-08
1.67142e-05
1.33598e-08
1.67078e-05
1.1493e-08
1.67028e-05
1.94158e-08
1.67003e-05
3.4294e-08
1.66998e-05
4.8877e-08
1.67002e-05
5.83831e-08
1.67014e-05
6.34379e-08
1.67039e-05
6.75554e-08
1.67069e-05
7.00384e-08
1.67096e-05
6.89703e-08
1.6712e-05
6.65422e-08
1.67148e-05
6.40838e-08
1.67176e-05
6.24121e-08
5.95543e-08
1.67205e-05
1.75299e-05
4.11697e-09
1.75275e-05
-1.74446e-10
1.75224e-05
-5.53831e-09
1.75194e-05
6.2451e-09
1.75201e-05
1.87623e-08
1.75189e-05
2.34556e-08
1.75138e-05
1.84507e-08
1.75077e-05
1.75809e-08
1.75031e-05
2.40359e-08
1.75008e-05
3.66104e-08
1.75004e-05
4.92364e-08
1.75009e-05
5.78371e-08
1.75021e-05
6.22828e-08
1.75044e-05
6.52936e-08
1.75072e-05
6.7214e-08
1.75099e-05
6.62419e-08
1.75124e-05
6.40105e-08
1.75151e-05
6.13969e-08
1.7518e-05
5.95786e-08
5.67628e-08
1.75208e-05
1.83678e-05
4.67856e-09
1.83653e-05
2.2716e-09
1.83609e-05
-1.12091e-09
1.83576e-05
9.56595e-09
1.83572e-05
1.91518e-08
1.8356e-05
2.46796e-08
1.83516e-05
2.28221e-08
1.8346e-05
2.32108e-08
1.83416e-05
2.84023e-08
1.83394e-05
3.87957e-08
1.83391e-05
4.95258e-08
1.83398e-05
5.71419e-08
1.8341e-05
6.10896e-08
1.83431e-05
6.32228e-08
1.83458e-05
6.45144e-08
1.83485e-05
6.35423e-08
1.83511e-05
6.14352e-08
1.83537e-05
5.87311e-08
1.83566e-05
5.6747e-08
5.39997e-08
1.83593e-05
1.92458e-05
5.30696e-09
1.92432e-05
4.80159e-09
1.92394e-05
2.75642e-09
1.9236e-05
1.29608e-08
1.92347e-05