/*--------------------------------*- C++ -*----------------------------------*\
| =========                 |                                                 |
| \\      /  F ield         | OpenFOAM: The Open Source CFD Toolbox           |
|  \\    /   O peration     | Version:  v1906                                 |
|   \\  /    A nd           | Web:      www.OpenFOAM.com                      |
|    \\/     M anipulation  |                                                 |
\*---------------------------------------------------------------------------*/
FoamFile
{
    version     2.0;
    format      ascii;
    class       surfaceScalarField;
    location    "5.5";
    object      phi;
}
// * * * * * * * * * * * * * * * * * * * * * * * * * * * * * * * * * * * * * //

dimensions      [0 3 -1 0 0 0 0];
oriented        oriented;


internalField   nonuniform List<scalar> 
19000
(
1.1756e-06
-5.48336e-07
1.17614e-06
1.15228e-06
1.10301e-06
4.16028e-08
1.16112e-06
-1.0987e-06
1.2723e-06
-2.75194e-06
1.27216e-06
-1.56215e-07
1.22729e-06
3.82151e-07
1.22843e-06
9.62517e-07
1.20497e-06
2.52674e-07
1.21349e-06
-1.82433e-07
1.2265e-06
-1.15605e-06
1.21295e-06
-1.08822e-06
1.22475e-06
-1.10162e-06
1.21516e-06
-5.90265e-07
1.23308e-06
-5.2317e-07
1.22624e-06
-2.27484e-07
1.23726e-06
-1.59768e-07
1.23059e-06
-5.1366e-08
1.22826e-06
1.4765e-08
4.77102e-08
1.20023e-06
1.23327e-06
-5.57341e-07
1.26001e-06
1.12554e-06
1.16098e-06
1.40636e-07
1.19645e-06
-1.13417e-06
1.32153e-06
-2.87703e-06
1.33955e-06
-1.74231e-07
1.28691e-06
4.34795e-07
1.3102e-06
9.39225e-07
1.28201e-06
2.80866e-07
1.29198e-06
-1.92409e-07
1.28418e-06
-1.14825e-06
1.2671e-06
-1.07113e-06
1.2725e-06
-1.10703e-06
1.27457e-06
-5.92338e-07
1.28557e-06
-5.34166e-07
1.29576e-06
-2.37675e-07
1.29135e-06
-1.55361e-07
1.30585e-06
-6.58612e-08
1.27929e-06
4.13286e-08
3.91203e-08
1.28788e-06
1.29188e-06
-5.66442e-07
1.34311e-06
1.07432e-06
1.22633e-06
2.57411e-07
1.23633e-06
-1.14417e-06
1.36162e-06
-3.00232e-06
1.40478e-06
-2.1739e-07
1.35398e-06
4.85591e-07
1.38736e-06
9.05844e-07
1.36861e-06
2.99624e-07
1.36497e-06
-1.88773e-07
1.33685e-06
-1.12013e-06
1.31874e-06
-1.05302e-06
1.31273e-06
-1.10102e-06
1.32456e-06
-6.0416e-07
1.33207e-06
-5.41685e-07
1.35172e-06
-2.57317e-07
1.34995e-06
-1.5359e-07
1.36332e-06
-7.92336e-08
1.35128e-06
5.33658e-08
4.77962e-08
1.34261e-06
1.35055e-06
-5.72889e-07
1.4151e-06
1.00976e-06
1.29476e-06
3.77756e-07
1.28257e-06
-1.13199e-06
1.39073e-06
-3.11047e-06
1.4559e-06
-2.82562e-07
1.42516e-06
5.16333e-07
1.4614e-06
8.69608e-07
1.45617e-06
3.0485e-07
1.44161e-06
-1.74209e-07
1.39886e-06
-1.07738e-06
1.37347e-06
-1.02763e-06
1.35815e-06
-1.0857e-06
1.37091e-06
-6.16923e-07
1.37937e-06
-5.50138e-07
1.40178e-06
-2.79725e-07
1.40826e-06
-1.60074e-07
1.42092e-06
-9.18904e-08
1.41918e-06
5.50978e-08
5.74547e-08
1.40953e-06
1.41029e-06
-5.7482e-07
1.47525e-06
9.44795e-07
1.36729e-06
4.8572e-07
1.33718e-06
-1.10188e-06
1.41482e-06
-3.18811e-06
1.49368e-06
-3.61423e-07
1.49691e-06
5.13096e-07
1.53741e-06
8.29115e-07
1.5438e-06
2.98459e-07
1.52147e-06
-1.51876e-07
1.46746e-06
-1.02338e-06
1.43354e-06
-9.93718e-07
1.41107e-06
-1.06322e-06
1.42165e-06
-6.27509e-07
1.43037e-06
-5.58854e-07
1.45448e-06
-3.03832e-07
1.4662e-06
-1.718e-07
1.48142e-06
-1.07105e-07
1.48552e-06
5.09894e-08
6.37946e-08
1.47918e-06
1.47329e-06
-5.72439e-07
1.52933e-06
8.8876e-07
1.44529e-06
5.69756e-07
1.40152e-06
-1.05811e-06
1.44325e-06
-3.22983e-06
1.52862e-06
-4.46797e-07
1.56954e-06
4.72176e-07
1.6187e-06
7.79953e-07
1.63167e-06
2.85493e-07
1.60394e-06
-1.24152e-07
1.54085e-06
-9.60276e-07
1.49956e-06
-9.52433e-07
1.47104e-06
-1.0347e-06
1.47889e-06
-6.35351e-07
1.48664e-06
-5.66607e-07
1.51162e-06
-3.28809e-07
1.52651e-06
-1.867e-07
1.54408e-06
-1.24672e-07
1.55343e-06
4.16466e-08
6.70089e-08
1.55021e-06
1.54148e-06
-5.67699e-07
1.58529e-06
8.44947e-07
1.52923e-06
6.25819e-07
1.47578e-06
-1.00466e-06
1.4842e-06
-3.23825e-06
1.57236e-06
-5.34957e-07
1.64541e-06
3.99123e-07
1.70495e-06
7.20409e-07
1.71906e-06
2.7139e-07
1.68631e-06
-9.14032e-08
1.61604e-06
-8.90009e-07
1.56985e-06
-9.06242e-07
1.5369e-06
-1.00176e-06
1.54217e-06
-6.40614e-07
1.54845e-06
-5.72891e-07
1.57333e-06
-3.53692e-07
1.5904e-06
-2.03766e-07
1.60922e-06
-1.43499e-07
1.62325e-06
2.76208e-08
6.72538e-08
1.623e-06
1.61519e-06
-5.62764e-07
1.64899e-06
8.11146e-07
1.61853e-06
6.56282e-07
1.55887e-06
-9.44994e-07
1.54124e-06
-3.22063e-06
1.63097e-06
-6.24688e-07
1.7257e-06
3.04392e-07
1.79279e-06
6.53324e-07
1.8036e-06
2.60574e-07
1.76622e-06
-5.40157e-08
1.69154e-06
-8.15331e-07
1.64345e-06
-8.58156e-07
1.608e-06
-9.66303e-07
1.61089e-06
-6.43507e-07
1.6152e-06
-5.77204e-07
1.63896e-06
-3.77444e-07
1.65736e-06
-2.22171e-07
1.67648e-06
-1.62618e-07
1.69434e-06
9.7613e-09
6.45941e-08
1.697e-06
1.6934e-06
-5.58586e-07
1.7221e-06
7.82439e-07
1.71192e-06
6.66468e-07
1.6491e-06
-8.82177e-07
1.61337e-06
-3.1849e-06
1.70364e-06
-7.14959e-07
1.80871e-06
1.99326e-07
1.87764e-06
5.84387e-07
1.88244e-06
2.55779e-07
1.84212e-06
-1.37008e-08
1.76671e-06
-7.39911e-07
1.71987e-06
-8.11323e-07
1.68389e-06
-9.3032e-07
1.6846e-06
-6.44213e-07
1.68622e-06
-5.78829e-07
1.70745e-06
-3.98676e-07
1.72609e-06
-2.40813e-07
1.74454e-06
-1.81069e-07
1.76523e-06
-1.09264e-08
5.91376e-08
1.77069e-06
1.77485e-06
-5.54718e-07
1.80278e-06
7.54515e-07
1.80753e-06
6.61716e-07
1.74491e-06
-8.1956e-07
1.69727e-06
-3.13726e-06
1.78526e-06
-8.02949e-07
1.89052e-06
9.40643e-08
1.95559e-06
5.19319e-07
1.95374e-06
2.5763e-07
1.91374e-06
2.62992e-08
1.84179e-06
-6.67964e-07
1.79902e-06
-7.68552e-07
1.76422e-06
-8.95516e-07
1.76297e-06
-6.42966e-07
1.76132e-06
-5.77172e-07
1.77842e-06
-4.15782e-07
1.79578e-06
-2.58169e-07
1.81235e-06
-1.97644e-07
1.8345e-06
-3.30743e-08
5.11778e-08
1.84246e-06
1.85919e-06
-5.50156e-07
1.88808e-06
7.25621e-07
1.9034e-06
6.46396e-07
1.84501e-06
-7.61165e-07
1.78937e-06
-3.08162e-06
1.87e-06
-8.83578e-07
1.96717e-06
-3.11345e-09
2.02468e-06
4.61812e-07
2.01781e-06
2.645e-07
1.98227e-06
6.18427e-08
1.91779e-06
-6.03481e-07
1.8811e-06
-7.31868e-07
1.84871e-06
-8.63122e-07
1.84588e-06
-6.40137e-07
1.8409e-06
-5.72191e-07
1.85265e-06
-4.27534e-07
1.86712e-06
-2.72641e-07
1.88044e-06
-2.10962e-07
1.90221e-06
-5.48434e-08
4.14264e-08
1.91196e-06
1.94689e-06
-5.44202e-07
1.97615e-06
6.96359e-07
1.9984e-06
6.24141e-07
1.94816e-06
-7.10926e-07
1.88673e-06
-3.02019e-06
1.95405e-06
-9.50893e-07
2.03712e-06
-8.61783e-08
2.08607e-06
4.12858e-07
2.07751e-06
2.73057e-07
2.05037e-06
8.89903e-08
1.99621e-06
-5.49327e-07
1.96654e-06
-7.02195e-07
1.93721e-06
-8.33792e-07
1.93329e-06
-6.3622e-07
1.92564e-06
-5.64536e-07
1.93172e-06
-4.33618e-07
1.94221e-06
-2.83127e-07
1.95112e-06
-2.19879e-07
1.97052e-06
-7.42379e-08
3.10535e-08
1.98089e-06
2.03873e-06
-5.36742e-07
2.06688e-06
6.68209e-07
2.093e-06
5.98016e-07
2.05335e-06
-6.71274e-07
1.98744e-06
-2.95429e-06
2.03719e-06
-1.00064e-06
2.1029e-06
-1.51888e-07
2.14443e-06
3.71328e-07
2.13787e-06
2.79618e-07
2.12161e-06
1.05253e-07
2.07883e-06
-5.06554e-07
2.05592e-06
-6.79278e-07
2.02974e-06
-8.07613e-07
2.0252e-06
-6.31683e-07
2.01598e-06
-5.55312e-07
2.01709e-06
-4.34734e-07
2.02336e-06
-2.89397e-07
2.02746e-06
-2.2398e-07
2.04286e-06
-8.96342e-08
2.13721e-08
2.05254e-06
2.13529e-06
-5.28033e-07
2.16127e-06
6.42232e-07
2.18898e-06
5.70305e-07
2.16009e-06
-6.42381e-07
2.09072e-06
-2.88492e-06
2.12227e-06
-1.03219e-06
2.17043e-06
-2.00054e-07
2.20657e-06
3.35192e-07
2.2045e-06
2.81686e-07
2.19941e-06
1.10344e-07
2.1672e-06
-4.74345e-07
2.14985e-06
-6.61929e-07
2.12649e-06
-7.84246e-07
2.12161e-06
-6.26807e-07
2.11192e-06
-5.4562e-07
2.1094e-06
-4.32217e-07
2.11202e-06
-2.9202e-07
2.11175e-06
-2.2371e-07
2.12241e-06
-1.00289e-07
1.34046e-08
2.13038e-06
2.23686e-06
-5.18408e-07
2.26043e-06
6.18669e-07
2.28839e-06
5.42346e-07
2.26864e-06
-6.22635e-07
2.19676e-06
-2.81303e-06
2.21296e-06
-1.0484e-06
2.24589e-06
-2.32986e-07
2.27852e-06
3.0256e-07
2.28158e-06
2.78632e-07
2.28599e-06
1.05934e-07
2.26229e-06
-4.50647e-07
2.24885e-06
-6.48492e-07
2.22774e-06
-7.63134e-07
2.22256e-06
-6.21627e-07
2.21312e-06
-5.36183e-07
2.20837e-06
-4.2746e-07
2.20831e-06
-2.91965e-07
2.20473e-06
-2.2013e-07
2.21083e-06
-1.06385e-07
7.5698e-09
2.21666e-06
2.34359e-06
-5.08119e-07
2.36508e-06
5.97179e-07
2.39272e-06
5.14706e-07
2.37985e-06
-6.09766e-07
2.30622e-06
-2.73941e-06
2.31156e-06
-1.05373e-06
2.33281e-06
-2.54233e-07
2.36328e-06
2.72085e-07
2.37067e-06
2.71248e-07
2.38198e-06
9.46212e-08
2.36445e-06
-4.33123e-07
2.35329e-06
-6.37325e-07
2.33385e-06
-7.43694e-07
2.32823e-06
-6.1601e-07
2.31928e-06
-5.27231e-07
2.31331e-06
-4.21493e-07
2.31151e-06
-2.90161e-07
2.30586e-06
-2.14477e-07
2.3082e-06
-1.08725e-07
3.69984e-09
2.31207e-06
2.4556e-06
-4.97323e-07
2.47558e-06
5.77194e-07
2.50274e-06
4.87551e-07
2.49471e-06
-6.01734e-07
2.41981e-06
-2.66451e-06
2.41842e-06
-1.05234e-06
2.43147e-06
-2.67284e-07
2.46067e-06
2.42884e-07
2.47115e-06
2.60768e-07
2.48687e-06
7.88962e-08
2.47362e-06
-4.19872e-07
2.4634e-06
-6.27107e-07
2.44512e-06
-7.25412e-07
2.4389e-06
-6.09791e-07
2.43031e-06
-5.18635e-07
2.42369e-06
-4.14877e-07
2.42079e-06
-2.87261e-07
2.41408e-06
-2.0777e-07
2.4137e-06
-1.08345e-07
1.30914e-09
2.41609e-06
2.57307e-06
-4.861e-07
2.59216e-06
5.58106e-07
2.61876e-06
4.60953e-07
2.61406e-06
-5.97033e-07
2.53805e-06
-2.5885e-06
2.53279e-06
-1.04708e-06
2.54035e-06
-2.74846e-07
2.56889e-06
2.14343e-07
2.58151e-06
2.48148e-07
2.59978e-06
6.06238e-08
2.58958e-06
-4.09667e-07
2.57941e-06
-6.1694e-07
2.56186e-06
-7.07859e-07
2.55491e-06
-6.02843e-07
2.54639e-06
-5.10116e-07
2.53934e-06
-4.07826e-07
2.53571e-06
-2.83628e-07
2.52861e-06
-2.00675e-07
2.52646e-06
-1.06187e-07
-1.42424e-10
2.52791e-06
2.69621e-06
-4.74481e-07
2.71501e-06
5.39308e-07
2.74096e-06
4.35e-07
2.73853e-06
-5.94597e-07
2.6614e-06
-2.51137e-06
2.65389e-06
-1.03958e-06
2.65782e-06
-2.78777e-07
2.68617e-06
1.86001e-07
2.70044e-06
2.33875e-07
2.72e-06
4.10614e-08
2.71214e-06
-4.01801e-07
2.70152e-06
-6.06319e-07
2.68433e-06
-6.90674e-07
2.6766e-06
-5.95113e-07
2.66789e-06
-5.01403e-07
2.66044e-06
-4.00377e-07
2.65626e-06
-2.79444e-07
2.64912e-06
-1.93539e-07
2.64592e-06
-1.02988e-07
-1.08446e-09
2.64686e-06
2.82524e-06
-4.62451e-07
2.84432e-06
5.20225e-07
2.86954e-06
4.09781e-07
2.86859e-06
-5.93643e-07
2.79027e-06
-2.43306e-06
2.78138e-06
-1.03069e-06
2.78295e-06
-2.80343e-07
2.81141e-06
1.57542e-07
2.82717e-06
2.18116e-07
2.84716e-06
2.10741e-08
2.84119e-06
-3.95835e-07
2.8299e-06
-5.95033e-07
2.8128e-06
-6.73571e-07
2.80429e-06
-5.86603e-07
2.79519e-06
-4.92307e-07
2.78732e-06
-3.92504e-07
2.78268e-06
-2.74807e-07
2.77569e-06
-1.86546e-07
2.77194e-06
-9.92415e-08
-1.81196e-09
2.77267e-06
2.9604e-06
-4.49959e-07
2.98027e-06
5.00358e-07
3.0047e-06
3.85355e-07
3.00463e-06
-5.9358e-07
2.92511e-06
-2.35353e-06
2.91532e-06
-1.0209e-06
2.91543e-06
-2.80458e-07
2.94416e-06
1.2881e-07
2.96135e-06
2.00931e-07
2.98113e-06
1.29065e-09
2.97671e-06
-3.91413e-07
2.96474e-06
-5.83069e-07
2.94752e-06
-6.56342e-07
2.93827e-06
-5.7736e-07
2.9287e-06
-4.82733e-07
2.92036e-06
-3.84166e-07
2.91537e-06
-2.69814e-07
2.90862e-06
-1.79798e-07
2.90462e-06
-9.52416e-08
-2.51436e-09
2.90532e-06
3.10198e-06
-4.36933e-07
3.123e-06
4.7934e-07
3.14661e-06
3.61743e-07
3.147e-06
-5.93971e-07
3.06636e-06
-2.27289e-06
3.05592e-06
-1.01046e-06
3.05528e-06
-2.79814e-07
3.08427e-06
9.98217e-08
3.10281e-06
1.82386e-07
3.12195e-06
-1.78446e-08
3.11873e-06
-3.88199e-07
3.10622e-06
-5.70553e-07
3.08873e-06
-6.3886e-07
3.07884e-06
-5.67462e-07
3.06878e-06
-4.72682e-07
3.05995e-06
-3.75334e-07
3.05469e-06
-2.64552e-07
3.04828e-06
-1.73387e-07
3.04415e-06
-9.11129e-08
-3.30898e-09
3.04494e-06
3.25027e-06
-4.23295e-07
3.27265e-06
4.56963e-07
3.29546e-06
3.38928e-07
3.296e-06
-5.9451e-07
3.21445e-06
-2.19134e-06
3.20348e-06
-9.9949e-07
3.2026e-06
-2.7893e-07
3.23168e-06
7.07382e-08
3.25148e-06
1.62587e-07
3.26969e-06
-3.60536e-08
3.26738e-06
-3.85894e-07
3.25452e-06
-5.5769e-07
3.23671e-06
-6.21051e-07
3.22625e-06
-5.57002e-07
3.21579e-06
-4.62219e-07
3.20647e-06
-3.66015e-07
3.20097e-06
-2.59054e-07
3.19502e-06
-1.67436e-07
3.1908e-06
-8.68908e-08
-4.20581e-09
3.19169e-06
3.40563e-06
-4.08989e-07
3.42941e-06
4.33174e-07
3.45148e-06
3.16867e-07
3.45194e-06
-5.94972e-07
3.36976e-06
-2.10916e-06
3.35827e-06
-9.88e-07
3.35753e-06
-2.7819e-07
3.38646e-06
4.18066e-08
3.40737e-06
1.41676e-07
3.42452e-06
-5.32039e-08
3.42287e-06
-3.84243e-07
3.4099e-06
-5.44717e-07
3.39174e-06
-6.02896e-07
3.3808e-06
-5.46056e-07
3.37005e-06
-4.51474e-07
3.36028e-06
-3.56237e-07
3.35454e-06
-2.53319e-07
3.34916e-06
-1.62056e-07
3.34488e-06
-8.2612e-08
-5.0863e-09
3.34576e-06
3.56842e-06
-3.93993e-07
3.59354e-06
4.0805e-07
3.61492e-06
2.95488e-07
3.61511e-06
-5.95163e-07
3.53264e-06
-2.02669e-06
3.52057e-06
-9.75925e-07
3.52027e-06
-2.77889e-07
3.54878e-06
1.32967e-08
3.57064e-06
1.19809e-07
3.5867e-06
-6.92649e-08
3.58549e-06
-3.83028e-07
3.57263e-06
-5.31859e-07
3.55415e-06
-5.84418e-07
3.54276e-06
-5.3466e-07
3.5319e-06
-4.40614e-07
3.52173e-06
-3.46075e-07
3.51573e-06
-2.47314e-07
3.51097e-06
-1.57298e-07
3.50677e-06
-7.84141e-08
-5.71774e-09
3.5074e-06
3.73904e-06
-3.78331e-07
3.76533e-06
3.81762e-07
3.78613e-06
2.74689e-07
3.78585e-06
-5.94883e-07
3.70344e-06
-1.94428e-06
3.69069e-06
-9.63178e-07
3.69106e-06
-2.78254e-07
3.71891e-06
-1.45587e-08
3.74158e-06
9.71437e-08
3.75657e-06
-8.42611e-08
3.7556e-06
-3.82059e-07
3.74304e-06
-5.19295e-07
3.72431e-06
-5.65685e-07
3.71243e-06
-5.22783e-07
3.70162e-06
-4.29799e-07
3.6912e-06
-3.35659e-07
3.68488e-06
-2.4099e-07
3.68068e-06
-1.53102e-07
3.67683e-06
-7.45607e-08
-5.86042e-09
3.67697e-06
3.91793e-06
-3.62074e-07
3.94516e-06
3.54536e-07
3.96551e-06
2.54339e-07
3.96454e-06
-5.93918e-07
3.8825e-06
-1.86224e-06
3.869e-06
-9.49676e-07
3.87019e-06
-2.7944e-07
3.89723e-06
-4.15959e-08
3.92054e-06
7.38258e-08
3.93453e-06
-9.82481e-08
3.93364e-06
-3.81165e-07
3.92146e-06
-5.07122e-07
3.9026e-06
-5.46825e-07
3.89015e-06
-5.10327e-07
3.87951e-06
-4.19157e-07
3.86901e-06
-3.2516e-07
3.86234e-06
-2.34319e-07
3.85856e-06
-1.49322e-07
3.85529e-06
-7.12924e-08
-5.50937e-09
3.85494e-06
4.1055e-06
-3.45323e-07
4.13341e-06
3.26621e-07
4.15347e-06
2.34279e-07
4.1516e-06
-5.92041e-07
4.07023e-06
-1.78087e-06
4.05591e-06
-9.3536e-07
4.058e-06
-2.81531e-07
4.08411e-06
-6.77013e-08
4.10796e-06
4.99719e-08
4.12101e-06
-1.11294e-07
4.12003e-06
-3.80188e-07
4.10829e-06
-4.95378e-07
4.08943e-06
-5.27972e-07
4.0763e-06
-4.97195e-07
4.06588e-06
-4.08737e-07
4.05545e-06
-3.1473e-07
4.04847e-06
-2.27342e-07
4.04489e-06
-1.45736e-07
4.04239e-06
-6.87916e-08
-4.87278e-09
4.04175e-06
4.30217e-06
-3.2819e-07
4.33054e-06
2.98253e-07
4.35047e-06
2.14343e-07
4.34747e-06
-5.89033e-07
4.26702e-06
-1.70043e-06
4.25186e-06
-9.20199e-07
4.25485e-06
-2.84524e-07
4.27995e-06
-9.27986e-08
4.30425e-06
2.56775e-08
4.31643e-06
-1.23477e-07
4.31523e-06
-3.78989e-07
4.30392e-06
-4.84066e-07
4.28518e-06
-5.09235e-07
4.27132e-06
-4.83329e-07
4.26105e-06
-3.98473e-07
4.2508e-06
-3.04477e-07
4.2436e-06
-2.20141e-07
4.24008e-06
-1.42216e-07
4.23828e-06
-6.69959e-08
-4.36389e-09
4.23777e-06
4.50837e-06
-3.10782e-07
4.53697e-06
2.69652e-07
4.55695e-06
1.94364e-07
4.55262e-06
-5.8471e-07
4.47334e-06
-1.62115e-06
4.45733e-06
-9.04188e-07
4.46115e-06
-2.88351e-07
4.48518e-06
-1.16822e-07
4.50982e-06
1.03389e-09
4.52125e-06
-1.34905e-07
4.51969e-06
-3.77432e-07
4.50881e-06
-4.73184e-07
4.49026e-06
-4.90687e-07
4.47566e-06
-4.6873e-07
4.46539e-06
-3.88201e-07
4.45536e-06
-2.94443e-07
4.44803e-06
-2.12813e-07
4.44454e-06
-1.38726e-07
4.4433e-06
-6.57619e-08
-4.32848e-09
4.44327e-06
4.72453e-06
-2.93194e-07
4.75316e-06
2.41021e-07
4.77332e-06
1.74203e-07
4.76756e-06
-5.78947e-07
4.68963e-06
-1.54322e-06
4.6728e-06
-8.87355e-07
4.67735e-06
-2.92897e-07
4.70022e-06
-1.397e-07
4.72511e-06
-2.38563e-08
4.73591e-06
-1.45699e-07
4.73388e-06
-3.75401e-07
4.72341e-06
-4.62712e-07
4.70513e-06
-4.72411e-07
4.6898e-06
-4.53404e-07
4.67939e-06
-3.77789e-07
4.66959e-06
-2.84643e-07
4.66215e-06
-2.05373e-07
4.6587e-06
-1.35276e-07
4.65794e-06
-6.50003e-08
-4.90824e-09
4.65852e-06
4.9511e-06
-2.75501e-07
4.97957e-06
2.12552e-07
4.99999e-06
1.53785e-07
4.99276e-06
-5.71712e-07
4.91639e-06
-1.46685e-06
4.89877e-06
-8.6974e-07
4.90392e-06
-2.98045e-07
4.92557e-06
-1.61349e-07
4.95058e-06
-4.88688e-08
4.96087e-06
-1.55984e-07
4.95828e-06
-3.72811e-07
4.94819e-06
-4.52619e-07
4.93027e-06
-4.54501e-07
4.91426e-06
-4.37394e-07
4.90363e-06
-3.67158e-07
4.89417e-06
-2.75174e-07
4.8866e-06
-1.97807e-07
4.88316e-06
-1.31833e-07
4.88271e-06
-6.45539e-08
-6.11711e-09
4.88392e-06
5.18859e-06
-2.57773e-07
5.21671e-06
1.84433e-07
5.23737e-06
1.33125e-07
5.22874e-06
-5.63084e-07
5.1541e-06
-1.39222e-06
5.13576e-06
-8.51393e-07
5.14141e-06
-3.03698e-07
5.16174e-06
-1.81683e-07
5.1867e-06
-7.38246e-08
5.1966e-06
-1.65886e-07
5.19341e-06
-3.69621e-07
5.18365e-06
-4.42861e-07
5.1662e-06
-4.37049e-07
5.14963e-06
-4.20822e-07
5.13872e-06
-3.56253e-07
5.1296e-06
-2.66047e-07
5.12199e-06
-1.90207e-07
5.11845e-06
-1.28287e-07
5.11822e-06
-6.43282e-08
-7.84732e-09
5.11995e-06
5.4375e-06
-2.40082e-07
5.46509e-06
1.56845e-07
5.48588e-06
1.12332e-07
5.47604e-06
-5.53241e-07
5.4033e-06
-1.31948e-06
5.38427e-06
-8.32365e-07
5.39036e-06
-3.09795e-07
5.40931e-06
-2.00626e-07
5.43398e-06
-9.85015e-08
5.44358e-06
-1.75486e-07
5.43982e-06
-3.65859e-07
5.43033e-06
-4.33373e-07
5.41346e-06
-4.20175e-07
5.39647e-06
-4.03834e-07
5.38521e-06
-3.44987e-07
5.37648e-06
-2.57318e-07
5.36891e-06
-1.82639e-07
5.36517e-06
-1.24543e-07
5.36499e-06
-6.41552e-08
-1.01015e-08
5.36725e-06
5.69838e-06
-2.22504e-07
5.72527e-06
1.2995e-07
5.746e-06
9.16068e-08
5.73521e-06
-5.42446e-07
5.66451e-06
-1.24878e-06
5.64485e-06
-8.12708e-07
5.65137e-06
-3.16311e-07
5.66885e-06
-2.18107e-07
5.69298e-06
-1.22638e-07
5.70235e-06
-1.84849e-07
5.69806e-06
-3.61567e-07
5.68879e-06
-4.2411e-07
5.67263e-06
-4.04012e-07
5.65532e-06
-3.86527e-07
5.64369e-06
-3.3335e-07
5.63537e-06
-2.48998e-07
5.62791e-06
-1.75177e-07
5.62391e-06
-1.2055e-07
5.6237e-06
-6.39412e-08
-1.26919e-08
5.62629e-06
5.97181e-06
-2.05122e-07
5.99788e-06
1.03884e-07
6.01825e-06
7.12323e-08
6.00685e-06
-5.31047e-07
5.9383e-06
-1.18023e-06
5.91804e-06
-7.92447e-07
5.92498e-06
-3.23251e-07
5.94099e-06
-2.34124e-07
5.96428e-06
-1.45919e-07
5.97346e-06
-1.9403e-07
5.96867e-06
-3.56777e-07
5.95961e-06
-4.15056e-07
5.94428e-06
-3.88678e-07
5.92678e-06
-3.69025e-07
5.91476e-06
-3.21338e-07
5.90684e-06
-2.41071e-07
5.89958e-06
-1.67921e-07
5.89529e-06
-1.16263e-07
5.89498e-06
-6.36249e-08
-1.53763e-08
5.89766e-06
6.25839e-06
-1.88027e-07
6.28352e-06
7.87609e-08
6.30329e-06
5.14605e-08
6.29164e-06
-5.19395e-07
6.22527e-06
-1.11386e-06
6.20433e-06
-7.71506e-07
6.21174e-06
-3.30659e-07
6.22637e-06
-2.48753e-07
6.2485e-06
-1.68056e-07
6.25749e-06
-2.03018e-07
6.25223e-06
-3.51518e-07
6.2434e-06
-4.06225e-07
6.22896e-06
-3.74236e-07
6.21148e-06
-3.51541e-07
6.19906e-06
-3.08916e-07
6.19147e-06
-2.33491e-07
6.18453e-06
-1.60974e-07
6.17997e-06
-1.11706e-07
6.17942e-06
-6.30712e-08
-1.79714e-08
6.18201e-06
6.55876e-06
-1.71322e-07
6.58284e-06
5.4683e-08
6.60194e-06
3.2363e-08
6.59015e-06
-5.07605e-07
6.52613e-06
-1.04984e-06
6.50433e-06
-7.49706e-07
6.51217e-06
-3.38503e-07
6.5256e-06
-2.62186e-07
6.54636e-06
-1.88812e-07
6.55508e-06
-2.1174e-07
6.54937e-06
-3.4581e-07
6.54075e-06
-3.97603e-07
6.52729e-06
-3.60774e-07
6.51001e-06
-3.34266e-07
6.49716e-06
-2.96058e-07
6.48988e-06
-2.26209e-07
6.48342e-06
-1.54515e-07
6.47859e-06
-1.06875e-07
6.47772e-06
-6.22047e-08
-2.03304e-08
6.48008e-06
6.87359e-06
-1.55126e-07
6.89649e-06
3.17854e-08
6.91502e-06
1.383e-08
6.90293e-06
-4.95508e-07
6.84155e-06
-9.8846e-07
6.8188e-06
-7.26957e-07
6.82681e-06
-3.46512e-07
6.83933e-06
-2.74704e-07
6.85855e-06
-2.08037e-07
6.8669e-06
-2.20088e-07
6.86075e-06
-3.39662e-07
6.85226e-06
-3.89114e-07
6.8399e-06
-3.48415e-07
6.823e-06
-3.17367e-07
6.80967e-06
-2.82724e-07
6.80264e-06
-2.19179e-07
6.79686e-06
-1.48735e-07
6.79182e-06
-1.01839e-07
6.79059e-06
-6.09754e-08
-2.23245e-08
6.79259e-06
7.20359e-06
-1.39578e-07
7.22511e-06
1.02585e-08
7.24332e-06
-4.37662e-09
7.23048e-06
-4.8267e-07
7.17218e-06
-9.30153e-07
7.14857e-06
-7.03347e-07
7.1563e-06
-3.54242e-07
7.16813e-06
-2.86534e-07
7.1858e-06
-2.25709e-07
7.19368e-06
-2.27972e-07
7.18705e-06
-3.33022e-07
7.17857e-06
-3.80638e-07
7.16742e-06
-3.37265e-07
7.15105e-06
-3.00994e-07
7.13729e-06
-2.68967e-07
7.13035e-06
-2.12238e-07
7.12546e-06
-1.4385e-07
7.12042e-06
-9.67965e-08
7.1187e-06
-5.9259e-08
-2.39277e-08
7.12031e-06
7.54948e-06
-1.24832e-07
7.56939e-06
-9.65499e-09
7.58758e-06
-2.25645e-08
7.57347e-06
-4.6856e-07
7.51863e-06
-8.75311e-07
7.49448e-06
-6.79193e-07
7.5014e-06
-3.61168e-07
7.51264e-06
-2.97771e-07
7.52882e-06
-2.41892e-07
7.53616e-06
-2.35308e-07
7.52902e-06
-3.25887e-07
7.52036e-06
-3.7198e-07
7.51037e-06
-3.27275e-07
7.4948e-06
-2.85419e-07
7.48073e-06
-2.54901e-07
7.47371e-06
-2.0522e-07
7.46976e-06
-1.39892e-07
7.465e-06
-9.20429e-08
7.46278e-06
-5.70382e-08
-2.51318e-08
7.46399e-06
7.91203e-06
-1.11054e-07
7.93006e-06
-2.76852e-08
7.94853e-06
-4.10322e-08
7.93272e-06
-4.52751e-07
7.88152e-06
-8.24107e-07
7.85732e-06
-6.54996e-07
7.86299e-06
-3.66842e-07
7.8735e-06
-3.08273e-07
7.88831e-06
-2.56705e-07
7.89506e-06
-2.42056e-07
7.88742e-06
-3.18249e-07
7.87835e-06
-3.62904e-07
7.86935e-06
-3.18281e-07
7.85483e-06
-2.70902e-07
7.84073e-06
-2.40793e-07
7.83338e-06
-1.97876e-07
7.83027e-06
-1.3678e-07
7.82621e-06
-8.79822e-08
7.82353e-06
-5.43612e-08
-2.59349e-08
7.82433e-06
8.29205e-06
-9.84184e-08
8.30788e-06
-4.35187e-08
8.32684e-06
-5.99892e-08
8.30923e-06
-4.35146e-07
8.26146e-06
-7.76332e-07
8.23802e-06
-6.31558e-07
8.24201e-06
-3.70829e-07
8.25137e-06
-3.1764e-07
8.26491e-06
-2.7024e-07
8.27108e-06
-2.48226e-07
8.26295e-06
-3.10122e-07
8.25324e-06
-3.53197e-07
8.24491e-06
-3.09945e-07
8.23174e-06
-2.5774e-07
8.21791e-06
-2.26958e-07
8.21008e-06
-1.90043e-07
8.20759e-06
-1.34289e-07
8.20459e-06
-8.49885e-08
8.20164e-06
-5.14133e-08
-2.63334e-08
8.20204e-06
8.69033e-06
-8.70891e-08
8.70355e-06
-5.67332e-08
8.72314e-06
-7.95808e-08
8.70412e-06
-4.16124e-07
8.65891e-06
-7.3113e-07
8.63678e-06
-6.09421e-07
8.63911e-06
-3.73162e-07
8.64691e-06
-3.25442e-07
8.65917e-06
-2.82495e-07
8.66475e-06
-2.53813e-07
8.65625e-06
-3.01621e-07
8.64562e-06
-3.42564e-07
8.63768e-06
-3.02001e-07
8.62613e-06
-2.46196e-07
8.61295e-06
-2.13771e-07
8.60467e-06
-1.81771e-07
8.60238e-06
-1.31996e-07
8.60071e-06
-8.3313e-08
8.59794e-06
-4.86512e-08
-2.62533e-08
8.59786e-06
9.10772e-06
-7.71888e-08
9.11808e-06
-6.70945e-08
9.13813e-06
-9.96263e-08
9.11868e-06
-3.96676e-07
9.07468e-06
-6.87134e-07
9.05432e-06
-5.89056e-07
9.05538e-06
-3.74225e-07
9.06101e-06
-3.31075e-07
9.07159e-06
-2.93076e-07
9.07655e-06
-2.58769e-07
9.06795e-06
-2.93025e-07
9.05619e-06
-3.30798e-07
9.0485e-06
-2.94308e-07
9.03874e-06
-2.36439e-07
9.02661e-06
-2.01642e-07
9.0181e-06
-1.73259e-07
9.01557e-06
-1.29469e-07
9.01517e-06
-8.29097e-08
9.01314e-06
-4.66245e-08
-2.57171e-08
9.0126e-06
9.54507e-06
-6.87958e-08
9.5526e-06
-7.46294e-08
9.57258e-06
-1.19603e-07
9.55411e-06
-3.7821e-07
9.51007e-06
-6.43094e-07
9.49124e-06
-5.70223e-07
9.49159e-06
-3.74577e-07
9.49453e-06
-3.34014e-07
9.50283e-06
-3.01377e-07
9.5073e-06
-2.63241e-07
9.49896e-06
-2.84677e-07
9.48635e-06
-3.18197e-07
9.47866e-06
-2.86617e-07
9.47057e-06
-2.28349e-07
9.45979e-06
-1.90859e-07
9.45137e-06
-1.64837e-07
9.44832e-06
-1.26425e-07
9.44878e-06
-8.33688e-08
9.44799e-06
-4.5835e-08
-2.48637e-08
9.44714e-06
1.00033e-05
-6.19414e-08
1.00082e-05
-7.95727e-08
1.00274e-05
-1.38791e-07
1.00111e-05
-3.61912e-07
9.96646e-06
-5.98445e-07
9.94821e-06
-5.51966e-07
9.94849e-06
-3.74862e-07
9.94868e-06
-3.34198e-07
9.95425e-06
-3.06947e-07
9.95826e-06
-2.67258e-07
9.95061e-06
-2.77028e-07
9.93783e-06
-3.05416e-07
9.9297e-06
-2.78482e-07
9.92294e-06
-2.21587e-07
9.91355e-06
-1.81473e-07
9.9055e-06
-1.56787e-07
9.90197e-06
-1.22896e-07
9.90263e-06
-8.40301e-08
9.90328e-06
-4.64827e-08
-2.41383e-08
9.90256e-06
1.04833e-05
-5.65967e-08
1.0486e-05
-8.23009e-08
1.05037e-05
-1.56437e-07
1.04903e-05
-3.4856e-07
1.04452e-05
-5.53349e-07
1.04263e-05
-5.33092e-07
1.04271e-05
-3.75588e-07
1.04251e-05
-3.32267e-07
1.04274e-05
-3.09216e-07
1.04309e-05
-2.70782e-07
1.04244e-05
-2.70531e-07
1.04117e-05
-2.9271e-07
1.04031e-05
-2.69811e-07
1.03971e-05
-2.15664e-07
1.03891e-05
-1.73419e-07
1.03815e-05
-1.49235e-07
1.03777e-05
-1.19024e-07
1.0378e-05
-8.43828e-08
1.03798e-05
-4.82865e-08
-2.41653e-08
1.03798e-05
1.09861e-05
-5.26608e-08
1.09871e-05
-8.32767e-08
1.10026e-05
-1.71947e-07
1.09924e-05
-3.38349e-07
1.09479e-05
-5.08885e-07
1.09272e-05
-5.12392e-07
1.09285e-05
-3.76866e-07
1.09255e-05
-3.29331e-07
1.09244e-05
-3.08052e-07
1.09268e-05
-2.73197e-07
1.09214e-05
-2.651e-07
1.09092e-05
-2.8056e-07
1.09e-05
-2.60576e-07
1.08945e-05
-2.10193e-07
1.08875e-05
-1.66445e-07
1.08805e-05
-1.42215e-07
1.08765e-05
-1.14998e-07
1.08763e-05
-8.42032e-08
1.08787e-05
-5.06572e-08
-2.53328e-08
1.08798e-05
1.15127e-05
-4.99518e-08
1.15124e-05
-8.30093e-08
1.15253e-05
-1.84845e-07
1.1518e-05
-3.31081e-07
1.14757e-05
-4.66534e-07
1.14522e-05
-4.88962e-07
1.14534e-05
-3.78051e-07
1.1451e-05
-3.26903e-07
1.14469e-05
-3.03922e-07
1.14471e-05
-2.7347e-07
1.14423e-05
-2.60252e-07
1.14311e-05
-2.69339e-07
1.14215e-05
-2.50997e-07
1.14161e-05
-2.04819e-07
1.14101e-05
-1.60424e-07
1.14036e-05
-1.35675e-07
1.13996e-05
-1.10995e-07
1.13988e-05
-8.34536e-08
1.14011e-05
-5.29996e-08
-2.76203e-08
1.14034e-05
1.20641e-05
-4.82023e-08
1.20631e-05
-8.2063e-08
1.20728e-05
-1.94564e-07
1.20682e-05
-3.26456e-07
1.20294e-05
-4.27707e-07
1.2003e-05
-4.62616e-07
1.20029e-05
-3.77944e-07
1.2002e-05
-3.25978e-07
1.1996e-05
-2.97872e-07
1.19934e-05
-2.70896e-07
1.19884e-05
-2.55304e-07
1.19782e-05
-2.59071e-07
1.19686e-05
-2.41455e-07
1.19632e-05
-1.99414e-07
1.1958e-05
-1.55182e-07
1.19519e-05
-1.29631e-07
1.19479e-05
-1.06932e-07
1.19468e-05
-8.23605e-08
1.19486e-05
-5.48623e-08
-3.06545e-08
1.19517e-05
1.26415e-05
-4.70793e-08
1.26405e-05
-8.10738e-08
1.26466e-05
-2.00657e-07
1.26441e-05
-3.23983e-07
1.261e-05
-3.93573e-07
1.25812e-05
-4.3384e-07
1.25781e-05
-3.74844e-07
1.25789e-05
-3.26798e-07
1.25725e-05
-2.91426e-07
1.25671e-05
-2.65482e-07
1.25612e-05
-2.49456e-07
1.25516e-05
-2.49517e-07
1.25424e-05
-2.32169e-07
1.2537e-05
-1.94005e-07
1.25324e-05
-1.50615e-07
1.25269e-05
-1.24157e-07
1.25228e-05
-1.02836e-07
1.25214e-05
-8.09824e-08
1.25227e-05
-5.6113e-08
-3.38729e-08
1.25259e-05
1.32461e-05
-4.62033e-08
1.32457e-05
-8.06733e-08
1.32479e-05
-2.0287e-07
1.3247e-05
-3.23131e-07
1.32181e-05
-3.64705e-07
1.31879e-05
-4.03553e-07
1.31802e-05
-3.67209e-07
1.3182e-05
-3.28565e-07
1.31769e-05
-2.8632e-07
1.31695e-05
-2.58056e-07
1.31621e-05
-2.42078e-07
1.31528e-05
-2.40258e-07
1.31439e-05
-2.23228e-07
1.31385e-05
-1.88595e-07
1.31345e-05
-1.46652e-07
1.31297e-05
-1.19314e-07
1.31256e-05
-9.87767e-08
1.3124e-05
-7.9339e-08
1.31247e-05
-5.68354e-08
-3.6745e-08
1.31276e-05
1.38792e-05
-4.52017e-08
1.38801e-05
-8.16445e-08
1.38783e-05
-2.01078e-07
1.38783e-05
-3.23102e-07
1.38545e-05
-3.40931e-07
1.38239e-05
-3.72956e-07
1.38116e-05
-3.54853e-07
1.38123e-05
-3.29264e-07
1.38096e-05
-2.83657e-07
1.38018e-05
-2.50208e-07
1.37926e-05
-2.32918e-07
1.37831e-05
-2.30788e-07
1.37744e-05
-2.14491e-07
1.37691e-05
-1.83246e-07
1.37656e-05
-1.43197e-07
1.37615e-05
-1.15189e-07
1.37576e-05
-9.48971e-08
1.37557e-05
-7.74184e-08
1.3756e-05
-5.71498e-08
-3.9005e-08
1.37583e-05
1.45422e-05
-4.37576e-08
1.45446e-05
-8.40355e-08
1.45393e-05
-1.95807e-07
1.45389e-05
-3.22654e-07
1.45199e-05
-3.21929e-07
1.44904e-05
-3.43476e-07
1.44742e-05
-3.38611e-07
1.44718e-05
-3.26847e-07
1.44713e-05
-2.83211e-07
1.44647e-05
-2.43573e-07
1.44544e-05
-2.22616e-07
1.44442e-05
-2.20577e-07
1.44354e-05
-2.05722e-07
1.443e-05
-1.77886e-07
1.4427e-05
-1.4015e-07
1.44236e-05
-1.11815e-07
1.442e-05
-9.13226e-08
1.44179e-05
-7.53014e-08
1.44179e-05
-5.71279e-08
-4.06216e-08
1.44195e-05
1.52368e-05
-4.16403e-08
1.52408e-05
-8.80631e-08
1.52326e-05
-1.87613e-07
1.52298e-05
-3.19824e-07
1.52151e-05
-3.07276e-07
1.51882e-05
-3.16553e-07
1.51693e-05
-3.19679e-07
1.51629e-05
-3.20524e-07
1.5163e-05
-2.83276e-07
1.51588e-05
-2.39388e-07
1.51487e-05
-2.12481e-07
1.51375e-05
-2.09372e-07
1.51284e-05
-1.96669e-07
1.51228e-05
-1.7226e-07
1.51201e-05
-1.37408e-07
1.51174e-05
-1.09122e-07
1.51143e-05
-8.82565e-08
1.51121e-05
-7.30794e-08
1.51118e-05
-5.68366e-08
-4.17052e-08
1.51129e-05
1.59644e-05
-3.87158e-08
1.59698e-05
-9.35011e-08
1.59589e-05
-1.76694e-07
1.59522e-05
-3.1305e-07
1.59416e-05
-2.96733e-07
1.59184e-05
-2.93384e-07
1.58982e-05
-2.9949e-07
1.58883e-05
-3.10598e-07
1.58867e-05
-2.8168e-07
1.58851e-05
-2.37712e-07
1.58765e-05
-2.03933e-07
1.58647e-05
-1.97614e-07
1.58551e-05
-1.8698e-07
1.5849e-05
-1.66182e-07
1.58463e-05
-1.34735e-07
1.58442e-05
-1.07019e-07
1.58418e-05
-8.58123e-08
1.58396e-05
-7.08852e-08
1.5839e-05
-5.62894e-08
-4.2436e-08
1.58397e-05
1.67268e-05
-3.49429e-08
1.67302e-05
-9.68278e-08
1.67187e-05
-1.65218e-07
1.6708e-05
-3.02406e-07
1.6701e-05
-2.89728e-07
1.66828e-05
-2.7512e-07
1.66627e-05
-2.79376e-07
1.66498e-05
-2.97731e-07
1.66451e-05
-2.77023e-07
1.66448e-05
-2.37369e-07
1.66387e-05
-1.97803e-07
1.66274e-05
-1.86382e-07
1.6617e-05
-1.76597e-07
1.66103e-05
-1.59434e-07
1.66073e-05
-1.3176e-07
1.66057e-05
-1.05377e-07
1.66038e-05
-8.3969e-08
1.66019e-05
-6.897e-08
1.66011e-05
-5.55086e-08
-4.28937e-08
1.66016e-05
1.7526e-05
-3.06232e-08
1.75301e-05
-1.00842e-07
1.75178e-05
-1.52934e-07
1.75019e-05
-2.86575e-07
1.74955e-05
-2.83278e-07
1.74828e-05
-2.62393e-07
1.74639e-05
-2.60556e-07
1.74489e-05
-2.82686e-07
1.7441e-05
-2.69134e-07
1.74399e-05
-2.36251e-07
1.74363e-05
-1.94178e-07
1.74266e-05
-1.76711e-07
1.74159e-05
-1.65932e-07
1.74085e-05
-1.51973e-07
1.74049e-05
-1.28167e-07
1.74034e-05
-1.03917e-07
1.74021e-05
-8.26248e-08
1.74006e-05
-6.74736e-08
1.73997e-05
-5.46267e-08
-4.31152e-08
1.73999e-05
1.83637e-05
-2.60177e-08
1.83662e-05
-1.03316e-07
1.83555e-05