/*--------------------------------*- C++ -*----------------------------------*\
| =========                 |                                                 |
| \\      /  F ield         | OpenFOAM: The Open Source CFD Toolbox           |
|  \\    /   O peration     | Version:  v1812                                 |
|   \\  /    A nd           | Web:      www.OpenFOAM.com                      |
|    \\/     M anipulation  |                                                 |
\*---------------------------------------------------------------------------*/
FoamFile
{
    version     2.0;
    format      ascii;
    class       volVectorField;
    location    "5.5";
    object      U;
}
// * * * * * * * * * * * * * * * * * * * * * * * * * * * * * * * * * * * * * //

dimensions      [0 1 -1 0 0 0 0];


internalField   nonuniform List<vector> 
9600
(
(0.687889 -0.00546697 0)
(1.29837 0.012618 0)
(0.741899 -0.000182459 0)
(1.12869 -0.0136737 0)
(0.865381 -0.0374849 0)
(1.2978 -0.00233946 0)
(0.895365 0.00591613 0)
(1.19252 0.0173584 0)
(0.92515 0.00460538 0)
(1.12761 -0.00394433 0)
(0.955123 -0.0269718 0)
(1.13954 -0.0279634 0)
(0.941067 -0.0304689 0)
(1.15091 -0.017949 0)
(0.932713 -0.0168673 0)
(1.17309 -0.0081915 0)
(0.928849 -0.00602337 0)
(1.18544 -0.00221757 0)
(0.920863 0.000342939 0)
(1.18187 0.00174034 0)
(0.709457 -0.00556915 0)
(1.28112 0.0124449 0)
(0.800097 0.00111407 0)
(1.08365 -0.014576 0)
(0.874127 -0.0399705 0)
(1.27352 -0.00256378 0)
(0.928212 0.00665295 0)
(1.16346 0.0173157 0)
(0.986613 0.00532871 0)
(1.10206 -0.00401101 0)
(1.00994 -0.0271988 0)
(1.08862 -0.0276092 0)
(0.981416 -0.03079 0)
(1.09675 -0.0178075 0)
(0.985734 -0.0174604 0)
(1.11246 -0.00820506 0)
(1.00451 -0.0061833 0)
(1.10474 -0.00237562 0)
(1.02735 0.00150693 0)
(1.06547 0.00141203 0)
(0.748587 -0.00567271 0)
(1.24465 0.0121103 0)
(0.867877 0.00238075 0)
(1.03617 -0.0148555 0)
(0.891591 -0.0416123 0)
(1.2231 -0.00290719 0)
(0.976275 0.00772742 0)
(1.12783 0.0169181 0)
(1.04093 0.00580229 0)
(1.09022 -0.00413838 0)
(1.03733 -0.0266512 0)
(1.05069 -0.027178 0)
(1.00275 -0.030656 0)
(1.04645 -0.0181136 0)
(1.01542 -0.0176419 0)
(1.06287 -0.00888503 0)
(1.04113 -0.00591168 0)
(1.06627 -0.00313519 0)
(1.05613 0.00222668 0)
(1.05422 0.0020645 0)
(0.799362 -0.00573868 0)
(1.19359 0.0114714 0)
(0.925952 0.00379845 0)
(0.996882 -0.0148268 0)
(0.909092 -0.0432603 0)
(1.1558 -0.00374923 0)
(1.01515 0.00851887 0)
(1.10162 0.0162228 0)
(1.07577 0.00601732 0)
(1.09006 -0.00393044 0)
(1.05344 -0.0257882 0)
(1.0334 -0.0266342 0)
(1.00668 -0.0303638 0)
(1.01814 -0.0184978 0)
(1.01714 -0.017932 0)
(1.03788 -0.00964227 0)
(1.04342 -0.00603667 0)
(1.05508 -0.00364174 0)
(1.05649 0.00248437 0)
(1.05756 0.00282399 0)
(0.853506 -0.00576574 0)
(1.13728 0.0107042 0)
(0.967466 0.00517608 0)
(0.973326 -0.0145348 0)
(0.921384 -0.0444677 0)
(1.08685 -0.00487563 0)
(1.03501 0.00875293 0)
(1.08868 0.015494 0)
(1.09572 0.00600836 0)
(1.09654 -0.00351975 0)
(1.06213 -0.0246169 0)
(1.02794 -0.0258328 0)
(1.00404 -0.0298353 0)
(1.0042 -0.0188302 0)
(1.00976 -0.0182379 0)
(1.02424 -0.0104501 0)
(1.03666 -0.00641851 0)
(1.04821 -0.00422572 0)
(1.05364 0.00247868 0)
(1.05719 0.00321566 0)
(0.902783 -0.0057527 0)
(1.0863 0.0100008 0)
(0.992872 0.006333 0)
(0.966532 -0.0140328 0)
(0.927979 -0.0452482 0)
(1.02991 -0.00615806 0)
(1.03976 0.00837956 0)
(1.08613 0.0146952 0)
(1.10785 0.0058178 0)
(1.10397 -0.0029589 0)
(1.06774 -0.0232268 0)
(1.02712 -0.0248487 0)
(1.00151 -0.0291327 0)
(0.996739 -0.0191024 0)
(1.00267 -0.0185105 0)
(1.01489 -0.0113325 0)
(1.02945 -0.00695133 0)
(1.04172 -0.00492609 0)
(1.05001 0.00217472 0)
(1.05564 0.00342008 0)
(0.941462 -0.005712 0)
(1.04801 0.00944008 0)
(1.00668 0.00716735 0)
(0.972377 -0.0133838 0)
(0.931465 -0.0455681 0)
(0.99198 -0.00748662 0)
(1.038 0.00741267 0)
(1.08925 0.0137127 0)
(1.11561 0.00552974 0)
(1.10876 -0.00229972 0)
(1.07021 -0.0216502 0)
(1.02685 -0.0237091 0)
(1.00006 -0.0282725 0)
(0.992438 -0.019299 0)
(0.997484 -0.0187449 0)
(1.00798 -0.0122423 0)
(1.02311 -0.00758255 0)
(1.03581 -0.00570764 0)
(1.04572 0.00160212 0)
(1.05339 0.00348522 0)
(0.967506 -0.00566556 0)
(1.02417 0.00902217 0)
(1.01417 0.00768248 0)
(0.984809 -0.0126389 0)
(0.934764 -0.045511 0)
(0.972549 -0.00885439 0)
(1.03601 0.00596104 0)
(1.0935 0.0125385 0)
(1.11881 0.00525488 0)
(1.10887 -0.0015447 0)
(1.06913 -0.0199447 0)
(1.0258 -0.0224911 0)
(0.999379 -0.0273195 0)
(0.990106 -0.0194308 0)
(0.993835 -0.018932 0)
(1.00248 -0.0131329 0)
(1.01728 -0.00829088 0)
(1.02992 -0.00652152 0)
(1.04066 0.00083406 0)
(1.04985 0.00341649 0)
(0.982253 -0.00562698 0)
(1.0118 0.00870023 0)
(1.01892 0.0079244 0)
(0.998667 -0.0118347 0)
(0.939667 -0.0451749 0)
(0.966372 -0.0102527 0)
(1.03543 0.00422485 0)
(1.0951 0.0112555 0)
(1.116 0.00509532 0)
(1.10332 -0.000706579 0)
(1.06449 -0.0181787 0)
(1.02362 -0.0212681 0)
(0.999066 -0.0263246 0)
(0.989087 -0.0194934 0)
(0.991224 -0.0190419 0)
(0.997561 -0.0139563 0)
(1.01121 -0.00903954 0)
(1.02314 -0.0073279 0)
(1.03409 -6.29043e-05 0)
(1.04421 0.00320926 0)
(0.989039 -0.00559408 0)
(1.00619 0.0084097 0)
(1.02212 0.00796225 0)
(1.01071 -0.0110039 0)
(0.946798 -0.0446238 0)
(0.967217 -0.0116678 0)
(1.03457 0.00240467 0)
(1.09137 0.00999033 0)
(1.10631 0.0050684 0)
(1.09225 0.000161968 0)
(1.05688 -0.0164434 0)
(1.02046 -0.0201189 0)
(0.998816 -0.0253343 0)
(0.988884 -0.0194857 0)
(0.989337 -0.0190451 0)
(0.992988 -0.014653 0)
(1.00451 -0.00976816 0)
(1.01501 -0.00807921 0)
(1.02542 -0.00104352 0)
(1.03587 0.00286738 0)
(0.991515 -0.00555593 0)
(1.00348 0.00810906 0)
(1.0235 0.00783738 0)
(1.0193 -0.0101959 0)
(0.955954 -0.0439038 0)
(0.97018 -0.0130173 0)
(1.03093 0.000666826 0)
(1.08106 0.00884731 0)
(1.09031 0.0051502 0)
(1.07689 0.000980981 0)
(1.04736 -0.0148373 0)
(1.0167 -0.0191011 0)
(0.998429 -0.0243887 0)
(0.989088 -0.0194155 0)
(0.988048 -0.0189283 0)
(0.989031 -0.0151616 0)
(0.997635 -0.0104056 0)
(1.00603 -0.0087091 0)
(1.01501 -0.00208074 0)
(1.02507 0.0024062 0)
(0.992395 -0.0055036 0)
(1.00163 0.00779182 0)
(1.02283 0.00759195 0)
(1.02399 -0.00947439 0)
(0.966232 -0.0430579 0)
(0.972452 -0.0141788 0)
(1.02331 -0.000856144 0)
(1.06483 0.00787096 0)
(1.07011 0.00530445 0)
(1.05943 0.00166418 0)
(1.03726 -0.013446 0)
(1.0128 -0.0182513 0)
(0.997837 -0.0235223 0)
(0.989397 -0.0192985 0)
(0.987302 -0.0187056 0)
(0.986111 -0.0154563 0)
(0.991556 -0.0108951 0)
(0.997456 -0.00916862 0)
(1.00426 -0.00305174 0)
(1.0131 0.00188347 0)
(0.993072 -0.00543459 0)
(0.999982 0.00747126 0)
(1.02058 0.00728826 0)
(1.0253 -0.00888726 0)
(0.976228 -0.0421261 0)
(0.973214 -0.0150832 0)
(1.01271 -0.00209241 0)
(1.04536 0.00705909 0)
(1.04891 0.005468 0)
(1.04243 0.00213474 0)
(1.0279 -0.012315 0)
(1.00919 -0.0175824 0)
(0.997085 -0.0227499 0)
(0.989621 -0.0191546 0)
(0.987001 -0.0184142 0)
(0.984407 -0.0155583 0)
(0.987083 -0.011217 0)
(0.990511 -0.00942912 0)
(0.994825 -0.00385675 0)
(1.00174 0.00136164 0)
(0.99394 -0.00535152 0)
(0.998519 0.00716774 0)
(1.01769 0.00695945 0)
(1.02443 -0.00845091 0)
(0.984614 -0.0411493 0)
(0.972984 -0.0156998 0)
(1.00166 -0.00302524 0)
(1.02637 0.00637384 0)
(1.02996 0.00556346 0)
(1.02801 0.00235801 0)
(1.0202 -0.0114452 0)
(1.00617 -0.0170763 0)
(0.996282 -0.0220668 0)
(0.989683 -0.0190021 0)
(0.986967 -0.0181005 0)
(0.983724 -0.0155118 0)
(0.98443 -0.0113824 0)
(0.985774 -0.00949533 0)
(0.987794 -0.00445411 0)
(0.992478 0.00089981 0)
(0.994932 -0.00525836 0)
(0.997325 0.00689284 0)
(1.01493 0.00662207 0)
(1.02261 -0.0081504 0)
(0.990726 -0.0401512 0)
(0.972638 -0.0160417 0)
(0.992572 -0.00368013 0)
(1.0109 0.00576409 0)
(1.01531 0.00555011 0)
(1.01723 0.00235057 0)
(1.0145 -0.010801 0)
(1.00384 -0.0166935 0)
(0.995539 -0.0214577 0)
(0.989599 -0.0188473 0)
(0.987013 -0.0177933 0)
(0.983639 -0.0153704 0)
(0.98322 -0.011419 0)
(0.983052 -0.00941578 0)
(0.983316 -0.0048174 0)
(0.985898 0.000548165 0)
(0.995888 -0.00515816 0)
(0.996433 0.00664527 0)
(1.01266 0.00629135 0)
(1.0207 -0.00795626 0)
(0.994671 -0.039131 0)
(0.972695 -0.0161813 0)
(0.986479 -0.00411337 0)
(1.00014 0.00519661 0)
(1.00532 0.00544497 0)
(1.00998 0.00216682 0)
(1.01064 -0.0103292 0)
(1.00217 -0.0163879 0)
(0.994922 -0.0209061 0)
(0.989435 -0.0186845 0)
(0.987022 -0.0175005 0)
(0.983751 -0.0151781 0)
(0.982835 -0.0113693 0)
(0.981712 -0.00922607 0)
(0.980844 -0.00499619 0)
(0.981761 0.000302203 0)
(0.996699 -0.00505226 0)
(0.995833 0.00641931 0)
(1.0109 0.00596114 0)
(1.01905 -0.00783465 0)
(0.996994 -0.0380909 0)
(0.973192 -0.0161973 0)
(0.983052 -0.00438431 0)
(0.993532 0.00465887 0)
(0.999145 0.00526911 0)
(1.00547 0.00186712 0)
(1.00819 -0.0099784 0)
(1.00104 -0.0161186 0)
(0.994455 -0.0203954 0)
(0.989263 -0.0185066 0)
(0.986968 -0.0172191 0)
(0.983835 -0.0149577 0)
(0.982764 -0.0112669 0)
(0.9811 -0.00896677 0)
(0.979624 -0.00502556 0)
(0.979406 0.000150496 0)
(0.997307 -0.00494136 0)
(0.9955 0.00620547 0)
(1.00956 0.00563812 0)
(1.01771 -0.00775908 0)
(0.998276 -0.0370332 0)
(0.973935 -0.0161364 0)
(0.981369 -0.00454461 0)
(0.989808 0.00413695 0)
(0.995526 0.0050417 0)
(1.00276 0.00149835 0)
(1.00667 -0.00970937 0)
(1.00034 -0.0158576 0)
(0.994136 -0.019911 0)
(0.989129 -0.0183074 0)
(0.98688 -0.016937 0)
(0.983836 -0.0147193 0)
(0.982738 -0.011136 0)
(0.980793 -0.00867328 0)
(0.979059 -0.00494961 0)
(0.978166 6.35774e-05 0)
(0.997694 -0.00482677 0)
(0.995404 0.00599858 0)
(1.00857 0.00532484 0)
(1.01663 -0.00771776 0)
(0.998933 -0.0359546 0)
(0.974744 -0.0160322 0)
(0.980621 -0.00463184 0)
(0.987806 0.00362164 0)
(0.993456 0.00477684 0)
(1.00116 0.00108936 0)
(1.00574 -0.00950207 0)
(0.999939 -0.0155903 0)
(0.993949 -0.0194375 0)
(0.989061 -0.0180854 0)
(0.986798 -0.016646 0)
(0.983791 -0.014472 0)
(0.982686 -0.0109811 0)
(0.9806 -0.00836623 0)
(0.978808 -0.00482564 0)
(0.977577 9.84545e-07 0)
(0.997867 -0.00470822 0)
(0.995498 0.00579203 0)
(1.00785 0.00502183 0)
(1.01574 -0.00769982 0)
(0.999217 -0.0348569 0)
(0.975544 -0.015903 0)
(0.980351 -0.00467181 0)
(0.986801 0.00310866 0)
(0.99231 0.00447844 0)
(1.00022 0.000664608 0)
(1.00515 -0.00934696 0)
(0.999731 -0.0153083 0)
(0.993865 -0.0189625 0)
(0.989065 -0.0178441 0)
(0.986748 -0.0163474 0)
(0.983756 -0.014207 0)
(0.982632 -0.010806 0)
(0.980479 -0.00806292 0)
(0.978728 -0.00466882 0)
(0.97738 -4.54131e-05 0)
(0.997863 -0.00458502 0)
(0.995725 0.00557906 0)
(1.00733 0.00472874 0)
(1.015 -0.00769624 0)
(0.999278 -0.0337421 0)
(0.976331 -0.0157558 0)
(0.980364 -0.00468257 0)
(0.986412 0.00259309 0)
(0.991735 0.0041492 0)
(0.999698 0.000239587 0)
(1.00473 -0.00923382 0)
(0.999626 -0.0150088 0)
(0.993849 -0.0184838 0)
(0.989138 -0.0175811 0)
(0.986747 -0.016037 0)
(0.983772 -0.0139167 0)
(0.982618 -0.0106211 0)
(0.980445 -0.00777082 0)
(0.978774 -0.00448554 0)
(0.977444 -7.99774e-05 0)
(0.997736 -0.00445707 0)
(0.99602 0.00535606 0)
(1.00696 0.00444464 0)
(1.01435 -0.00770097 0)
(0.999216 -0.0326106 0)
(0.977125 -0.0155982 0)
(0.980583 -0.00467633 0)
(0.986421 0.00207127 0)
(0.99151 0.00379341 0)
(0.999399 -0.000177529 0)
(1.0044 -0.00915017 0)
(0.999551 -0.0146965 0)
(0.993865 -0.0179991 0)
(0.989267 -0.0172984 0)
(0.986804 -0.015707 0)
(0.983856 -0.0136117 0)
(0.982676 -0.0104257 0)
(0.980515 -0.00749045 0)
(0.978935 -0.00429128 0)
(0.9777 -0.000116101 0)
(0.997552 -0.00432317 0)
(0.996327 0.00511833 0)
(1.00665 0.00417069 0)
(1.01374 -0.00770831 0)
(0.999097 -0.0314672 0)
(0.977934 -0.0154332 0)
(0.980962 -0.00466229 0)
(0.986675 0.0015444 0)
(0.991476 0.00341282 0)
(0.99919 -0.000576458 0)
(1.00408 -0.00908553 0)
(0.999456 -0.0143743 0)
(0.993887 -0.0175061 0)
(0.989433 -0.0169992 0)
(0.98692 -0.0153667 0)
(0.98401 -0.0132846 0)
(0.982819 -0.0102184 0)
(0.980693 -0.00722743 0)
(0.979199 -0.00409774 0)
(0.978099 -0.0001654 0)
(0.997368 -0.00418251 0)
(0.996602 0.0048647 0)
(1.00638 0.00390319 0)
(1.01313 -0.00771437 0)
(0.998964 -0.0303139 0)
(0.978752 -0.0152613 0)
(0.981457 -0.00465001 0)
(0.98706 0.00101737 0)
(0.991526 0.00300763 0)
(0.998981 -0.000957085 0)
(1.00375 -0.00903774 0)
(0.999317 -0.0140433 0)
(0.9939 -0.0170035 0)
(0.989615 -0.0166811 0)
(0.987094 -0.0150222 0)
(0.98423 -0.0129396 0)
(0.983046 -0.00999588 0)
(0.980968 -0.0069809 0)
(0.979552 -0.00390425 0)
(0.978599 -0.000227622 0)
(0.997231 -0.00403522 0)
(0.996824 0.00459654 0)
(1.00612 0.00364423 0)
(1.01249 -0.0077194 0)
(0.998835 -0.0291517 0)
(0.979562 -0.0150785 0)
(0.982032 -0.00464326 0)
(0.987501 0.000494871 0)
(0.991603 0.00258371 0)
(0.99873 -0.0013176 0)
(1.00339 -0.00900394 0)
(0.999128 -0.0137121 0)
(0.9939 -0.0164931 0)
(0.989798 -0.0163467 0)
(0.987317 -0.0146681 0)
(0.984505 -0.0125834 0)
(0.983349 -0.00977064 0)
(0.981324 -0.00675479 0)
(0.979974 -0.00369853 0)
(0.97916 -0.000277235 0)
(0.997166 -0.00388072 0)
(0.996993 0.00431337 0)
(1.00586 0.00339683 0)
(1.01181 -0.00772195 0)
(0.998715 -0.0279883 0)
(0.980349 -0.0148854 0)
(0.982656 -0.00464282 0)
(0.987959 -1.95143e-05 0)
(0.991687 0.00214136 0)
(0.998428 -0.00165324 0)
(1.00301 -0.008978 0)
(0.998899 -0.0133892 0)
(0.993887 -0.0159728 0)
(0.989973 -0.0160006 0)
(0.987581 -0.0143147 0)
(0.984819 -0.0122119 0)
(0.983715 -0.00954047 0)
(0.981747 -0.00656713 0)
(0.980452 -0.00349421 0)
(0.97975 -0.000296472 0)
(0.997173 -0.00371947 0)
(0.997123 0.00401855 0)
(1.00559 0.00315096 0)
(1.01111 -0.0077138 0)
(0.998602 -0.0268323 0)
(0.981109 -0.0146818 0)
(0.983303 -0.00465647 0)
(0.988414 -0.000520754 0)
(0.99178 0.00168382 0)
(0.99809 -0.00196727 0)
(1.00262 -0.00895344 0)
(0.998645 -0.0130748 0)
(0.993863 -0.0154418 0)
(0.990133 -0.0156376 0)
(0.987876 -0.0139709 0)
(0.985161 -0.0118272 0)
(0.984124 -0.00928704 0)
(0.982219 -0.0064129 0)
(0.980974 -0.00332636 0)
(0.980345 -0.000282272 0)
(0.997239 -0.00355327 0)
(0.997236 0.00371555 0)
(1.00532 0.00290957 0)
(1.01042 -0.00769206 0)
(0.998498 -0.025683 0)
(0.981846 -0.0144658 0)
(0.983957 -0.00468438 0)
(0.988856 -0.00100136 0)
(0.991884 0.0012212 0)
(0.997732 -0.00225853 0)
(1.00224 -0.00893021 0)
(0.998382 -0.0127696 0)
(0.99383 -0.0149096 0)
(0.990277 -0.0152468 0)
(0.988192 -0.0136316 0)
(0.985524 -0.0114445 0)
(0.984556 -0.00900778 0)
(0.982724 -0.0062689 0)
(0.981533 -0.00320693 0)
(0.98094 -0.000251763 0)
(0.997339 -0.00338242 0)
(0.99735 0.00340679 0)
(1.00505 0.00267278 0)
(1.00973 -0.00765996 0)
(0.998402 -0.0245424 0)
(0.982572 -0.0142382 0)
(0.984605 -0.00472705 0)
(0.989277 -0.00146733 0)
(0.991998 0.000747343 0)
(0.997369 -0.00252944 0)
(1.00186 -0.00890759 0)
(0.998127 -0.012479 0)
(0.993789 -0.0143835 0)
(0.990406 -0.0148299 0)
(0.988519 -0.013294 0)
(0.985902 -0.0110816 0)
(0.984999 -0.0087213 0)
(0.983245 -0.00612263 0)
(0.982116 -0.00312031 0)
(0.981535 -0.00022403 0)
(0.997451 -0.00320882 0)
(0.997477 0.00309562 0)
(1.00478 0.00243588 0)
(1.00907 -0.00761179 0)
(0.998319 -0.0234183 0)
(0.983299 -0.0139963 0)
(0.985242 -0.00478241 0)
(0.989673 -0.00191776 0)
(0.992117 0.000261746 0)
(0.997011 -0.00277995 0)
(1.00149 -0.00887894 0)
(0.997887 -0.0122011 0)
(0.99374 -0.0138626 0)
(0.990523 -0.014395 0)
(0.988848 -0.0129558 0)
(0.986291 -0.010726 0)
(0.985444 -0.00844256 0)
(0.983773 -0.00596898 0)
(0.982717 -0.00305324 0)
(0.982135 -0.000209772 0)
(0.997559 -0.00303237 0)
(0.997619 0.00278175 0)
(1.00451 0.00219418 0)
(1.00844 -0.00754164 0)
(0.99825 -0.0223109 0)
(0.984036 -0.013742 0)
(0.985866 -0.00485165 0)
(0.990047 -0.00234748 0)
(0.992237 -0.000232752 0)
(0.996663 -0.0030126 0)
(1.00111 -0.00884061 0)
(0.997669 -0.0119314 0)
(0.993686 -0.0133479 0)
(0.990629 -0.0139389 0)
(0.989176 -0.012612 0)
(0.986689 -0.0103681 0)
(0.985887 -0.00815964 0)
(0.984304 -0.00581615 0)
(0.983328 -0.00300668 0)
(0.982742 -0.000220156 0)
(0.997657 -0.00285412 0)
(0.997772 0.00246846 0)
(1.00425 0.00194774 0)
(1.00782 -0.00745437 0)
(0.998193 -0.0212216 0)
(0.984788 -0.0134797 0)
(0.98648 -0.00493273 0)
(0.990403 -0.00275331 0)
(0.992354 -0.00073341 0)
(0.996327 -0.00323444 0)
(1.00073 -0.00878323 0)
(0.997471 -0.0116699 0)
(0.99363 -0.012847 0)
(0.990724 -0.013461 0)
(0.9895 -0.0122611 0)
(0.987096 -0.0100159 0)
(0.986323 -0.00786362 0)
(0.98483 -0.00567306 0)
(0.983945 -0.00298208 0)
(0.983357 -0.000258249 0)
(0.997744 -0.00267632 0)
(0.99793 0.00215867 0)
(1.00399 0.00170359 0)
(1.00722 -0.00734955 0)
(0.998147 -0.0201579 0)
(0.985552 -0.0132077 0)
(0.987089 -0.00501843 0)
(0.990747 -0.0031296 0)
(0.992471 -0.0012332 0)
(0.996005 -0.00345175 0)
(1.00034 -0.00870672 0)
(0.997292 -0.0114193 0)
(0.993575 -0.012361 0)
(0.990809 -0.0129674 0)
(0.989817 -0.0119045 0)
(0.987512 -0.00967976 0)
(0.986752 -0.00755716 0)
(0.985345 -0.0055255 0)
(0.984565 -0.00296964 0)
(0.98398 -0.000336363 0)
(0.997823 -0.00249842 0)
(0.99809 0.00185665 0)
(1.00373 0.0014541 0)
(1.00663 -0.00722705 0)
(0.998109 -0.0191163 0)
(0.986323 -0.0129234 0)
(0.987695 -0.0051139 0)
(0.991082 -0.00348161 0)
(0.992589 -0.00173065 0)
(0.9957 -0.00367163 0)
(0.999959 -0.00862036 0)
(0.997129 -0.0111771 0)
(0.993526 -0.01189 0)
(0.990885 -0.0124611 0)
(0.990126 -0.0115412 0)
(0.987937 -0.00936077 0)
(0.987177 -0.00724854 0)
(0.985846 -0.00536289 0)
(0.985177 -0.00296228 0)
(0.984612 -0.000439315 0)
(0.997899 -0.00232104 0)
(0.998249 0.00156217 0)
(1.00348 0.00120403 0)
(1.00605 -0.00709225 0)
(0.998075 -0.0180987 0)
(0.987094 -0.0126299 0)
(0.988298 -0.00522092 0)
(0.991411 -0.00380656 0)
(0.99271 -0.00221518 0)
(0.99541 -0.00388657 0)
(0.999578 -0.00852445 0)
(0.996981 -0.0109369 0)
(0.993488 -0.0114351 0)
(0.990951 -0.0119476 0)
(0.990426 -0.0111691 0)
(0.988371 -0.00905314 0)
(0.987598 -0.00695006 0)
(0.986328 -0.00519109 0)
(0.985778 -0.00295792 0)
(0.985249 -0.000559671 0)
(0.997974 -0.00214473 0)
(0.998406 0.00127408 0)
(1.00324 0.000958401 0)
(1.00549 -0.0069497 0)
(0.998045 -0.0171147 0)
(0.987856 -0.0123231 0)
(0.988899 -0.00533372 0)
(0.991736 -0.00410103 0)
(0.992838 -0.00268024 0)
(0.995139 -0.00409397 0)
(0.999202 -0.00842006 0)
(0.996847 -0.0106992 0)
(0.993463 -0.0109955 0)
(0.991009 -0.0114246 0)
(0.990715 -0.0107815 0)
(0.988811 -0.00876088 0)
(0.988019 -0.0066586 0)
(0.986791 -0.00501252 0)
(0.98636 -0.0029476 0)
(0.985887 -0.000700969 0)
(0.998048 -0.00197235 0)
(0.99856 0.00099704 0)
(1.003 0.000721401 0)
(1.00494 -0.00680424 0)
(0.998016 -0.0161582 0)
(0.988605 -0.0120074 0)
(0.989496 -0.00546441 0)
(0.992056 -0.00437503 0)
(0.992972 -0.00312222 0)
(0.994887 -0.00429244 0)
(0.998832 -0.00830748 0)
(0.996728 -0.0104682 0)
(0.993457 -0.0105745 0)
(0.991062 -0.0108941 0)
(0.990988 -0.0103821 0)
(0.989258 -0.008485 0)
(0.988443 -0.00637881 0)
(0.987234 -0.00482016 0)
(0.986916 -0.00292102 0)
(0.986514 -0.000836444 0)
(0.998123 -0.00180226 0)
(0.998712 0.000727962 0)
(1.00277 0.000490555 0)
(1.00441 -0.00665782 0)
(0.99799 -0.0152322 0)
(0.989333 -0.0116827 0)
(0.990085 -0.00561019 0)
(0.992372 -0.00463159 0)
(0.993115 -0.00353405 0)
(0.994656 -0.00448278 0)
(0.998471 -0.00818838 0)
(0.996622 -0.0102513 0)
(0.993471 -0.0101781 0)
(0.991111 -0.0103638 0)
(0.991244 -0.00997175 0)
(0.989707 -0.00822472 0)
(0.988874 -0.00612285 0)
(0.987661 -0.00461905 0)
(0.987445 -0.00288701 0)
(0.98712 -0.000962834 0)
(0.998198 -0.00163641 0)
(0.998861 0.000468817 0)
(1.00256 0.000266068 0)
(1.0039 -0.00650559 0)
(0.997967 -0.0143474 0)
(0.990037 -0.0113374 0)
(0.990666 -0.00575087 0)
(0.992683 -0.0048724 0)
(0.993265 -0.00392157 0)
(0.994449 -0.004664 0)
(0.99812 -0.0080619 0)
(0.996529 -0.0100453 0)
(0.993512 -0.00981605 0)
(0.991161 -0.00983299 0)
(0.991476 -0.0095422 0)
(0.990154 -0.00797964 0)
(0.989315 -0.00588584 0)
(0.988072 -0.00440795 0)
(0.987943 -0.00284081 0)
(0.987696 -0.00107131 0)
(0.998273 -0.00147678 0)
(0.999007 0.000222441 0)
(1.00235 5.71093e-05 0)
(1.00342 -0.00634746 0)
(0.997949 -0.0135105 0)
(0.990715 -0.0109642 0)
(0.991234 -0.00588534 0)
(0.992988 -0.00510303 0)
(0.993424 -0.00427853 0)
(0.994266 -0.0048297 0)
(0.997781 -0.00791338 0)
(0.996448 -0.00983912 0)
(0.993582 -0.00949303 0)
(0.991217 -0.00931288 0)
(0.991682 -0.00909331 0)
(0.990594 -0.00774066 0)
(0.989773 -0.0056763 0)
(0.988474 -0.00418822 0)
(0.98841 -0.0027764 0)
(0.98824 -0.00116252 0)
(0.998347 -0.001324 0)
(0.999149 -3.46507e-06 0)
(1.00215 -0.000154518 0)
(1.00297 -0.00617852 0)
(0.997937 -0.0127214 0)
(0.991366 -0.0105765 0)
(0.991786 -0.00600618 0)
(0.99329 -0.00532961 0)
(0.993592 -0.00461021 0)
(0.994111 -0.00498007 0)
(0.997453 -0.00774351 0)
(0.996375 -0.00963007 0)
(0.993683 -0.00920843 0)
(0.99129 -0.00882142 0)
(0.991862 -0.00862508 0)
(0.991017 -0.00749967 0)
(0.990248 -0.00551218 0)
(0.988873 -0.00397264 0)
(0.988843 -0.00268287 0)
(0.988745 -0.00124024 0)
(0.998421 -0.00118124 0)
(0.999287 -0.000212505 0)
(1.00197 -0.000368232 0)
(1.00254 -0.00598215 0)
(0.997931 -0.0119867 0)
(0.991991 -0.0101995 0)
(0.99232 -0.0061003 0)
(0.993586 -0.00554816 0)
(0.993772 -0.00492508 0)
(0.993987 -0.00511887 0)
(0.997138 -0.0075638 0)
(0.996308 -0.00941233 0)
(0.993818 -0.00895995 0)
(0.991387 -0.00836487 0)
(0.992017 -0.00814714 0)
(0.991413 -0.00724615 0)
(0.99074 -0.00539111 0)
(0.989286 -0.00378148 0)
(0.989245 -0.00255587 0)
(0.989206 -0.00129023 0)
(0.998494 -0.00104591 0)
(0.999422 -0.000405648 0)
(1.0018 -0.000585311 0)
(1.00214 -0.0057566 0)
(0.997929 -0.0113076 0)
(0.992591 -0.00983805 0)
(0.992835 -0.00615795 0)
(0.993875 -0.0057328 0)
(0.993965 -0.00521928 0)
(0.993896 -0.00525273 0)
(0.996838 -0.0073694 0)
(0.996242 -0.00917816 0)
(0.993984 -0.00873965 0)
(0.991518 -0.00795138 0)
(0.992154 -0.00767057 0)
(0.991772 -0.00697045 0)
(0.991242 -0.00530015 0)
(0.989722 -0.00363881 0)
(0.989626 -0.00241766 0)
(0.989622 -0.00131405 0)
(0.998566 -0.000925281 0)
(0.999549 -0.000565249 0)
(1.00165 -0.000823045 0)
(1.00177 -0.00550433 0)
(0.997929 -0.0106592 0)
(0.993169 -0.00949553 0)
(0.993334 -0.00619064 0)
(0.994156 -0.00588526 0)
(0.994171 -0.00549841 0)
(0.993847 -0.00537969 0)
(0.996558 -0.00715463 0)
(0.996172 -0.00891434 0)
(0.994176 -0.0085318 0)
(0.991688 -0.00758888 0)
(0.992282 -0.00721047 0)
(0.992089 -0.00667263 0)
(0.991742 -0.00522138 0)
(0.990193 -0.00355296 0)
(0.99 -0.00227982 0)
(0.990001 -0.00131765 0)
(0.998637 -0.000819283 0)
(0.999669 -0.000693803 0)
(1.00152 -0.00107248 0)
(1.00143 -0.00523824 0)
(0.997926 -0.0100281 0)
(0.993724 -0.00918978 0)
(0.993816 -0.00620539 0)
(0.994427 -0.00599744 0)
(0.994389 -0.00574589 0)
(0.993845 -0.00550482 0)
(0.996305 -0.00693909 0)
(0.996095 -0.00861802 0)
(0.994387 -0.00832298 0)
(0.991899 -0.00727516 0)
(0.992411 -0.00678674 0)
(0.992364 -0.00635532 0)
(0.992224 -0.00512765 0)
(0.990699 -0.00352333 0)
(0.990382 -0.0021653 0)
(0.990345 -0.00129828 0)
(0.998706 -0.000726976 0)
(0.999778 -0.000791956 0)
(1.0014 -0.00132357 0)
(1.00112 -0.00497845 0)
(0.997917 -0.00939975 0)
(0.994253 -0.00892024 0)
(0.994289 -0.00621236 0)
(0.994687 -0.00605361 0)
(0.994613 -0.00594132 0)
(0.993888 -0.00562801 0)
(0.996088 -0.00673575 0)
(0.996015 -0.00829386 0)
(0.994606 -0.00810772 0)
(0.992149 -0.00701548 0)
(0.992553 -0.00641472 0)
(0.992605 -0.00603918 0)
(0.992675 -0.00501561 0)
(0.991231 -0.00354168 0)
(0.990791 -0.00210491 0)
(0.990659 -0.00125465 0)
(0.998774 -0.000651569 0)
(0.999874 -0.000858071 0)
(1.00131 -0.00156384 0)
(1.00085 -0.00474563 0)
(0.997901 -0.00876254 0)
(0.994754 -0.00865781 0)
(0.994756 -0.00622533 0)
(0.994942 -0.0060503 0)
(0.994838 -0.00607672 0)
(0.993974 -0.00574962 0)
(0.995917 -0.00655812 0)
(0.995935 -0.00794883 0)
(0.994825 -0.00787356 0)
(0.992434 -0.00679791 0)
(0.992717 -0.00608818 0)
(0.992822 -0.00573621 0)
(0.993087 -0.00488136 0)
(0.991778 -0.00357727 0)
(0.991246 -0.00211479 0)
(0.990961 -0.00120829 0)
(0.998841 -0.000590631 0)
(0.999958 -0.000897117 0)
(1.00122 -0.00178779 0)
(1.00063 -0.00455625 0)
(0.997879 -0.00810626 0)
(0.995218 -0.00838264 0)
(0.995219 -0.00625662 0)
(0.995194 -0.00600987 0)
(0.995055 -0.00613502 0)
(0.994095 -0.00585628 0)
(0.995796 -0.0064123 0)
(0.995866 -0.0076071 0)
(0.995037 -0.00762093 0)
(0.992747 -0.00660669 0)
(0.992908 -0.00580118 0)
(0.993024 -0.00544491 0)
(0.993459 -0.00472247 0)
(0.992316 -0.00360328 0)
(0.991748 -0.00218785 0)
(0.991277 -0.00118602 0)
(0.998905 -0.000544765 0)
(1.00003 -0.000914699 0)
(1.00114 -0.00198739 0)
(1.00045 -0.00441652 0)
(0.997855 -0.0074465 0)
(0.995638 -0.00807549 0)
(0.995678 -0.00630595 0)
(0.995455 -0.00596185 0)
(0.995265 -0.00610872 0)
(0.994239 -0.00592029 0)
(0.995725 -0.00629435 0)
(0.995813 -0.00728734 0)
(0.995241 -0.00736048 0)
(0.993082 -0.00643647 0)
(0.993132 -0.0055639 0)
(0.993221 -0.00518303 0)
(0.99379 -0.00455842 0)
(0.992826 -0.00360836 0)
(0.992288 -0.00230175 0)
(0.991635 -0.00121893 0)
(0.998967 -0.000512387 0)
(1.00008 -0.000912995 0)
(1.00107 -0.00215762 0)
(1.00031 -0.00431919 0)
(0.997836 -0.00681602 0)
(0.996006 -0.00772473 0)
(0.996125 -0.00635997 0)
(0.995733 -0.00591936 0)
(0.99547 -0.00601614 0)
(0.994393 -0.00593092 0)
(0.995697 -0.00619688 0)
(0.995784 -0.00700851 0)
(0.995438 -0.00710008 0)
(0.993431 -0.00627414 0)
(0.993385 -0.00535514 0)
(0.993422 -0.00494233 0)
(0.994092 -0.00438838 0)
(0.9933 -0.00358028 0)
(0.992844 -0.0024254 0)
(0.992051 -0.00132048 0)
(0.999026 -0.00049134 0)
(1.00012 -0.000898195 0)
(1.00099 -0.00229428 0)
(1.00022 -0.0042575 0)
(0.997827 -0.00623465 0)
(0.996319 -0.00732352 0)
(0.996552 -0.00639451 0)
(0.996036 -0.0059154 0)
(0.995678 -0.00589101 0)
(0.994551 -0.00587067 0)
(0.995699 -0.00608924 0)
(0.995779 -0.00675931 0)
(0.995633 -0.00684042 0)
(0.993794 -0.00611198 0)
(0.993672 -0.00516967 0)
(0.993632 -0.00471788 0)
(0.994368 -0.00422215 0)
(0.993728 -0.00352472 0)
(0.993386 -0.00252399 0)
(0.992524 -0.00147273 0)
(0.999082 -0.000478937 0)
(1.00015 -0.000881254 0)
(1.00091 -0.00238729 0)
(1.00018 -0.00422672 0)
(0.997839 -0.00572552 0)
(0.99658 -0.00686444 0)
(0.996943 -0.00636532 0)
(0.99636 -0.00596066 0)
(0.995905 -0.00577089 0)
(0.994711 -0.00574555 0)
(0.995722 -0.00595042 0)
(0.995795 -0.00652084 0)
(0.995824 -0.00658766 0)
(0.994161 -0.00594943 0)
(0.993987 -0.0050104 0)
(0.993854 -0.00451249 0)
(0.994629 -0.00406346 0)
(0.994121 -0.00345721 0)
(0.993895 -0.00258759 0)
(0.993031 -0.00164663 0)
(0.999134 -0.000470875 0)
(1.00017 -0.000867804 0)
(1.00082 -0.0024334 0)
(1.00016 -0.00421842 0)
(0.997878 -0.00529467 0)
(0.996797 -0.00637798 0)
(0.997281 -0.00626027 0)
(0.996694 -0.00602548 0)
(0.996161 -0.00567375 0)
(0.99488 -0.00558089 0)
(0.995756 -0.00576191 0)
(0.995824 -0.00628031 0)
(0.996011 -0.00634742 0)
(0.99453 -0.00579521 0)
(0.99433 -0.00487437 0)
(0.994092 -0.00432499 0)
(0.994874 -0.00390232 0)
(0.99448 -0.00338611 0)
(0.99436 -0.00261903 0)
(0.993543 -0.00180549 0)
(0.999181 -0.000462671 0)
(1.00018 -0.000869873 0)
(1.00071 -0.00242589 0)
(1.00017 -0.00422252 0)
(0.997949 -0.00493734 0)
(0.99698 -0.00589523 0)
(0.997559 -0.00607328 0)
(0.997027 -0.00606883 0)
(0.996453 -0.00563456 0)
(0.99507 -0.00540651 0)
(0.995798 -0.00553127 0)
(0.995854 -0.00602446 0)
(0.996186 -0.00610869 0)
(0.994894 -0.00564766 0)
(0.994698 -0.00476497 0)
(0.994355 -0.0041663 0)
(0.995108 -0.00374408 0)
(0.994812 -0.00330886 0)
(0.994787 -0.00263009 0)
(0.994033 -0.00192942 0)
(0.999222 -0.000450294 0)
(1.00019 -0.000889988 0)
(1.00059 -0.00237102 0)
(1.00019 -0.00422672 0)
(0.998057 -0.00465183 0)
(0.997143 -0.0054327 0)
(0.997776 -0.00579323 0)
(0.997332 -0.00604602 0)
(0.996776 -0.00565704 0)
(0.995297 -0.00525966 0)
(0.995851 -0.00528051 0)
(0.995881 -0.00574964 0)
(0.996345 -0.00586287 0)
(0.995243 -0.00549239 0)
(0.995085 -0.00467436 0)
(0.994646 -0.00403838 0)
(0.995337 -0.0035939 0)
(0.995113 -0.00322033 0)
(0.995176 -0.00263332 0)
(0.994486 -0.00201803 0)
(0.999257 -0.000433621 0)
(1.0002 -0.000925128 0)
(1.00047 -0.00227808 0)
(1.00023 -0.00420956 0)
(0.998201 -0.00443841 0)
(0.997301 -0.00501167 0)
(0.997938 -0.00545875 0)
(0.997587 -0.00594143 0)
(0.997112 -0.00568322 0)
(0.995573 -0.0051772 0)
(0.995927 -0.00502672 0)
(0.995902 -0.00544332 0)
(0.996481 -0.00560201 0)
(0.995567 -0.00532655 0)
(0.995476 -0.00459453 0)
(0.994967 -0.00394541 0)
(0.995574 -0.00346327 0)
(0.995387 -0.00312041 0)
(0.995532 -0.00262219 0)
(0.994899 -0.0020778 0)
(0.999286 -0.000406813 0)
(1.00021 -0.000980982 0)
(1.00033 -0.00215618 0)
(1.00025 -0.00414935 0)
(0.998377 -0.00428422 0)
(0.997468 -0.00463362 0)
(0.998056 -0.00511353 0)
(0.997789 -0.00575756 0)
(0.997437 -0.00566817 0)
(0.995895 -0.00516811 0)
(0.996048 -0.00481677 0)
(0.995919 -0.00512591 0)
(0.996584 -0.00531895 0)
(0.995858 -0.00514891 0)
(0.99586 -0.00451147 0)
(0.995313 -0.00387951 0)
(0.995829 -0.00336488 0)
(0.99564 -0.0030218 0)
(0.99585 -0.00259645 0)
(0.99527 -0.00211847 0)
(0.99931 -0.00037151 0)
(1.00022 -0.00103706 0)
(1.0002 -0.0020114 0)
(1.00027 -0.00402861 0)
(0.998579 -0.00417979 0)
(0.997648 -0.00432318 0)
(0.998143 -0.00477342 0)
(0.997935 -0.00550944 0)
(0.997722 -0.00558682 0)
(0.996245 -0.00518153 0)
(0.996228 -0.00467974 0)
(0.995953 -0.00482613 0)
(0.996656 -0.005008 0)
(0.996106 -0.00494375 0)
(0.996223 -0.00441956 0)
(0.99567 -0.00382589 0)
(0.996105 -0.00329855 0)
(0.995885 -0.00293577 0)
(0.996136 -0.00255826 0)
(0.995601 -0.00214082 0)
(0.999329 -0.000331106 0)
(1.00024 -0.00108247 0)
(1.00008 -0.00186377 0)
(1.00027 -0.00383413 0)
(0.998789 -0.00409017 0)
(0.997852 -0.00411216 0)
(0.998216 -0.00445418 0)
(0.998037 -0.0052307 0)
(0.997959 -0.00543639 0)
(0.996595 -0.00517098 0)
(0.996464 -0.00461313 0)
(0.996023 -0.00457289 0)
(0.996705 -0.00469368 0)
(0.996297 -0.00470151 0)
(0.996549 -0.00431296 0)
(0.996025 -0.00377736 0)
(0.996398 -0.0032537 0)
(0.996134 -0.00287253 0)
(0.996396 -0.00251583 0)
(0.995892 -0.00214819 0)
(0.999345 -0.000285206 0)
(1.00027 -0.00112308 0)
(0.999978 -0.00173029 0)
(1.00024 -0.00358854 0)
(0.998986 -0.0039764 0)
(0.998076 -0.0039818 0)
(0.998291 -0.00417067 0)
(0.998104 -0.00494133 0)
(0.998144 -0.00522458 0)
(0.996919 -0.00511138 0)
(0.996741 -0.00457845 0)
(0.996147 -0.00438173 0)
(0.996756 -0.00440427 0)
(0.996437 -0.00443248 0)
(0.996819 -0.00416847 0)
(0.996364 -0.00372638 0)
(0.9967 -0.00322066 0)
(0.99639 -0.00283268 0)
(0.996642 -0.00248212 0)
(0.996153 -0.00214645 0)
(0.999358 -0.000236803 0)
(1.0003 -0.00114681 0)
(0.999895 -0.00161952 0)
(1.00021 -0.00332323 0)
(0.999158 -0.0038266 0)