/*--------------------------------*- C++ -*----------------------------------*\
| =========                 |                                                 |
| \\      /  F ield         | OpenFOAM: The Open Source CFD Toolbox           |
|  \\    /   O peration     | Version:  v1812                                 |
|   \\  /    A nd           | Web:      www.OpenFOAM.com                      |
|    \\/     M anipulation  |                                                 |
\*---------------------------------------------------------------------------*/
FoamFile
{
    version     2.0;
    format      ascii;
    class       volScalarField;
    location    "1.4";
    object      p;
}
// * * * * * * * * * * * * * * * * * * * * * * * * * * * * * * * * * * * * * //

dimensions      [0 2 -2 0 0 0 0];


internalField   nonuniform List<scalar> 
9600
(
-1.2817e-10
0.00198931
0.000857392
0.00140973
0.00224174
0.00274033
0.0018844
0.00195268
0.00194143
0.00231713
0.00230898
0.00386128
0.00423817
0.00501464
0.00649707
0.00747399
0.00912876
0.00987031
0.0125035
0.0171107
1.49645e-07
0.00198689
0.000861987
0.00141634
0.00223539
0.00272907
0.00189696
0.00195142
0.00194643
0.00232246
0.00230938
0.00385985
0.00424031
0.00500731
0.00649522
0.00742659
0.00913983
0.00980355
0.0125733
0.01665
5.66317e-07
0.00198449
0.000868829
0.00142299
0.00222595
0.00271579
0.00190501
0.00195226
0.00195632
0.00232575
0.0023111
0.00385375
0.00424318
0.00499459
0.00648467
0.00738481
0.00914197
0.00973756
0.0125947
0.0160728
1.83934e-06
0.00198291
0.000876749
0.00142771
0.00221591
0.00270464
0.00191043
0.00195646
0.00197077
0.00232639
0.00231494
0.00384223
0.00424732
0.00497937
0.00647047
0.00734253
0.00913648
0.00967674
0.0125583
0.0155784
4.24559e-06
0.00198181
0.000886336
0.00143136
0.00220565
0.00269476
0.00191334
0.0019631
0.00198941
0.00232503
0.00232032
0.00382751
0.00425329
0.00496172
0.00645598
0.00729611
0.00913262
0.00961054
0.0124928
0.0151458
7.77265e-06
0.00198104
0.000898082
0.00143397
0.00219511
0.00268529
0.00191356
0.00197116
0.00201133
0.00232231
0.00232693
0.00381223
0.00426054
0.00494191
0.00644096
0.00724915
0.0091262
0.00953934
0.0124011
0.0147427
1.22544e-05
0.00198041
0.000911903
0.00143574
0.00218475
0.00267588
0.00191198
0.0019797
0.00203572
0.00231889
0.00233479
0.00379804
0.00426894
0.00492052
0.00642536
0.007201
0.0091126
0.00946785
0.0122789
0.0143598
1.74504e-05
0.00197976
0.000927549
0.00143727
0.00217494
0.00266632
0.00190971
0.00198811
0.00206215
0.00231516
0.0023439
0.00378576
0.00427875
0.00489801
0.00640867
0.00715099
0.00909044
0.00939728
0.0121236
0.013995
2.31541e-05
0.00197901
0.00094479
0.00143901
0.00216568
0.00265648
0.00190756
0.00199611
0.00209035
0.0023112
0.00235422
0.00377556
0.00428999
0.00487461
0.00639004
0.00709969
0.00905817
0.00932733
0.0119357
0.0136415
2.92602e-05
0.00197816
0.000963381
0.00144108
0.00215677
0.00264629
0.00190604
0.00200354
0.00212012
0.00230701
0.00236554
0.00376721
0.00430244
0.00485042
0.00636883
0.00704818
0.00901369
0.00925791
0.0117166
0.0132973
3.57489e-05
0.00197722
0.000983077
0.00144346
0.00214806
0.00263561
0.00190544
0.00201025
0.00215126
0.00230266
0.00237751
0.00376032
0.00431564
0.00482554
0.00634439
0.00699746
0.0089552
0.00918883
0.0114688
0.0129569
4.26428e-05
0.00197616
0.00100368
0.0014461
0.00213939
0.00262424
0.00190589
0.00201614
0.00218358
0.00229823
0.00238975
0.00375448
0.00432891
0.00480015
0.00631587
0.0069482
0.00888163
0.00911932
0.0111967
0.0126143
4.99841e-05
0.00197494
0.00102507
0.00144892
0.00213073
0.00261199
0.0019075
0.00202111
0.00221692
0.00229383
0.00240188
0.00374933
0.00434147
0.00477463
0.00628241
0.00690073
0.00879272
0.00904886
0.0109053
0.0122649
5.78258e-05
0.00197349
0.00104718
0.00145188
0.00212206
0.00259874
0.00191037
0.0020251
0.00225113
0.00228955
0.00241343
0.0037448
0.00435258
0.00474919
0.00624335
0.00685502
0.00868871
0.00896921
0.0106004
0.0119064
6.62255e-05
0.00197175
0.00106998
0.00145493
0.00211346
0.00258434
0.00191455
0.00202807
0.00228598
0.00228562
0.00242392
0.00374101
0.00436152
0.00472394
0.00619817
0.00681046
0.0085702
0.00887917
0.010288
0.0115383
7.52433e-05
0.00196965
0.00109349
0.00145802
0.00210502
0.00256869
0.0019201
0.00203008
0.00232121
0.00228232
0.0024329
0.00373816
0.00436763
0.00469896
0.00614658
0.00676566
0.00843885
0.00877592
0.00997209
0.0111613
8.49456e-05
0.00196713
0.00111773
0.00146108
0.00209682
0.00255168
0.00192703
0.00203117
0.0023565
0.00227996
0.00243981
0.00373652
0.00437047
0.00467416
0.00608885
0.00671859
0.0082964
0.00865735
0.00965514
0.0107765
9.54069e-05
0.00196411
0.00114271
0.00146406
0.00208897
0.00253325
0.00193532
0.00203147
0.00239146
0.00227898
0.00244412
0.00373625
0.00436989
0.00464902
0.00602558
0.00666686
0.00814409
0.00852294
0.00933855
0.0103852
0.000106709
0.00196049
0.00116847
0.00146688
0.00208157
0.00251337
0.0019449
0.00203118
0.00242559
0.00227986
0.00244538
0.00373729
0.00436604
0.00462258
0.00595754
0.00660825
0.00798281
0.00837372
0.00902277
0.00998883
0.000118942
0.00195618
0.00119504
0.00146949
0.00207468
0.00249205
0.00195565
0.00203056
0.00245835
0.00228302
0.00244331
0.0037394
0.0043593
0.00459358
0.00588553
0.00654157
0.00781283
0.00821101
0.00870832
0.00958873
0.000132201
0.00195105
0.00122239
0.00147184
0.00206835
0.00246934
0.00196738
0.00202993
0.0024892
0.00228876
0.00243777
0.00374206
0.00435033
0.00456061
0.00580998
0.00646647
0.00763359
0.00803605
0.00839672
0.00918593
0.000146586
0.00194502
0.00125055
0.00147388
0.00206263
0.00244534
0.00197984
0.0020297
0.00251761
0.00229729
0.00242876
0.00374449
0.00434001
0.00452233
0.00573072
0.00638337
0.00744411
0.00784968
0.00809035
0.00878142
0.000162197
0.00193797
0.00127947
0.0014756
0.00205748
0.00242024
0.00199271
0.00203027
0.00254311
0.00230871
0.00241661
0.00374547
0.00432923
0.00447773
0.00564687
0.00629347
0.0072441
0.00765149
0.00779121
0.00837686
0.00017914
0.00192979
0.00130912
0.00147705
0.00205286
0.00239429
0.00200563
0.00203198
0.00256536
0.00232287
0.00240187
0.00374377
0.00431864
0.00442625
0.005557
0.00619781
0.00703419
0.00744062
0.00750053
0.00797468
0.000197518
0.00192039
0.00133941
0.00147827
0.00204867
0.00236777
0.00201822
0.00203505
0.0025842
0.00233942
0.00238509
0.00373827
0.00430855
0.00436773
0.0054595
0.00609686
0.00681594
0.00721651
0.00721886
0.0075775
0.000217433
0.00190972
0.0013702
0.00147934
0.00204478
0.00234104
0.00203017
0.00203961
0.00259957
0.00235789
0.00236683
0.00372772
0.00429902
0.00430263
0.00535249
0.00599098
0.00659172
0.00697841
0.00694637
0.00718868
0.000238985
0.00189775
0.00140131
0.00148038
0.00204107
0.00231441
0.00204119
0.00204575
0.00261148
0.00237768
0.00234759
0.00371105
0.00428985
0.0042317
0.00523409
0.00588037
0.00636439
0.00672526
0.00668246
0.00681342
0.000262255
0.00188448
0.00143248
0.00148155
0.00203744
0.00228815
0.0020511
0.00205339
0.00261995
0.0023983
0.00232786
0.00368727
0.00428043
0.00415585
0.0051026
0.00576483
0.00613766
0.00645666
0.00642431
0.00645825
0.000287302
0.00186997
0.00146351
0.00148289
0.00203384
0.00226259
0.0020598
0.00206233
0.00262493
0.0024193
0.00230799
0.00365539
0.00426974
0.00407631
0.00495686
0.00564316
0.00591582
0.00617407
0.00616608
0.00612846
0.000314186
0.00185424
0.0014941
0.00148445
0.00203018
0.00223794
0.00206728
0.00207254
0.00262638
0.00244004
0.00228826
0.00361442
0.00425634
0.00399486
0.00479687
0.00551301
0.00570248
0.00588183
0.00590031
0.00582478
0.000342931
0.00183762
0.00152399
0.00148626
0.00202641
0.00221427
0.00207353
0.0020841
0.00262423
0.00245974
0.00226914
0.00356341
0.00423821
0.00391328
0.00462361
0.00537178
0.00549931
0.00558643
0.00562138
0.00554182
0.000373516
0.00182044
0.001553
0.00148818
0.00202272
0.00219182
0.00207824
0.00209702
0.00261847
0.00247739
0.00225117
0.00350193
0.00421283
0.00383327
0.00443931
0.00521713
0.00530537
0.00529409
0.00532842
0.00526993
0.00040592
0.00180285
0.00158096
0.00148998
0.00201924
0.00217091
0.002081
0.0021115
0.00260932
0.0024915
0.00223457
0.0034299
0.00417746
0.00375637
0.00424746
0.0050476
0.00511847
0.00500913
0.00502451
0.00499904
0.000440099
0.00178507
0.00160787
0.0014913
0.00201591
0.0021519
0.00208132
0.00212774
0.00259724
0.00250018
0.00221894
0.003348
0.0041299
0.00368322
0.00405206
0.00486299
0.00493622
0.004734
0.00471372
0.0047226
0.00047597
0.00176728
0.00163394
0.00149159
0.00201242
0.00213553
0.0020786
0.00214534
0.00258299
0.00250178
0.00220338
0.0032581
0.00406923
0.00361336
0.00385637
0.00466382
0.00475653
0.00446999
0.00439927
0.00443848
0.000513505
0.00174962
0.00165944
0.00149047
0.00200816
0.00212274
0.00207231
0.00216319
0.0025681
0.00249507
0.00218606
0.00316255
0.00399544
0.00354527
0.00366242
0.00445085
0.00457782
0.00421897
0.00408374
0.00414606
0.000552708
0.00173213
0.00168474
0.00148775
0.00200215
0.00211438
0.00206232
0.0021797
0.00255404
0.00247938
0.0021648
0.00306347
0.00390961
0.00347746
0.00347183
0.00422442
0.00439753
0.00398329
0.00377049
0.00384434
0.000593576
0.00171478
0.0017102
0.00148378
0.00199282
0.0021108
0.00204934
0.00219262
0.00254145
0.00245552
0.00213756
0.00296196
0.0038139
0.00340901
0.00328591
0.00398474
0.00421191
0.00376485
0.00346492
0.00353281
0.000636154
0.00169748
0.00173602
0.00147942
0.00197846
0.00211189
0.0020347
0.00219904
0.00253036
0.00242614
0.0021029
0.0028578
0.00371026
0.00333912
0.00310562
0.00373297
0.00401692
0.00356356
0.00317364
0.00321345
0.000680525
0.00168011
0.00176225
0.00147574
0.00195747
0.00211691
0.00201922
0.00219631
0.00251967
0.00239468
0.00206092
0.00275011
0.0035992
0.00326741
0.00293245
0.00347142
0.00380852
0.00337622
0.00290244
0.0028916
0.000726743
0.00166254
0.00178885
0.0014743
0.00192847
0.0021238
0.00200144
0.0021829
0.00250737
0.00236436
0.00201303
0.00263654
0.00348009
0.00319376
0.00276799
0.00320322
0.00358391
0.00319759
0.00265481
0.00257456
0.000774898
0.00164466
0.00181545
0.00147688
0.00189077
0.00212961
0.00199062
0.0021588
0.00249093
0.00233739
0.00196202
0.00251546
0.00335105
0.00311763
0.00261434
0.0029323
0.00334181
0.00302184
0.00243181
0.00226947
0.000825116
0.00162649
0.0018413
0.00148513
0.00184443
0.00213073
0.00198536
0.00212499
0.00246726
0.00231487
0.00191194
0.00238715
0.00320924
0.00303696
0.00247375
0.00266355
0.00308201
0.00284332
0.00223315
0.00198347
0.000877422
0.00160817
0.0018653
0.00150043
0.00179082
0.00212333
0.00198418
0.0020832
0.00243388
0.00229672
0.00185849
0.0022527
0.00305262
0.00294839
0.00234676
0.0024028
0.00280593
0.00265592
0.00205657
0.00172429
0.000931754
0.00159002
0.00188596
0.00152375
0.0017327
0.00210357
0.0019859
0.00203621
0.00238881
0.00228085
0.00181875
0.00211529
0.00288142
0.00284787
0.00223097
0.00215593
0.00251809
0.00245382
0.00189578
0.00149773
0.000988004
0.00157259
0.00190141
0.00155533
0.00167364
0.00206814
0.00199045
0.00198852
0.00233089
0.00226425
0.00178827
0.00198073
0.0026978
0.00273174
0.00212241
0.00192686
0.00222565
0.00223419
0.0017411
0.00130377
0.001046
0.00155656
0.00190992
0.0015944
0.00161733
0.00201538
0.00199035
0.00194543
0.00226075
0.00223866
0.00176608
0.00185486
0.00250491
0.00259795
0.00201663
0.00171669
0.00193537
0.00199816
0.0015834
0.00113614
0.00110543
0.00154267
0.00191025
0.00163884
0.00156785
0.00194549
0.00198283
0.00190989
0.00218193
0.00219899
0.00174857
0.00174096
0.00230791
0.00244702
0.00190907
0.00152473
0.00165193
0.00174884
0.00141755
0.000985896
0.0011658
0.00153181
0.00190175
0.00168493
0.00152852
0.00186136
0.00196268
0.00188213
0.00210074
0.00214342
0.00172809
0.00163864
0.00211299
0.00228175
0.00179612
0.00134918
0.001379
0.00148922
0.0012417
0.000844581
0.0012265
0.00152496
0.00188427
0.00172809
0.00150239
0.00176817
0.00192539
0.00186062
0.00202302
0.00207304
0.00169809
0.00154621
0.00192446
0.00210562
0.001676
0.00118811
0.00112078
0.00122223
0.00105454
0.000705922
0.00128678
0.00152289
0.00185832
0.00176972
0.00149072
0.00167296
0.00186853
0.00184041
0.00195253
0.00199083
0.00165513
0.00145985
0.00174384
0.00192244
0.00154813
0.00103909
0.000881452
0.000952512
0.000854491
0.000566173
0.00134562
0.0015262
0.00182551
0.00179422
0.00149308
0.00158231
0.00179229
0.00181493
0.0018899
0.00190445
0.00159934
0.00137424
0.00157129
0.00173558
0.00141284
0.000899388
0.000663339
0.000686724
0.000640885
0.000422502
0.00140197
0.00153516
0.00178849
0.00180417
0.00150544
0.00150088
0.00169911
0.00177065
0.00183449
0.00182124
0.00153298
0.00128539
0.00140543
0.00154697
0.00127063
0.000766354
0.000466752
0.000432143
0.000416004
0.000271966
0.00145491
0.0015496
0.00174996
0.00179818
0.00152402
0.00143484
0.00159482
0.00170703
0.00177986
0.00174405
0.00146154
0.00119365
0.00124362
0.0013575
0.00112188
0.000637249
0.000290525
0.000195146
0.00018494
0.000111374
0.0015036
0.00156861
0.0017126
0.00177584
0.00153627
0.00138567
0.00148879
0.00162277
0.00171728
0.00167178
0.00139042
0.00110115
0.00108541
0.00116689
0.000966802
0.000509402
0.000131727
-1.95066e-05
-4.46399e-05
-6.12742e-05
0.00154741
0.00159063
0.00167882
0.00173894
0.00154075
0.00135357
0.001389
0.00152052
0.00163936
0.00160158
0.00132202
0.00101089
0.000933157
0.000975468
0.000804671
0.000380538
-1.44534e-05
-0.000210558
-0.000263266
-0.000244457
0.00158593
0.0016136
0.00165018
0.00169126
0.00153344
0.00132976
0.00130008
0.00140782
0.00154363
0.0015259
0.00125613
0.000925754
0.000789111
0.000786518
0.000635188
0.00024894
-0.000152244
-0.000381445
-0.000463139
-0.000432002
0.00161901
0.00163519
0.00162714
0.00163797
0.00151189
0.00130918
0.00122463
0.00129335
0.00143127
0.00143743
0.00119029
0.000847393
0.000655878
0.000604026
0.000460107
0.000112839
-0.000284128
-0.000537505
-0.000641656
-0.000614141
0.0016468
0.00165351
0.00160916
0.00158364
0.00147604
0.00128607
0.00116229
0.00118397
0.00130612
0.00133348
0.00111859
0.000774712
0.000536307
0.000431901
0.00028335
-2.90442e-05
-0.000411981
-0.00068294
-0.000801842
-0.00078225
0.00166943
0.00166763
0.00159467
0.00153067
0.00142834
0.00125562
0.00110861
0.00108389
0.001176
0.00121543
0.00103566
0.000704212
0.000430824
0.000275109
0.000110566
-0.000175851
-0.000537817
-0.000819764
-0.000949115
-0.000933371
0.00168711
0.00167698
0.00158135
0.00148092
0.00137218
0.00121528
0.00105789
0.000993582
0.00104846
0.00108631
0.00093956
0.000630376
0.000335962
0.000136566
-5.19234e-05
-0.000323381
-0.000662787
-0.000948513
-0.00108735
-0.00107017
0.00170004
0.0016812
0.00156702
0.00143434
0.00131114
0.00116456
0.00100561
0.000911824
0.000927486
0.000951748
0.000831427
0.00055005
0.000247883
1.43316e-05
-0.00019906
-0.000465628
-0.000785351
-0.00106884
-0.00121702
-0.00119703
0.00170813
0.00168006
0.00155019
0.00139025
0.00124803
0.00110431
0.000948191
0.000835434
0.000814484
0.000818089
0.000714171
0.000461889
0.000163176
-9.45373e-05
-0.000329609
-0.000597114
-0.000901752
-0.00117953
-0.00133596
-0.00131589
0.0017111
0.00167391
0.00152978
0.00134727
0.00118456
0.00103651
0.000883644
0.000760258
0.000708968
0.000689758
0.000592348
0.00036599
7.95071e-05
-0.000191542
-0.000444139
-0.000714714
-0.00100828
-0.00127832
-0.00144071
-0.0014241
0.00170873
0.00166281
0.00150518
0.0013036
0.00112126
0.000963844
0.000811836
0.000682712
0.000609116
0.000568546
0.000471962
0.000266079
-4.89529e-06
-0.000278859
-0.000542873
-0.000816833
-0.00110195
-0.00136318
-0.00152858
-0.00151793
0.00170073
0.00164685
0.00147638
0.00125765
0.00105736
0.000888366
0.00073378
0.000600924
0.000511988
0.000453302
0.000356169
0.000167148
-8.81275e-05
-0.000358134
-0.000625467
-0.000900968
-0.0011801
-0.00143241
-0.00159805
-0.00159396
0.00168726
0.00162571
0.00144333
0.00120899
0.000991799
0.000810053
0.000650459
0.000514533
0.0004154
0.000342903
0.000244501
7.1415e-05
-0.000166263
-0.000428052
-0.000691792
-0.000963812
-0.00123809
-0.00148281
-0.00164615
-0.00164797
0.00166807
0.0015994
0.00140578
0.00115712
0.00092385
0.000728473
0.000562186
0.000423034
0.000317603
0.00023645
0.000137699
-2.04196e-05
-0.00023726
-0.000485392
-0.000740947
-0.0010031
-0.00126939
-0.00150771
-0.00166738
-0.00167402
0.0016431
0.00156786
0.00136381
0.00110162
0.000852495
0.000643201
0.000469286
0.000326098
0.000216294
0.000131125
3.58384e-05
-0.000106707
-0.000300265
-0.000527101
-0.000768601
-0.00101545
-0.00126661
-0.00149637
-0.00165175
-0.00166269
0.00161228
0.00153101
0.00131744
0.00104243
0.000777168
0.000552767
0.00037069
0.000223554
0.000110023
2.32864e-05
-6.40294e-05
-0.000187283
-0.000354578
-0.000552027
-0.000768992
-0.000993823
-0.00122063
-0.00143337
-0.00158099
-0.00159476
0.00157595
0.00148914
0.00126648
0.000978734
0.000697845
0.000457385
0.000264633
0.000113012
-3.61568e-06
-9.12664e-05
-0.000167946
-0.000265721
-0.000399815
-0.00055814
-0.000735101
-0.000926665
-0.00111853
-0.00130027
-0.00142958
-0.00143903
0.00153383
0.0014423
0.00121071
0.000910048
0.000613704
0.000357021
0.000151331
-7.94118e-06
-0.000128488
-0.000217781
-0.000286516
-0.000356359
-0.000445278
-0.000547217
-0.000658797
-0.000788136
-0.00092869
-0.00106881
-0.00117424
-0.00117553
0.00148942
0.0013901
0.00114767
0.000835906
0.000525067
0.00025139
3.04358e-05
-0.000140931
-0.000269013
-0.000360074
-0.000424927
-0.000478224
-0.000527947
-0.000561348
-0.000563059
-0.000543569
-0.000525288
-0.000531425
-0.00057781
-0.000626974
0.00144408
0.00133221
0.00107689
0.000755647
0.000432134
0.000140961
-9.74956e-05
-0.00028695
-0.000429431
-0.000527488
-0.000587388
-0.000628841
-0.000662204
-0.000684433
-0.00067081
-0.000569786
-0.000301528
0.000177332
0.000753453
0.00122306
0.0013919
0.00127213
0.0010043
0.00066986
0.0003324
2.58764e-05
-0.000230935
-0.000441179
-0.000609304
-0.000728483
-0.00079262
-0.000811885
-0.000771982
-0.000613686
-0.000257912
0.000302751
0.000933336
0.00147461
0.00181058
0.00187643
0.00133212
0.00121179
0.000934917
0.000581958
0.000221027
-0.00010683
-0.000379871
-0.00059759
-0.000764614
-0.000881465
-0.000926139
-0.000832706
-0.000534159
-8.47619e-05
0.000399368
0.000833802
0.00118691
0.00145749
0.00163432
0.00165671
0.00126805
0.00114541
0.000870082
0.000511492
0.00012585
-0.000257501
-0.000602422
-0.000881701
-0.00103355
-0.000982796
-0.000722779
-0.000346957
5.34242e-05
0.000431199
0.00079094
0.00113691
0.00145873
0.00172509
0.00188235
0.00186102
0.00120634
0.0010682
0.000779564
0.000419482
5.77205e-05
-0.00026435
-0.000511596
-0.00067892
-0.000765175
-0.000779633
-0.000755815
-0.000711094
-0.00060525
-0.000374796
4.3975e-05
0.000658576
0.00133534
0.00190106
0.0022268
0.00224614
0.00115408
0.0010225
0.000732683
0.000348736
-7.44162e-05
-0.000481207
-0.000801291
-0.000968106
-0.000933929
-0.000734795
-0.000437149
-9.75369e-05
0.000254098
0.000606707
0.000947709
0.00126597
0.00154101
0.00174687
0.00184873
0.00178127
0.00108822
0.000941641
0.000657293
0.000298465
-7.63457e-05
-0.000427816
-0.000715754
-0.000911271
-0.000959651
-0.000822267
-0.000533683
-0.000183903
0.000145758
0.000437416
0.000708104
0.000973778
0.00123117
0.00145144
0.00158585
0.00155988
0.0222308
0.0151927
0.006146
-0.000456117
-0.00288303
-0.00254758
-0.00163807
-0.00121998
-0.00134022
-0.0015675
-0.00166606
-0.00172696
-0.00182942
-0.00192791
-0.00201866
-0.00218116
-0.00238672
-0.00250003
-0.00254723
-0.00264095
-0.00276851
-0.00290332
-0.00304904
-0.00316733
-0.00326611
-0.00340151
-0.0035661
-0.00372047
-0.00385135
-0.00397432
-0.00410708
-0.00424657
-0.00437068
-0.00447927
-0.00460126
-0.00474662
-0.00488637
-0.00501033
-0.00515372
-0.00532115
-0.0054828
-0.00562896
-0.00578389
-0.00595248
-0.00611432
-0.00626227
-0.00641515
-0.00657952
-0.00673714
-0.00688618
-0.00703695
-0.00720325
-0.00738042
-0.00756572
-0.00775885
-0.00794582
-0.0081359
-0.00832261
-0.00849983
-0.00867746
-0.00887099
-0.00907067
-0.00926724
-0.00947628
-0.00968933
-0.00989514
-0.0100949
-0.0103034
-0.0105206
-0.0107351
-0.010954
-0.0111745
-0.0114039
-0.0116267
-0.0118518
-0.0120911
-0.0123322
-0.0125769
-0.0128102
-0.0130609
-0.0133278
-0.0135768
-0.0138543
-0.0141255
-0.014377
-0.014669
-0.0149523
-0.0152091
-0.0155109
-0.0158017
-0.016078
-0.0163712
-0.0166596
-0.0169623
-0.0172661
-0.0175344
-0.017841
-0.0181595
-0.018393
-0.018651
0.0210946
0.0150245
0.00623415
-0.000322346
-0.00279745
-0.00250365
-0.00160987
-0.00120052
-0.00132689
-0.0015578
-0.00165818
-0.0017202
-0.0018236
-0.00192272
-0.0020138
-0.00217672
-0.00238295
-0.00249672
-0.00254407
-0.00263803
-0.00276587
-0.00290091
-0.0030469
-0.00316542
-0.00326428
-0.00339978
-0.00356452
-0.00371903
-0.00385001
-0.00397304
-0.00410585
-0.00424543
-0.00436962
-0.00447825
-0.00460027
-0.00474569
-0.00488551
-0.0050095
-0.00515291
-0.00532039
-0.0054821
-0.00562828
-0.00578323
-0.00595186
-0.00611374
-0.00626172
-0.00641462
-0.00657901
-0.00673667
-0.00688573
-0.00703651
-0.00720282
-0.00738001
-0.00756533
-0.00775848
-0.00794547
-0.00813556
-0.00832229
-0.00849952
-0.00867716
-0.0088707
-0.0090704
-0.00926698
-0.00947603
-0.00968908
-0.00989491
-0.0100947
-0.0103032
-0.0105204
-0.0107349
-0.0109538
-0.0111743
-0.0114037
-0.0116265
-0.0118517
-0.012091
-0.012332
-0.0125768
-0.01281
-0.0130607
-0.0133277
-0.0135767
-0.0138542
-0.0141254
-0.0143769
-0.0146688
-0.0149522
-0.015209
-0.0155108
-0.0158016
-0.0160779
-0.0163711
-0.0166595
-0.0169622
-0.0172661
-0.0175343
-0.0178409
-0.0181595
-0.0183929
-0.0186509
0.0201386
0.0149134
0.00644521
-6.04842e-05
-0.00265139
-0.0024483
-0.00158239
-0.00117904
-0.00130923
-0.00154388
-0.00164734
-0.0017118
-0.00181709
-0.00191745
-0.00200916
-0.00217249
-0.00237926
-0.00249342
-0.00254101
-0.00263529
-0.00276339
-0.00289858
-0.00304484
-0.0031636
-0.00326256
-0.0033982
-0.00356311
-0.00371775
-0.00384881
-0.0039719
-0.00410477
-0.00424442
-0.00436868
-0.00447735
-0.0045994
-0.00474488
-0.00488476
-0.00500876
-0.0051522
-0.00531973
-0.00548149
-0.00562769
-0.00578266
-0.00595133
-0.00611325
-0.00626124
-0.00641415
-0.00657858
-0.00673626
-0.00688533
-0.00703612
-0.00720245
-0.00737966
-0.00756499
-0.00775816
-0.00794516
-0.00813527
-0.00832202
-0.00849926
-0.0086769
-0.00887045
-0.00907017
-0.00926675
-0.00947581
-0.00968888
-0.00989471
-0.0100945
-0.010303
-0.0105202
-0.0107347
-0.0109537
-0.0111741
-0.0114035
-0.0116263
-0.0118515
-0.0120908
-0.0123319
-0.0125767
-0.0128099
-0.0130606
-0.0133276
-0.0135766
-0.013854
-0.0141253
-0.0143768
-0.0146688
-0.0149521
-0.0152089
-0.0155107
-0.0158015
-0.0160778
-0.0163711
-0.0166595
-0.0169622
-0.017266
-0.0175343
-0.0178409
-0.0181595
-0.0183929
-0.0186509
0.0192702
0.0147892
0.00669877
0.0002608
-0.0024596
-0.00237495
-0.00154525
-0.00114819
-0.00128231
-0.00152202
-0.00163058
-0.00169916
-0.00180751
-0.00191026
-0.00200347
-0.00216734
-0.00237433
-0.00248897
-0.00253727
-0.00263215
-0.00276044
-0.00289565
-0.00304214
-0.00316126
-0.0032605
-0.00339636
-0.00356143
-0.00371623
-0.00384746
-0.00397067
-0.00410361
-0.00424333
-0.00436766
-0.00447637
-0.00459846
-0.004744
-0.00488394
-0.00500796
-0.00515144
-0.00531904
-0.00548084
-0.00562706
-0.00578206
-0.00595077
-0.00611272
-0.00626073
-0.00641366
-0.00657813
-0.00673583
-0.00688491
-0.00703571
-0.00720205
-0.00737928
-0.00756463
-0.00775783
-0.00794485
-0.00813497
-0.00832174
-0.00849899
-0.00867663
-0.00887019
-0.00906993
-0.00926651
-0.00947558
-0.00968867
-0.00989451
-0.0100943
-0.0103028
-0.0105201
-0.0107346
-0.0109535
-0.011174
-0.0114034
-0.0116262
-0.0118514
-0.0120907
-0.0123317
-0.0125765
-0.0128098
-0.0130605
-0.0133275
-0.0135765
-0.0138539
-0.0141252
-0.0143767
-0.0146687
-0.014952
-0.0152088
-0.0155107
-0.0158014
-0.0160778
-0.016371
-0.0166594
-0.0169621
-0.017266
-0.0175342
-0.0178408
-0.0181594
-0.0183929
-0.0186509
0.0184039
0.0146062
0.0069463
0.000595339
-0.00225219
-0.00229407
-0.00150402
-0.00111107
-0.00124703
-0.00149177
-0.00160691
-0.00168105
-0.00179345
-0.00189986
-0.00199587
-0.00216049
-0.00236723
-0.0024825
-0.00253231
-0.00262833
-0.00275682
-0.00289178
-0.00303833
-0.00315796
-0.00325778
-0.00339394
-0.0035591
-0.0037141
-0.00384569
-0.00396919
-0.00410222
-0.00424197
-0.00436641
-0.00447525
-0.00459739
-0.00474294
-0.00488293
-0.00500702
-0.00515055
-0.0053182
-0.00548006
-0.00562634
-0.00578138
-0.00595012
-0.0061121
-0.00626014
-0.00641311
-0.00657761
-0.00673533
-0.00688443
-0.00703525
-0.00720161
-0.00737886
-0.00756422
-0.00775746
-0.00794449
-0.00813463
-0.00832143
-0.00849868
-0.00867633
-0.0088699
-0.00906966
-0.00926625
-0.00947533
-0.00968844
-0.00989429
-0.0100941
-0.0103026
-0.0105199
-0.0107344
-0.0109533
-0.0111738
-0.0114032
-0.011626
-0.0118512
-0.0120905
-0.0123316
-0.0125764
-0.0128096
-0.0130603
-0.0133273
-0.0135763
-0.0138538
-0.0141251
-0.0143766
-0.0146686
-0.0149519
-0.0152087
-0.0155106
-0.0158014
-0.0160777
-0.0163709
-0.0166593
-0.0169621
-0.0172659
-0.0175342
-0.0178407
-0.0181594
-0.0183929
-0.0186509
0.0175381
0.0143635
0.00718338
0.000937194
-0.00203456
-0.00220924
-0.00146289
-0.00107222
-0.00120748
-0.00145656
-0.00157876
-0.00165895
-0.00177565
-0.00188641
-0.00198616
-0.00215165
-0.00235765
-0.00247372
-0.00252586
-0.00262365
-0.00275245
-0.00288694
-0.00303331
-0.00315359
-0.00325434
-0.00339083
-0.00355588
-0.00371105
-0.00384325
-0.00396727
-0.00410044
-0.00424021
-0.00436486
-0.00447397
-0.00459617
-0.00474165
-0.00488167
-0.00500589
-0.00514949
-0.00531714
-0.00547906
-0.00562546
-0.00578058
-0.00594934
-0.00611135
-0.00625946
-0.00641248
-0.006577
-0.00673473
-0.00688386
-0.00703472
-0.0072011
-0.00737837
-0.00756375
-0.00775703
-0.00794409
-0.00813424
-0.00832106
-0.00849832
-0.00867597
-0.00886956
-0.00906935
-0.00926596
-0.00947505
-0.00968818
-0.00989404
-0.0100939
-0.0103024
-0.0105196
-0.0107342
-0.0109531
-0.0111736
-0.011403
-0.0116258
-0.011851
-0.0120903
-0.0123314
-0.0125762
-0.0128095
-0.0130602
-0.0133272
-0.0135762
-0.0138537
-0.014125
-0.0143765
-0.0146684
-0.0149518
-0.0152086
-0.0155105
-0.0158013
-0.0160776
-0.0163709
-0.0166593
-0.016962
-0.0172658
-0.0175341
-0.0178407
-0.0181594
-0.0183929
-0.0186509
0.016685
0.0140732
0.00741161
0.00128681
-0.00180625
-0.00212019
-0.00142259
-0.00103323
-0.0011657
-0.0014186
-0.00154818
-0.00163467
-0.00175566
-0.00187093
-0.00197478
-0.00214109
-0.00234598
-0.00246295
-0.00251804
-0.00261807
-0.00274736
-0.00288124
-0.00302724
-0.00314834
-0.00325032
-0.00338712
-0.00355174
-0.00370694
-0.00383995
-0.00396476
-0.00409812
-0.00423786
-0.00436286
-0.00447249
-0.0045948
-0.0047401
-0.00488014
-0.00500457
-0.00514823
-0.00531579
-0.00547777
-0.00562437
-0.0057796
-0.00594835
-0.00611039
-0.00625864
-0.00641177
-0.00657629
-0.00673401
-0.00688318
-0.00703409
-0.0072005
-0.00737778
-0.00756319
-0.00775652
-0.0079436
-0.00813378
-0.00832061
-0.00849789
-0.00867556
-0.00886917
-0.00906899
-0.00926562
-0.00947473
-0.00968787
-0.00989375
-0.0100936
-0.0103021
-0.0105194
-0.0107339
-0.0109529
-0.0111734
-0.0114028
-0.0116256
-0.0118508
-0.0120901
-0.0123312
-0.0125761
-0.0128093
-0.01306
-0.013327
-0.013576
-0.0138535
-0.0141249
-0.0143763
-0.0146683
-0.0149517
-0.0152085
-0.0155103
-0.0158012
-0.0160775
-0.0163708
-0.0166592
-0.0169619
-0.0172658
-0.017534
-0.0178406
-0.0181594
-0.018393
-0.0186509
0.0158572
0.0137416
0.00762593
0.00164138
-0.00156721
-0.00202589
-0.00138293
-0.00099469
-0.00112235
-0.00137848
-0.00151581
-0.00160898
-0.00173437
-0.00185419
-0.00196224
-0.00212933
-0.0023329
-0.00245082
-0.00250915
-0.00261171
-0.0027416
-0.00287485
-0.00302042
-0.00314249
-0.00324595
-0.00338303
-0.00354693
-0.00370194
-0.00383581
-0.00396158
-0.00409515
-0.00423484
-0.00436032
-0.00447072
-0.00459327
-0.0047383
-0.00487835
-0.0050031
-0.00514681
-0.00531413
-0.00547612
-0.00562302
-0.0057784
-0.00594708
-0.00610917
-0.00625764
-0.00641093
-0.00657546
-0.00673315
-0.00688239
-0.00703336
-0.00719979
-0.00737706
-0.00756249
-0.00775589
-0.00794303
-0.00813322
-0.00832007
-0.00849737
-0.00867506
-0.00886868
-0.00906855
-0.00926521
-0.00947435
-0.00968749
-0.00989339
-0.0100933
-0.0103018
-0.0105191
-0.0107336
-0.0109526
-0.0111731
-0.0114026
-0.0116254
-0.0118506
-0.0120899
-0.012331
-0.0125759
-0.0128091
-0.0130598
-0.0133268
-0.0135758
-0.0138533
-0.0141247
-0.0143761
-0.0146681
-0.0149515
-0.0152083
-0.0155102
-0.015801
-0.0160773
-0.0163706
-0.016659
-0.0169618
-0.0172657
-0.017534
-0.0178405
-0.0181593
-0.018393
-0.018651
0.0150646
0.0133706
0.0078174
0.00199726
-0.00131646
-0.00192429
-0.00134315
-0.000957002
-0.0010778
-0.00133629
-0.00148173
-0.00158208
-0.00171208
-0.00183651
-0.00194886
-0.00211678
-0.00231895
-0.00243776
-0.00249949
-0.00260471
-0.00273529
-0.00286791
-0.00301307
-0.00313624
-0.00324138
-0.00337874
-0.0035417
-0.00369635
-0.00383106
-0.00395781
-0.00409156
-0.00423114
-0.0043572
-0.0044686
-0.0045915
-0.00473625
-0.00487634
-0.00500154
-0.00514528
-0.00531222
-0.00547415
-0.0056214
-0.00577695
-0.0059455
-0.00610761
-0.00625639
-0.00640993
-0.00657448
-0.00673217
-0.00688151
-0.00703258
-0.007199
-0.0073762
-0.00756162
-0.0077551
-0.00794232
-0.00813255
-0.00831943
-0.00849677
-0.00867448
-0.00886809
-0.00906799
-0.00926472
-0.00947388
-0.00968702
-0.00989296
-0.0100929
-0.0103015
-0.0105188
-0.0107333
-0.0109523
-0.0111728
-0.0114023
-0.0116251
-0.0118503
-0.0120897
-0.0123308
-0.0125756
-0.0128089
-0.0130595
-0.0133266
-0.0135756
-0.0138531
-0.0141245
-0.0143759
-0.0146679
-0.0149513
-0.0152081
-0.01551
-0.0158009
-0.0160771
-0.0163705
-0.0166589
-0.0169616
-0.0172655
-0.0175338
-0.0178404
-0.0181592
-0.018393
-0.0186511
0.0143146
0.0129626
0.00797825
0.00235222
-0.00105215
-0.00181301
-0.0013025
-0.000920786
-0.00103269
-0.00129221
-0.00144595
-0.00155398
-0.00168884
-0.00181797
-0.00193478
-0.00210365
-0.00230435
-0.00242399
-0.00248917
-0.00259718
-0.00272851
-0.00286055
-0.00300531
-0.00312967
-0.0032366
-0.00337427
-0.00353622
-0.00369039
-0.00382589
-0.00395362
-0.00408749
-0.00422689
-0.00435359
-0.00446614
-0.00458948
-0.00473395
-0.00487414
-0.00499991
-0.00514372
-0.00531016
-0.00547195
-0.00561957
-0.00577528
-0.00594362
-0.00610572
-0.00625486
-0.0064087
-0.0065733
-0.00673104
-0.00688057
-0.00703179
-0.00719817
-0.00737525
-0.00756059
-0.00775412
-0.00794144
-0.00813174
-0.00831867
-0.00849609
-0.00867382
-0.0088674
-0.00906732
-0.00926413
-0.00947331
-0.00968643
-0.00989243
-0.0100925
-0.0103011
-0.0105183