/*--------------------------------*- C++ -*----------------------------------*\
| =========                 |                                                 |
| \\      /  F ield         | OpenFOAM: The Open Source CFD Toolbox           |
|  \\    /   O peration     | Version:  v1906                                 |
|   \\  /    A nd           | Web:      www.OpenFOAM.com                      |
|    \\/     M anipulation  |                                                 |
\*---------------------------------------------------------------------------*/
FoamFile
{
    version     2.0;
    format      ascii;
    class       volVectorField;
    location    "1.4";
    object      U;
}
// * * * * * * * * * * * * * * * * * * * * * * * * * * * * * * * * * * * * * //

dimensions      [0 1 -1 0 0 0 0];


internalField   nonuniform List<vector> 
9600
(
(0.849872 -0.00315687 0)
(1.13751 0.00163076 0)
(0.855619 -0.00507421 0)
(1.17651 0.00511576 0)
(0.915559 0.00148891 0)
(1.10943 0.006987 0)
(0.868168 0.000999207 0)
(1.13425 -0.00901238 0)
(0.871833 -0.00951388 0)
(1.15494 -0.00234571 0)
(0.908033 -0.00498126 0)
(1.13174 0.00216834 0)
(0.921446 0.00482468 0)
(1.11169 0.00862847 0)
(0.915391 0.00865216 0)
(1.09825 -0.00128762 0)
(0.893641 0.007685 0)
(1.09898 -0.0064185 0)
(0.861631 0.00357065 0)
(1.10439 -0.00658172 0)
(0.861278 -0.00315064 0)
(1.12805 0.00174509 0)
(0.870679 -0.00555735 0)
(1.16665 0.00470571 0)
(0.931971 0.00195149 0)
(1.09891 0.00763351 0)
(0.89541 0.000476066 0)
(1.11161 -0.0088445 0)
(0.89722 -0.010077 0)
(1.1319 -0.0026371 0)
(0.935885 -0.00483463 0)
(1.10858 0.0021208 0)
(0.953022 0.00497537 0)
(1.07916 0.00886061 0)
(0.961818 0.00877944 0)
(1.04874 -0.000634452 0)
(0.959157 0.00773072 0)
(1.02464 -0.00611392 0)
(0.960547 0.0044277 0)
(0.991536 -0.00775691 0)
(0.881834 -0.00313909 0)
(1.10893 0.00177963 0)
(0.896195 -0.00603422 0)
(1.145 0.00436423 0)
(0.958772 0.00245766 0)
(1.0802 0.00811814 0)
(0.933675 0.00030787 0)
(1.07846 -0.0087198 0)
(0.933925 -0.0104948 0)
(1.09429 -0.00301234 0)
(0.974713 -0.00460885 0)
(1.07327 0.00193005 0)
(0.990865 0.00542994 0)
(1.04472 0.00883448 0)
(0.999169 0.00933228 0)
(1.0189 -0.000491738 0)
(0.992876 0.00790674 0)
(1.00451 -0.00544697 0)
(0.989179 0.00421721 0)
(0.988669 -0.00527405 0)
(0.908112 -0.00312225 0)
(1.08307 0.00174067 0)
(0.925377 -0.00640263 0)
(1.11461 0.00400043 0)
(0.985587 0.00291784 0)
(1.05872 0.00840098 0)
(0.968334 0.000332703 0)
(1.04554 -0.00865715 0)
(0.965766 -0.0107309 0)
(1.05712 -0.00349889 0)
(1.00341 -0.00438511 0)
(1.04465 0.00172894 0)
(1.01266 0.00585191 0)
(1.02727 0.00876788 0)
(1.01391 0.00976836 0)
(1.01108 -0.000302269 0)
(1.00196 0.00824456 0)
(1.00278 -0.00531722 0)
(0.994467 0.00459758 0)
(0.991929 -0.00409099 0)
(0.93548 -0.00308859 0)
(1.05585 0.00166196 0)
(0.951695 -0.00669262 0)
(1.08155 0.00356899 0)
(1.00439 0.00331672 0)
(1.0396 0.00859421 0)
(0.991664 0.000512906 0)
(1.02161 -0.00859937 0)
(0.984749 -0.0108806 0)
(1.03032 -0.00399387 0)
(1.01525 -0.00426604 0)
(1.02796 0.00159064 0)
(1.01926 0.00608418 0)
(1.02111 0.0087823 0)
(1.0177 0.0100604 0)
(1.00979 5.96873e-05 0)
(1.00413 0.00834024 0)
(1.00231 -0.00492013 0)
(0.99565 0.00481471 0)
(0.992073 -0.00313368 0)
(0.959527 -0.00303871 0)
(1.03262 0.00156645 0)
(0.971368 -0.0069126 0)
(1.05175 0.00316291 0)
(1.01259 0.00362197 0)
(1.02527 0.00872705 0)
(1.00358 0.000752166 0)
(1.00881 -0.00851013 0)
(0.992723 -0.010976 0)
(1.01446 -0.00441234 0)
(1.01548 -0.00426221 0)
(1.01839 0.00148354 0)
(1.01819 0.00618506 0)
(1.01784 0.0088051 0)
(1.01746 0.010308 0)
(1.00913 0.000432646 0)
(1.00426 0.00838486 0)
(1.00204 -0.00433826 0)
(0.995687 0.00477963 0)
(0.992141 -0.00200024 0)
(0.977576 -0.00298421 0)
(1.01631 0.00148102 0)
(0.983885 -0.00705305 0)
(1.02869 0.00284348 0)
(1.0124 0.00380829 0)
(1.01548 0.00879988 0)
(1.00803 0.000976112 0)
(1.00424 -0.00839051 0)
(0.995051 -0.0110036 0)
(1.0058 -0.00474235 0)
(1.011 -0.00431117 0)
(1.01135 0.00136615 0)
(1.01393 0.00620514 0)
(1.01416 0.00878696 0)
(1.01509 0.0104999 0)
(1.00794 0.000793764 0)
(1.00341 0.00842706 0)
(1.00177 -0.00371565 0)
(0.995474 0.00465801 0)
(0.992349 -0.000794664 0)
(0.989203 -0.00293549 0)
(1.00686 0.00142056 0)
(0.990839 -0.00711478 0)
(1.01294 0.0026196 0)
(1.00799 0.00388744 0)
(1.00902 0.00880611 0)
(1.00903 0.00114163 0)
(1.00389 -0.00825894 0)
(0.995642 -0.0109517 0)
(1.00102 -0.00498931 0)
(1.00586 -0.00435229 0)
(1.00519 0.00123168 0)
(1.00845 0.0061751 0)
(1.0097 0.00871559 0)
(1.0116 0.0106223 0)
(1.00619 0.00113837 0)
(1.0022 0.00840839 0)
(1.00136 -0.00305664 0)
(0.995405 0.00450517 0)
(0.99262 0.000385822 0)
(0.995638 -0.00289659 0)
(1.00237 0.00138098 0)
(0.994332 -0.00710832 0)
(1.00328 0.0024791 0)
(1.00294 0.0038931 0)
(1.00486 0.00873956 0)
(1.00895 0.00123686 0)
(1.00496 -0.00813079 0)
(0.996041 -0.0108227 0)
(0.99828 -0.00515735 0)
(1.00154 -0.00435358 0)
(0.999853 0.00110297 0)
(1.00293 0.00612058 0)
(1.00507 0.00859358 0)
(1.0079 0.010665 0)
(1.00424 0.00144994 0)
(1.00101 0.0082997 0)
(1.00092 -0.00236258 0)
(0.995524 0.00430642 0)
(0.99297 0.00152797 0)
(0.9987 -0.00286608 0)
(1.00062 0.00135088 0)
(0.995976 -0.00704741 0)
(0.997902 0.00240015 0)
(0.999126 0.00385528 0)
(1.00239 0.0086058 0)
(1.00876 0.00127294 0)
(1.00606 -0.00801109 0)
(0.996467 -0.0106278 0)
(0.996674 -0.00525544 0)
(0.998374 -0.00430207 0)
(0.99561 0.00100114 0)
(0.998214 0.0060546 0)
(1.00099 0.00842786 0)
(1.00464 0.0106227 0)
(1.00251 0.00172272 0)
(1.00005 0.00810202 0)
(1.00055 -0.00164825 0)
(0.995774 0.00406274 0)
(0.993374 0.00261256 0)
(0.999967 -0.00284012 0)
(1.00002 0.0013222 0)
(0.996696 -0.00694699 0)
(0.9952 0.00235749 0)
(0.996942 0.00379334 0)
(1.00113 0.00842083 0)
(1.00866 0.00127176 0)
(1.00676 -0.0078973 0)
(0.996785 -0.0103826 0)
(0.99572 -0.00529809 0)
(0.996262 -0.00420159 0)
(0.992601 0.000932507 0)
(0.994744 0.00597958 0)
(0.997947 0.0082293 0)
(1.0022 0.0104964 0)
(1.00123 0.001973 0)
(0.999398 0.00783154 0)
(1.0003 -0.000927088 0)
(0.996098 0.00380252 0)
(0.993788 0.00357622 0)
(1.00044 -0.00281499 0)
(0.999793 0.00129174 0)
(0.996948 -0.00682035 0)
(0.994012 0.00232977 0)
(0.996031 0.00371916 0)
(1.00067 0.0082019 0)
(1.00863 0.00125462 0)
(1.00704 -0.00778511 0)
(0.996928 -0.0101025 0)
(0.995143 -0.00530087 0)
(0.994982 -0.00406673 0)
(0.990746 0.000889341 0)
(0.99257 0.00589815 0)
(0.996054 0.00800947 0)
(1.00063 0.0102941 0)
(1.00046 0.00221489 0)
(0.999049 0.00750631 0)
(1.00016 -0.000212358 0)
(0.996461 0.00355941 0)
(0.994187 0.00440262 0)
(1.00063 -0.00278813 0)
(0.999645 0.00125805 0)
(0.996968 -0.00667688 0)
(0.993593 0.00230242 0)
(0.995864 0.00363952 0)
(1.00064 0.0079618 0)
(1.0086 0.00123568 0)
(1.00704 -0.00767096 0)
(0.996934 -0.00979802 0)
(0.994795 -0.00527926 0)
(0.99429 -0.0039088 0)
(0.9898 0.000866427 0)
(0.991468 0.00580589 0)
(0.995128 0.00778219 0)
(0.999783 0.010031 0)
(1.00012 0.00245543 0)
(0.998942 0.00714878 0)
(1.0001 0.000473619 0)
(0.99684 0.00336869 0)
(0.994564 0.005077 0)
(1.00072 -0.00275848 0)
(0.999517 0.00122105 0)
(0.9969 -0.00652164 0)
(0.993526 0.00226748 0)
(0.996027 0.00355801 0)
(1.00077 0.0077074 0)
(1.00854 0.00122167 0)
(1.00689 -0.00755236 0)
(0.996882 -0.00947658 0)
(0.994597 -0.00524179 0)
(0.993979 -0.00374281 0)
(0.989466 0.000860192 0)
(0.991103 0.00569208 0)
(0.99486 0.00756026 0)
(0.999431 0.00972643 0)
(1.00003 0.00270065 0)
(0.998984 0.00678064 0)
(1.0001 0.00113807 0)
(0.997219 0.00325817 0)
(0.994922 0.0055997 0)
(1.00079 -0.00272569 0)
(0.999405 0.0011809 0)
(0.996827 -0.00635662 0)
(0.993603 0.00222147 0)
(0.996279 0.00347673 0)
(1.00092 0.00744136 0)
(1.00844 0.00121801 0)
(1.00668 -0.00742908 0)
(0.996832 -0.00914383 0)
(0.994509 -0.00519059 0)
(0.993897 -0.00358407 0)
(0.989483 0.000862418 0)
(0.991156 0.00555533 0)
(0.994951 0.00734818 0)
(0.999339 0.00939318 0)
(1.00007 0.00295493 0)
(0.999089 0.00642756 0)
(1.0001 0.00176453 0)
(0.997578 0.00323425 0)
(0.995262 0.00598408 0)
(1.00083 -0.00268963 0)
(0.999311 0.00113718 0)
(0.996788 -0.0061824 0)
(0.993736 0.00216373 0)
(0.996515 0.0033972 0)
(1.00102 0.0071648 0)
(1.00829 0.00122456 0)
(1.00646 -0.00730137 0)
(0.996815 -0.00880311 0)
(0.994504 -0.00512909 0)
(0.993949 -0.00343458 0)
(0.989671 0.000874014 0)
(0.991396 0.00539575 0)
(0.995183 0.00714981 0)
(0.999337 0.00903944 0)
(1.00012 0.00320842 0)
(0.999196 0.00611029 0)
(1.00008 0.00232457 0)
(0.997903 0.00328551 0)
(0.995587 0.00625709 0)
(1.00086 -0.00265016 0)
(0.999234 0.00108895 0)
(0.996788 -0.00599929 0)
(0.99389 0.00209509 0)
(0.996707 0.00332079 0)
(1.00106 0.00687829 0)
(1.0081 0.00123723 0)
(1.00623 -0.00716901 0)
(0.996834 -0.00845878 0)
(0.994559 -0.00505482 0)
(0.994076 -0.00329886 0)
(0.989928 0.000897818 0)
(0.99169 0.00521422 0)
(0.99543 0.0069625 0)
(0.999332 0.00867936 0)
(1.00013 0.00344508 0)
(0.999272 0.00583988 0)
(1.00004 0.00282952 0)
(0.998189 0.00339908 0)
(0.995898 0.00645137 0)
(1.00088 -0.00260719 0)
(0.999172 0.00103546 0)
(0.996816 -0.0058075 0)
(0.994054 0.00201637 0)
(0.996859 0.00324912 0)
(1.00105 0.00658125 0)
(1.00786 0.00125544 0)
(1.006 -0.00703233 0)
(0.99688 -0.00811522 0)
(0.994656 -0.00496353 0)
(0.994247 -0.00318387 0)
(0.990206 0.000934712 0)
(0.991978 0.00501466 0)
(0.995646 0.00678 0)
(0.999291 0.00832635 0)
(1.00009 0.00365882 0)
(0.999312 0.0056303 0)
(0.999967 0.00327694 0)
(0.998437 0.00354862 0)
(0.996198 0.00658752 0)
(1.00089 -0.00256073 0)
(0.999123 0.00097627 0)
(0.996859 -0.00560639 0)
(0.994223 0.00192755 0)
(0.996984 0.00318314 0)
(1.00101 0.00627535 0)
(1.0076 0.00127575 0)
(1.00578 -0.00689066 0)
(0.99694 -0.00777596 0)
(0.994778 -0.00485462 0)
(0.994442 -0.00308662 0)
(0.990491 0.000982004 0)
(0.992243 0.00480639 0)
(0.995825 0.00659446 0)
(0.999214 0.00799372 0)
(1.00001 0.00384131 0)
(0.999327 0.00547247 0)
(0.999881 0.00366916 0)
(0.998653 0.00371299 0)
(0.996494 0.00667528 0)
(1.00089 -0.00251076 0)
(0.999086 0.000911095 0)
(0.996906 -0.00539582 0)
(0.994399 0.00183009 0)
(0.997091 0.00312214 0)
(1.00096 0.00596349 0)
(1.0073 0.00129649 0)
(1.00556 -0.00674088 0)
(0.997005 -0.00744454 0)
(0.994914 -0.00472495 0)
(0.994647 -0.00300399 0)
(0.990778 0.00103596 0)
(0.992486 0.00459897 0)
(0.99598 0.00640022 0)
(0.999115 0.00768886 0)
(0.999914 0.00399379 0)
(0.999328 0.00534426 0)
(0.999795 0.00402022 0)
(0.998845 0.00388484 0)
(0.99679 0.00672036 0)
(1.00089 -0.00245717 0)
(0.999063 0.000839845 0)
(0.996951 -0.00517709 0)
(0.994583 0.00172539 0)
(0.997187 0.00306589 0)
(1.00092 0.00564578 0)
(1.007 0.00131621 0)
(1.00535 -0.00658229 0)
(0.99707 -0.00712352 0)
(0.995058 -0.00457528 0)
(0.994857 -0.00293469 0)
(0.991068 0.00109505 0)
(0.992714 0.00439824 0)
(0.996127 0.00619274 0)
(0.999007 0.00741396 0)
(0.999813 0.00412387 0)
(0.999329 0.00524132 0)
(0.999718 0.00434631 0)
(0.999018 0.0040593 0)
(0.997093 0.00672258 0)
(1.00087 -0.00240024 0)
(0.999052 0.000763232 0)
(0.996991 -0.00495097 0)
(0.994776 0.00161306 0)
(0.997274 0.00301252 0)
(1.00088 0.00532545 0)
(1.00668 0.00133028 0)
(1.00514 -0.0064124 0)
(0.997134 -0.00681725 0)
(0.995207 -0.00440682 0)
(0.995068 -0.00287772 0)
(0.991362 0.00115227 0)
(0.992929 0.00421275 0)
(0.996275 0.00596496 0)
(0.998901 0.00716766 0)
(0.999717 0.00423773 0)
(0.999337 0.00514667 0)
(0.999657 0.00464736 0)
(0.999171 0.00424103 0)
(0.997404 0.00668607 0)
(1.00085 -0.00233997 0)
(0.999053 0.000681317 0)
(0.997028 -0.00471711 0)
(0.994979 0.00149501 0)
(0.997354 0.0029608 0)
(1.00085 0.00500575 0)
(1.00635 0.00133707 0)
(1.00493 -0.00622774 0)
(0.997198 -0.00652673 0)
(0.995359 -0.00421867 0)
(0.995279 -0.00282942 0)
(0.991662 0.00119854 0)
(0.993134 0.00404899 0)
(0.99643 0.00571696 0)
(0.998804 0.00694327 0)
(0.999627 0.00434622 0)
(0.999355 0.00505042 0)
(0.999616 0.00491128 0)
(0.999307 0.00443796 0)
(0.997722 0.00662119 0)
(1.00082 -0.00227648 0)
(0.999062 0.000594373 0)
(0.997062 -0.00447675 0)
(0.995188 0.00137263 0)
(0.99743 0.00290952 0)
(1.00083 0.00468829 0)
(1.00603 0.00133483 0)
(1.00473 -0.00602903 0)
(0.997267 -0.00624856 0)
(0.995512 -0.00401764 0)
(0.99549 -0.00277831 0)
(0.991969 0.00123132 0)
(0.99333 0.00390812 0)
(0.996591 0.00545699 0)
(0.998719 0.00673331 0)
(0.999541 0.00445525 0)
(0.999385 0.00496633 0)
(0.999597 0.00513305 0)
(0.999424 0.00465162 0)
(0.998042 0.00653785 0)
(1.00079 -0.00220992 0)
(0.999074 0.00050335 0)
(0.997099 -0.00423231 0)
(0.995401 0.00124747 0)
(0.997505 0.00285609 0)
(1.00081 0.00437673 0)
(1.0057 0.00132065 0)
(1.00452 -0.00581603 0)
(0.99734 -0.00598259 0)
(0.995665 -0.00380877 0)
(0.995704 -0.00272258 0)
(0.99228 0.00124733 0)
(0.99352 0.003794 0)
(0.996756 0.00519149 0)
(0.998651 0.00653157 0)
(0.999456 0.00456937 0)
(0.999424 0.00489431 0)
(0.999598 0.00530524 0)
(0.999525 0.00487454 0)
(0.998358 0.00644263 0)
(1.00077 -0.00214047 0)
(0.999086 0.00040862 0)
(0.997139 -0.00398653 0)
(0.995614 0.00112182 0)
(0.997582 0.00279907 0)
(1.00079 0.00407346 0)
(1.00538 0.00129435 0)
(1.00431 -0.00559012 0)
(0.99742 -0.00572886 0)
(0.995817 -0.00359323 0)
(0.995921 -0.00265968 0)
(0.992598 0.00124735 0)
(0.993704 0.00370567 0)
(0.996922 0.00492629 0)
(0.998606 0.00632961 0)
(0.999372 0.00469192 0)
(0.99947 0.00483042 0)
(0.999619 0.00542983 0)
(0.99961 0.00510472 0)
(0.998664 0.00634292 0)
(1.00074 -0.00206832 0)
(0.999096 0.000310689 0)
(0.997184 -0.00373958 0)
(0.995826 0.000998855 0)
(0.997663 0.00273642 0)
(1.00077 0.00378052 0)
(1.00507 0.00125746 0)
(1.00409 -0.00535323 0)
(0.997506 -0.005485 0)
(0.995966 -0.00337404 0)
(0.996141 -0.00258588 0)
(0.992921 0.00123222 0)
(0.993887 0.0036375 0)
(0.997088 0.00467036 0)
(0.998588 0.00612266 0)
(0.999289 0.0048209 0)
(0.999521 0.0047754 0)
(0.999662 0.00550377 0)
(0.999683 0.00533538 0)
(0.998948 0.00625371 0)
(1.00072 -0.0019939 0)
(0.999103 0.000211772 0)
(0.997236 -0.00349317 0)
(0.996033 0.000879048 0)
(0.997748 0.00266927 0)
(1.00074 0.00349648 0)
(1.00477 0.00121085 0)
(1.00387 -0.00510952 0)
(0.997599 -0.00524566 0)
(0.996111 -0.00315426 0)
(0.996364 -0.00250344 0)
(0.99325 0.00120123 0)
(0.994068 0.00358702 0)
(0.997251 0.00443043 0)
(0.998598 0.00591089 0)
(0.999209 0.00495588 0)
(0.99957 0.00473838 0)
(0.999726 0.0055217 0)
(0.999748 0.00555109 0)
(0.999202 0.00620175 0)
(1.0007 -0.00191689 0)
(0.999106 0.00011238 0)
(0.997293 -0.00325214 0)
(0.996236 0.000761595 0)
(0.997837 0.00259822 0)
(1.0007 0.0032211 0)
(1.00447 0.00115335 0)
(1.00366 -0.00486298 0)
(0.997695 -0.00501171 0)
(0.996253 -0.00293626 0)
(0.996588 -0.00241013 0)
(0.993586 0.00115914 0)
(0.99425 0.00355174 0)
(0.997409 0.00421599 0)
(0.998641 0.00568732 0)
(0.999135 0.00508502 0)
(0.999614 0.00472988 0)
(0.999813 0.00548956 0)
(0.999814 0.00572938 0)
(0.999419 0.00620866 0)
(1.00068 -0.00183761 0)
(0.999109 1.24477e-05 0)
(0.997355 -0.00301822 0)
(0.996435 0.000649785 0)
(0.997929 0.00251957 0)
(1.00066 0.00296011 0)
(1.00418 0.00109037 0)
(1.00344 -0.00461238 0)
(0.997796 -0.00478771 0)
(0.996393 -0.00272042 0)
(0.996811 -0.00230553 0)
(0.99393 0.00110572 0)
(0.994433 0.00353132 0)
(0.997561 0.00403388 0)
(0.998714 0.00545243 0)
(0.999073 0.0051961 0)
(0.999646 0.00475411 0)
(0.999916 0.00542321 0)
(0.999893 0.00584299 0)
(0.999597 0.00626625 0)
(1.00067 -0.00175725 0)
(0.999111 -8.47263e-05 0)
(0.99742 -0.00279186 0)
(0.99663 0.000542149 0)
(0.998024 0.0024371 0)
(1.00062 0.00270732 0)
(1.0039 0.00102326 0)
(1.00322 -0.0043594 0)
(0.997898 -0.00456851 0)
(0.99653 -0.00250805 0)
(0.997031 -0.00218654 0)
(0.994283 0.00103846 0)
(0.994621 0.0035194 0)
(0.997703 0.00388775 0)
(0.998816 0.00521363 0)
(0.999032 0.00528028 0)
(0.999665 0.00480674 0)
(1.00003 0.005348 0)
(0.999992 0.00588754 0)
(0.999746 0.00634189 0)
(1.00065 -0.00167532 0)
(0.999115 -0.000178533 0)
(0.997487 -0.00257321 0)
(0.996821 0.000437825 0)
(0.998118 0.00235546 0)
(1.00058 0.00245831 0)
(1.00363 0.000948814 0)
(1.003 -0.00410224 0)
(0.998003 -0.00435718 0)
(0.996666 -0.00229966 0)
(0.997245 -0.00204895 0)
(0.994644 0.000962352 0)
(0.994814 0.00351319 0)
(0.997836 0.00378119 0)
(0.998941 0.00497044 0)
(0.999014 0.00532525 0)
(0.999672 0.00487486 0)
(1.00014 0.00528161 0)
(1.00011 0.00588104 0)
(0.999882 0.00639791 0)
(1.00063 -0.00159147 0)
(0.999122 -0.000269749 0)
(0.997557 -0.00236325 0)
(0.99701 0.000335523 0)
(0.998211 0.00227417 0)
(1.00054 0.00221967 0)
(1.00336 0.000871244 0)
(1.00278 -0.00383837 0)
(0.998108 -0.00415634 0)
(0.996804 -0.00210171 0)
(0.997451 -0.00189 0)
(0.995013 0.000885579 0)
(0.995016 0.00350356 0)
(0.997955 0.00371736 0)
(0.999084 0.00473133 0)
(0.999025 0.00532804 0)
(0.999672 0.00494462 0)
(1.00025 0.00522135 0)
(1.00025 0.00583913 0)
(1.00002 0.00641029 0)
(1.00061 -0.00150701 0)
(0.999131 -0.000356083 0)
(0.997628 -0.00216112 0)
(0.997197 0.000230994 0)
(0.998302 0.00219586 0)
(1.0005 0.00199435 0)
(1.00311 0.000785835 0)
(1.00257 -0.00356668 0)
(0.998213 -0.00396228 0)
(0.996944 -0.00191206 0)
(0.997648 -0.00170762 0)
(0.995387 0.000819908 0)
(0.995229 0.00348228 0)
(0.998062 0.00368484 0)
(0.999237 0.00450358 0)
(0.999065 0.00528729 0)
(0.999667 0.00500711 0)
(1.00035 0.00516286 0)
(1.0004 0.0057767 0)
(1.00016 0.00638278 0)
(1.0006 -0.00142219 0)
(0.999144 -0.00043762 0)
(0.997699 -0.00196571 0)
(0.997381 0.000121219 0)
(0.998391 0.00211914 0)
(1.00045 0.00178575 0)
(1.00287 0.000687065 0)
(1.00235 -0.00328692 0)
(0.998317 -0.00376341 0)
(0.99709 -0.00173578 0)
(0.997837 -0.00150611 0)
(0.995764 0.000772275 0)
(0.995454 0.0034446 0)
(0.998155 0.00366963 0)
(0.999393 0.00429809 0)
(0.999134 0.00521354 0)
(0.999661 0.00506377 0)
(1.00044 0.00510806 0)
(1.00057 0.00569876 0)
(1.00032 0.00632954 0)
(1.00058 -0.00133544 0)
(0.99916 -0.000518105 0)
(0.99777 -0.00177483 0)
(0.997563 6.23212e-06 0)
(0.998479 0.00204007 0)
(1.0004 0.00159984 0)
(1.00263 0.000572282 0)
(1.00214 -0.00300092 0)
(0.998417 -0.00355291 0)
(0.997242 -0.00158692 0)
(0.998018 -0.00128931 0)
(0.996138 0.000743428 0)
(0.995691 0.00338357 0)
(0.998237 0.0036626 0)
(0.99955 0.00411837 0)
(0.999231 0.0051138 0)
(0.999657 0.00511463 0)
(1.00052 0.00506155 0)
(1.00073 0.00560071 0)
(1.00048 0.00625565 0)
(1.00055 -0.00124812 0)
(0.999179 -0.000595816 0)
(0.997839 -0.00158859 0)
(0.997743 -0.000114005 0)
(0.998567 0.00195332 0)
(1.00034 0.00144297 0)
(1.00241 0.000447167 0)
(1.00194 -0.0027174 0)
(0.998511 -0.0033273 0)
(0.9974 -0.00145134 0)
(0.998194 -0.001067 0)
(0.996507 0.000739162 0)
(0.99594 0.00330465 0)
(0.998312 0.00365217 0)
(0.999702 0.00395303 0)
(0.999356 0.00498217 0)
(0.999659 0.00515328 0)
(1.00058 0.00503192 0)
(1.0009 0.00548586 0)
(1.00066 0.00615852 0)
(1.00053 -0.00116063 0)
(0.999202 -0.00067129 0)
(0.997907 -0.00140614 0)
(0.997919 -0.000234433 0)
(0.998658 0.001849 0)
(1.00028 0.00132596 0)
(1.00221 0.000319145 0)
(1.00175 -0.00244584 0)
(0.998598 -0.00306879 0)
(0.997562 -0.00132542 0)
(0.998367 -0.000854936 0)
(0.996866 0.000759976 0)
(0.996197 0.00321345 0)
(0.998379 0.00363268 0)
(0.999846 0.00380786 0)
(0.999508 0.00482893 0)
(0.999675 0.00517575 0)
(1.00062 0.00502359 0)
(1.00107 0.00536214 0)
(1.00086 0.00603182 0)
(1.00051 -0.00107155 0)
(0.999229 -0.000746257 0)
(0.997973 -0.00122727 0)
(0.998089 -0.000348124 0)
(0.998752 0.00172337 0)
(1.00021 0.0012443 0)
(1.00201 0.000191083 0)
(1.00157 -0.00219124 0)
(0.998678 -0.00277703 0)
(0.997726 -0.00120213 0)
(0.998538 -0.000662623 0)
(0.997216 0.000794266 0)
(0.99646 0.00311728 0)
(0.998443 0.00360469 0)
(0.99998 0.00368151 0)
(0.999683 0.00465661 0)
(0.99971 0.00516859 0)
(1.00064 0.00503337 0)
(1.00121 0.00524497 0)
(1.00107 0.00588092 0)
(1.00048 -0.000981966 0)
(0.999261 -0.000819431 0)
(0.998038 -0.00105516 0)
(0.998251 -0.000454124 0)
(0.998852 0.00156796 0)
(1.00014 0.00119167 0)
(1.00182 7.63359e-05 0)
(1.0014 -0.00196719 0)
(0.998751 -0.00246175 0)
(0.997886 -0.00106814 0)
(0.998706 -0.000496782 0)
(0.997555 0.000827654 0)
(0.996727 0.00302133 0)
(0.998505 0.00357266 0)
(1.0001 0.00357227 0)
(0.999878 0.00447182 0)
(0.999772 0.00512449 0)
(1.00065 0.00505175 0)
(1.00134 0.00514705 0)
(1.00128 0.00571609 0)
(1.00045 -0.000893195 0)
(0.999297 -0.000889106 0)
(0.998102 -0.000890446 0)
(0.998403 -0.000543658 0)
(0.998959 0.00137687 0)
(1.00006 0.00116113 0)
(1.00163 -1.43895e-05 0)
(1.00125 -0.00176988 0)
(0.998821 -0.00213629 0)
(0.998038 -0.000922638 0)
(0.99887 -0.000354517 0)
(0.997884 0.000854193 0)
(0.996999 0.00292817 0)
(0.998565 0.00354069 0)
(1.0002 0.00348139 0)
(1.00009 0.00428319 0)
(0.999865 0.00504464 0)
(1.00065 0.00506535 0)
(1.00144 0.0050716 0)
(1.00148 0.00554863 0)
(1.00043 -0.00080379 0)
(0.999338 -0.000957054 0)
(0.998165 -0.000736904 0)
(0.998543 -0.000611247 0)
(0.999073 0.00115776 0)
(0.999992 0.00114025 0)
(1.00145 -6.61931e-05 0)
(1.00113 -0.00159669 0)
(0.998889 -0.00181359 0)
(0.99818 -0.000752329 0)
(0.999027 -0.000225372 0)
(0.998205 0.000867975 0)
(0.997278 0.00283683 0)
(0.998626 0.003514 0)
(1.00029 0.00341177 0)
(1.0003 0.00409423 0)
(0.999989 0.0049309 0)
(1.00065 0.00506391 0)
(1.00151 0.00501263 0)
(1.00168 0.00538481 0)
(1.0004 -0.00071536 0)
(0.999383 -0.00102051 0)
(0.99823 -0.00059857 0)
(0.998668 -0.000649533 0)
(0.999196 0.000916388 0)
(0.999929 0.00111632 0)
(1.00127 -7.44803e-05 0)
(1.00102 -0.00144314 0)
(0.99896 -0.00150184 0)
(0.99831 -0.000559065 0)
(0.999173 -0.00010118 0)
(0.998516 0.000867392 0)
(0.997565 0.00273805 0)
(0.998692 0.00348872 0)
(1.00036 0.00336801 0)
(1.00051 0.00391441 0)
(1.00015 0.00478768 0)
(1.00066 0.0050457 0)
(1.00155 0.0049668 0)
(1.00185 0.00522941 0)
(1.00037 -0.000629171 0)
(0.999433 -0.00107529 0)
(0.998298 -0.00048012 0)
(0.998777 -0.00065188 0)
(0.999324 0.000663034 0)
(0.999879 0.00107258 0)
(1.0011 -4.49495e-05 0)
(1.00093 -0.00130399 0)
(0.999037 -0.00121248 0)
(0.998428 -0.00035623 0)
(0.999302 2.26823e-05 0)
(0.998815 0.000861898 0)
(0.997863 0.00262728 0)
(0.998768 0.00345275 0)
(1.0004 0.00334605 0)
(1.00071 0.00375404 0)
(1.00033 0.00461577 0)
(1.00069 0.00500279 0)
(1.00156 0.00493231 0)
(1.00198 0.00509305 0)
(1.00034 -0.000546689 0)
(0.999486 -0.00111964 0)
(0.99837 -0.000385901 0)
(0.998868 -0.000612782 0)
(0.999455 0.000408221 0)
(0.999847 0.00100708 0)
(1.00093 2.61131e-05 0)
(1.00085 -0.00117679 0)
(0.999123 -0.000962268 0)
(0.998537 -0.0001471 0)
(0.999414 0.000163904 0)
(0.999099 0.00086226 0)
(0.998169 0.00250564 0)
(0.998861 0.00340057 0)
(1.00043 0.0033383 0)
(1.0009 0.00362471 0)
(1.00054 0.00442674 0)
(1.00075 0.00492494 0)
(1.00157 0.00489954 0)
(1.00208 0.00498489 0)
(1.00031 -0.000467866 0)
(0.999542 -0.00115173 0)
(0.998451 -0.000318784 0)
(0.998942 -0.000533416 0)
(0.999585 0.000170485 0)
(0.99984 0.000912371 0)
(1.00078 0.000127606 0)
(1.00077 -0.00104249 0)
(0.99922 -0.000764214 0)
(0.998643 6.10917e-05 0)
(0.999508 0.000328169 0)
(0.999362 0.000874451 0)
(0.998481 0.00237385 0)
(0.998973 0.0033289 0)
(1.00045 0.00333174 0)
(1.00106 0.00352398 0)
(1.00077 0.00423468 0)
(1.00084 0.00480991 0)
(1.00156 0.00485193 0)
(1.00214 0.00490051 0)
(1.00028 -0.000394499 0)
(0.999599 -0.00116962 0)
(0.998542 -0.000278379 0)
(0.999 -0.000427358 0)
(0.999708 -3.02162e-05 0)
(0.999858 0.000785423 0)
(1.00063 0.00024391 0)
(1.00071 -0.000894094 0)
(0.999329 -0.000613219 0)
(0.998753 0.000246576 0)
(0.999584 0.000504151 0)
(0.999598 0.000907668 0)
(0.998795 0.00224298 0)
(0.999109 0.00323734 0)
(1.00047 0.00331874 0)
(1.00119 0.00344437 0)
(1.00099 0.00405086 0)
(1.00097 0.00466948 0)
(1.00157 0.00478324 0)
(1.00217 0.0048255 0)
(1.00025 -0.000328693 0)
(0.999656 -0.00116938 0)
(0.998644 -0.000264061 0)
(0.999047 -0.0003037 0)
(0.99982 -0.000180562 0)
(0.999903 0.000629409 0)
(1.00051 0.000358049 0)
(1.00064 -0.000721791 0)
(0.999446 -0.000490613 0)
(0.998875 0.000387747 0)
(0.99965 0.000677665 0)
(0.999805 0.000966208 0)
(0.999103 0.00212505 0)
(0.999268 0.00312567 0)
(1.00049 0.00329121 0)
(1.0013 0.00337854 0)
(1.00121 0.00387886 0)
(1.00111 0.0045132 0)
(1.0016 0.00469578 0)
(1.00218 0.00474306 0)
(1.00023 -0.000270881 0)
(0.999711 -0.00114928 0)
(0.998759 -0.000275967 0)
(0.999086 -0.000176244 0)
(0.999916 -0.000267916 0)
(0.999971 0.000453928 0)
(1.00041 0.000445812 0)
(1.00057 -0.000524162 0)
(0.999563 -0.000380589 0)
(0.999011 0.000484136 0)
(0.999713 0.000834502 0)
(0.999985 0.00104795 0)
(0.9994 0.00202845 0)
(0.999447 0.00300486 0)
(1.00052 0.00324677 0)
(1.00139 0.00332076 0)
(1.00142 0.00371802 0)
(1.00129 0.00434002 0)
(1.00165 0.00459259 0)
(1.0022 0.0046455 0)
(1.0002 -0.000222277 0)
(0.999763 -0.00110905 0)
(0.998885 -0.000309096 0)
(0.999124 -5.30349e-05 0)
(0.999994 -0.00028697 0)
(1.00006 0.000275066 0)
(1.00035 0.000495961 0)
(1.0005 -0.000314104 0)
(0.999674 -0.000264936 0)
(0.999161 0.000546151 0)
(0.999781 0.000965049 0)
(1.00014 0.00114046 0)
(0.999679 0.00195557 0)
(0.999642 0.00288575 0)
(1.00057 0.00319101 0)
(1.00146 0.00326962 0)
(1.00162 0.00357514 0)
(1.00148 0.00415158 0)
(1.00171 0.0044737 0)
(1.00221 0.00453784 0)
(1.00018 -0.000183258 0)
(0.999809 -0.00104796 0)
(0.999021 -0.000357074 0)
(0.999166 5.63851e-05 0)
(1.00005 -0.00024599 0)
(1.00015 0.000115941 0)
(1.00032 0.000496893 0)
(1.00044 -0.000109693 0)
(0.999774 -0.000129291 0)
(0.99932 0.00059053 0)
(0.999861 0.0010618 0)
(1.00028 0.00123112 0)
(0.999939 0.00190514 0)
(0.999849 0.00277066 0)
(1.00063 0.00312514 0)
(1.00152 0.00321785 0)
(1.00179 0.00345209 0)
(1.00169 0.00395577 0)
(1.00181 0.00433074 0)
(1.00223 0.00442649 0)
(1.00016 -0.000154544 0)
(0.999849 -0.000965472 0)
(0.999165 -0.000412742 0)
(0.999219 0.000134899 0)
(1.00009 -0.000167305 0)
(1.00025 -8.50864e-06 0)
(1.00034 0.00045582 0)
(1.0004 7.22279e-05 0)
(0.999862 2.8559e-05 0)
(0.99948 0.000637279 0)
(0.999954 0.00112395 0)
(1.0004 0.00131299 0)
(1.00018 0.00187384 0)
(1.00006 0.00266421 0)
(1.00072 0.00305301 0)
(1.00158 0.00316316 0)
(1.00193 0.00334612 0)
(1.0019 0.00376789 0)
(1.00193 0.00416098 0)
(1.00226 0.00431177 0)
(1.00015 -0.000134233 0)
(0.99988 -0.000867392 0)
(0.99931 -0.000466958 0)
(0.999285 0.000178186 0)
(1.00011 -6.62563e-05 0)
(1.00033 -8.69887e-05 0)
(1.00038 0.000385962 0)
(1.00038 0.000224324 0)
(0.99994 0.00020239 0)
(0.999634 0.000696574 0)
(1.00006 0.00116426 0)
(1.00052 0.00137215 0)
(1.0004 0.00184999 0)
(1.00028 0.00256595 0)
(1.00081 0.00297672 0)
(1.00163 0.00310783 0)
(1.00206 0.0032541 0)
(1.00209 0.00359887 0)
(1.00209 0.00397311 0)
(1.0023 0.00418573 0)
(1.00013 -0.000121038 0)
(0.999902 -0.000759457 0)
(0.999452 -0.000508282 0)
(0.999366 0.000189843 0)
(1.00013 4.72515e-05 0)
(1.0004 -0.000101832 0)
(1.00045 0.000305627 0)
(1.00039 0.000325583 0)
(1.00001 0.000374449 0)
(0.999776 0.000774707 0)
(1.00016 0.001203 0)
(1.00064 0.00141392 0)
(1.00061 0.00182619 0)
(1.0005 0.00247355 0)
(1.00093 0.00289543 0)
(1.00169 0.00304838 0)
(1.00216 0.00317087 0)
(1.00227 0.00344906 0)
(1.00226 0.00377788 0)
(1.00237 0.00403874 0)
(1.00012 -0.000113699 0)
(0.999916 -0.000646573 0)
(0.999587 -0.000526014 0)
(0.999462 0.000171764 0)
(1.00014 0.000157844 0)
(1.00045 -6.55854e-05 0)
(1.00053 0.00024288 0)
(1.00044 0.000373053 0)
(1.00009 0.000521911 0)
(0.999907 0.000867425 0)
(1.00027 0.00124058 0)
(1.00075 0.00144905 0)
(1.00081 0.00179882 0)
(1.00072 0.00238184 0)
(1.00105 0.0028106 0)
(1.00175 0.00298449 0)
(1.00225 0.00309412 0)
(1.00243 0.00332196 0)
(1.00243 0.00358925 0)
(1.00246 0.00386867 0)
(1.00011 -0.000109132 0)
(0.999924 -0.000536076 0)
(0.999709 -0.000516833 0)
(0.999569 0.000133016 0)
(1.00016 0.000250445 0)
(1.00049 -6.70591e-09 0)
(1.0006 0.000207432 0)
(1.00051 0.000386469 0)
(1.00019 0.000629212 0)
(1.00003 0.000963829 0)
(1.00037 0.00128431 0)
(1.00086 0.00147962 0)
(1.00098 0.00177412 0)
(1.00094 0.00228663 0)
(1.00119 0.00271717 0)
(1.00182 0.00291463 0)
(1.00233 0.00301484 0)
(1.00256 0.00321314 0)
(1.0026 0.00342042 0)
(1.00259 0.00368111 0)
(1.00011 -0.000104915 0)
(0.999926 -0.000433378 0)
(0.999816 -0.000478509 0)
(0.999683 8.5882e-05 0)
(1.00018 0.000311742 0)
(1.00051 8.85369e-05 0)
(1.00067 0.000209373 0)
(1.0006 0.000386624 0)
(1.0003 0.000692106 0)
(1.00015 0.001046 0)
(1.00046 0.00133945 0)
(1.00096 0.00150881 0)
(1.00114 0.00175737 0)
(1.00115 0.00219677 0)
(1.00135 0.00261292 0)
(1.0019 0.00283841 0)
(1.00241 0.00292956 0)
(1.00267 0.00310773 0)
(1.00274 0.0032766 0)
(1.00272 0.00348706 0)
(1.0001 -9.92018e-05 0)
(0.999926 -0.000342771 0)
(0.999906 -0.000415374 0)
(0.999797 4.38029e-05 0)
(1.00022 0.000340788 0)
(1.00052 0.000185035 0)
(1.00073 0.00024883 0)
(1.0007 0.000389777 0)
(1.00042 0.000721468 0)
(1.00027 0.00110291 0)
(1.00054 0.0013924 0)
(1.00104 0.00154345 0)
(1.00128 0.00174313 0)
(1.00134 0.00211596 0)
(1.00151 0.00250089 0)
(1.00198 0.00275172 0)
(1.00248 0.00284342 0)
(1.00277 0.00299656 0)
(1.00286 0.00315253 0)
(1.00286 0.00330615 0)
(1.0001 -9.10453e-05 0)
(0.999927 -0.000265526 0)
(0.99998 -0.000339388 0)
(0.999906 1.64267e-05 0)
(1.00027 0.000348409 0)
(1.00054 0.000270988 0)
(1.00077 0.000313885 0)
(1.00079 0.000409738 0)
(1.00055 0.000733039 0)
(1.00041 0.00113433 0)
(1.00063 0.00143272 0)
(1.00111 0.00158447 0)
(1.0014 0.00173778 0)
(1.00152 0.00204547 0)
(1.00168 0.00238778 0)
(1.00208 0.00265021 0)
(1.00255 0.00275514 0)
(1.00287 0.00287925 0)
(1.00296 0.00303041 0)
(1.00297 0.00314913 0)
(1.0001 -8.08715e-05 0)
(0.999928 -0.000199985 0)
(1.00004 -0.000259663 0)
(1.00001 8.60514e-06 0)
(1.00033 0.000343147 0)
(1.00056 0.000340457 0)
(1.0008 0.000390832 0)
(1.00087 0.000454557 0)
(1.00069 0.00074185 0)
(1.00055 0.00114066 0)
(1.00072 0.00145489 0)
(1.00117 0.00161683 0)
(1.00149 0.00174405 0)
(1.00167 0.00198895 0)
(1.00183 0.00228004 0)
(1.00219 0.00253678 0)
(1.00261 0.00265897 0)
(1.00295 0.00276172 0)
(1.00305 0.00289829 0)
(1.00306 0.0030106 0)
(1.00009 -6.82589e-05 0)
(0.999931 -0.00014598 0)
(1.00009 -0.000181534 0)
(1.00009 2.16158e-05 0)
(1.0004 0.000334938 0)
(1.00059 0.000392901 0)
(1.00083 0.000468855 0)
(1.00093 0.000515687 0)
(1.00081 0.000759851 0)
(1.0007 0.00113277 0)
(1.00082 0.00145958 0)
(1.00123 0.00163598 0)
(1.00157 0.00175116 0)
(1.0018 0.00194834 0)
(1.00198 0.00218475 0)
(1.0023 0.00241996 0)
(1.00268 0.00255177 0)
(1.00302 0.00264519 0)
(1.00313 0.00275633 0)
(1.00313 0.00287332 0)
(1.00009 -5.39906e-05 0)