/*--------------------------------*- C++ -*----------------------------------*\
| =========                 |                                                 |
| \\      /  F ield         | OpenFOAM: The Open Source CFD Toolbox           |
|  \\    /   O peration     | Version:  v1906                                 |
|   \\  /    A nd           | Web:      www.OpenFOAM.com                      |
|    \\/     M anipulation  |                                                 |
\*---------------------------------------------------------------------------*/
FoamFile
{
    version     2.0;
    format      ascii;
    class       volVectorField;
    location    "3.9";
    object      U;
}
// * * * * * * * * * * * * * * * * * * * * * * * * * * * * * * * * * * * * * //

dimensions      [0 1 -1 0 0 0 0];


internalField   nonuniform List<vector> 
9600
(
(0.943892 0.0105079 0)
(1.0854 -0.0158959 0)
(0.857492 0.01691 0)
(1.15565 0.00194119 0)
(0.850897 -0.00591458 0)
(1.0143 -0.00711618 0)
(0.950868 0.0151814 0)
(1.09252 -0.0191106 0)
(0.792608 0.0217665 0)
(1.17343 0.00390413 0)
(0.725139 0.00861983 0)
(1.16386 0.0217261 0)
(0.780312 0.00527982 0)
(1.09369 0.0107474 0)
(0.851433 -0.00411363 0)
(1.07207 -0.00152928 0)
(0.863408 -0.00908459 0)
(1.08367 -0.00636604 0)
(0.859647 -0.0046175 0)
(1.10495 -0.00888375 0)
(0.94644 0.0102718 0)
(1.07894 -0.0150745 0)
(0.861436 0.0164018 0)
(1.14136 0.00228323 0)
(0.863414 -0.00468894 0)
(1.00654 -0.0080896 0)
(0.953463 0.0140373 0)
(1.08311 -0.0168056 0)
(0.799356 0.020844 0)
(1.1545 0.00578153 0)
(0.746415 0.00855847 0)
(1.13303 0.0212919 0)
(0.835327 0.00645323 0)
(1.04758 0.00964863 0)
(0.912876 -0.00364828 0)
(1.01827 -0.00178079 0)
(0.937996 -0.00913215 0)
(1.00789 -0.00672178 0)
(0.960588 -0.00435324 0)
(0.993126 -0.0101706 0)
(0.951462 0.0100501 0)
(1.07043 -0.0143485 0)
(0.871007 0.0156795 0)
(1.11775 0.00243452 0)
(0.887263 -0.0037189 0)
(0.993048 -0.00882498 0)
(0.957991 0.0131264 0)
(1.06956 -0.0149078 0)
(0.818683 0.0194974 0)
(1.11927 0.00671717 0)
(0.794864 0.0083837 0)
(1.07158 0.020167 0)
(0.900797 0.00773093 0)
(0.996485 0.00828787 0)
(0.952543 -0.00318495 0)
(0.983978 -0.00245372 0)
(0.965128 -0.00883411 0)
(0.979925 -0.00741669 0)
(0.977301 -0.00432396 0)
(0.980432 -0.00850476 0)
(0.958447 0.00987233 0)
(1.06063 -0.0136842 0)
(0.886105 0.0151555 0)
(1.08926 0.00240777 0)
(0.917918 -0.00281265 0)
(0.978794 -0.0093006 0)
(0.963212 0.0122883 0)
(1.05468 -0.0132987 0)
(0.849651 0.0185645 0)
(1.07765 0.00712901 0)
(0.854243 0.00887249 0)
(1.00953 0.0186227 0)
(0.943968 0.00864649 0)
(0.970728 0.00753014 0)
(0.96531 -0.00313332 0)
(0.975828 -0.0027811 0)
(0.970738 -0.00868028 0)
(0.975832 -0.00789065 0)
(0.977592 -0.00415139 0)
(0.980051 -0.00775458 0)
(0.966633 0.00971094 0)
(1.04999 -0.0130782 0)
(0.905158 0.0148634 0)
(1.06102 0.0022153 0)
(0.948056 -0.00196154 0)
(0.969327 -0.00954478 0)
(0.967735 0.0114074 0)
(1.04145 -0.0120262 0)
(0.885265 0.0182156 0)
(1.04104 0.00718899 0)
(0.904851 0.00981492 0)
(0.971205 0.0173706 0)
(0.964472 0.00902279 0)
(0.96763 0.00721711 0)
(0.971057 -0.00321478 0)
(0.977247 -0.00307105 0)
(0.976338 -0.00847496 0)
(0.976978 -0.0082146 0)
(0.979903 -0.00404741 0)
(0.981125 -0.00725905 0)
(0.975142 0.00956053 0)
(1.03915 -0.0125463 0)
(0.925692 0.014721 0)
(1.03777 0.00190567 0)
(0.971884 -0.00124523 0)
(0.967283 -0.00955542 0)
(0.971083 0.0105548 0)
(1.03136 -0.0110985 0)
(0.917159 0.0182204 0)
(1.01636 0.00706208 0)
(0.939275 0.0107674 0)
(0.958799 0.0166172 0)
(0.97417 0.00892417 0)
(0.974143 0.00701468 0)
(0.978262 -0.00323846 0)
(0.981342 -0.00339325 0)
(0.982086 -0.00824673 0)
(0.980291 -0.00839798 0)
(0.982377 -0.00405108 0)
(0.983367 -0.00675129 0)
(0.983149 0.00942473 0)
(1.02884 -0.0121012 0)
(0.945255 0.0146687 0)
(1.02188 0.00156096 0)
(0.987403 -0.000702212 0)
(0.971281 -0.00937701 0)
(0.974094 0.00979026 0)
(1.02401 -0.0104832 0)
(0.940553 0.0183891 0)
(1.00383 0.00690728 0)
(0.9603 0.0114941 0)
(0.961673 0.0161806 0)
(0.981385 0.00859335 0)
(0.982473 0.00678206 0)
(0.986157 -0.00319315 0)
(0.986603 -0.00365577 0)
(0.986654 -0.00800031 0)
(0.98389 -0.00847244 0)
(0.98437 -0.00407716 0)
(0.985058 -0.00622463 0)
(0.990036 0.00930514 0)
(1.01972 -0.0117406 0)
(0.962152 0.0146555 0)
(1.01299 0.00125412 0)
(0.995832 -0.000325542 0)
(0.977882 -0.00908643 0)
(0.978006 0.00914555 0)
(1.01814 -0.0100763 0)
(0.955535 0.0186085 0)
(0.999599 0.00677764 0)
(0.973371 0.0119764 0)
(0.969957 0.0158962 0)
(0.988583 0.00822021 0)
(0.990166 0.00652218 0)
(0.993126 -0.00310634 0)
(0.991981 -0.00380238 0)
(0.990595 -0.00771559 0)
(0.986992 -0.00844379 0)
(0.986096 -0.00406357 0)
(0.986026 -0.00566743 0)
(0.995465 0.00920138 0)
(1.01223 -0.0114525 0)
(0.975643 0.0146319 0)
(1.00908 0.00102657 0)
(0.999712 -7.95478e-05 0)
(0.984167 -0.0087631 0)
(0.983265 0.00863651 0)
(1.01281 -0.00976159 0)
(0.964916 0.0187863 0)
(0.999411 0.00665989 0)
(0.982318 0.012265 0)
(0.978799 0.0156835 0)
(0.995539 0.007863 0)
(0.99675 0.0062712 0)
(0.998795 -0.00297251 0)
(0.996752 -0.00384674 0)
(0.994266 -0.00739604 0)
(0.989858 -0.00828523 0)
(0.987797 -0.00398881 0)
(0.98684 -0.0050663 0)
(0.999364 0.00911175 0)
(1.0066 -0.0112224 0)
(0.9857 0.0145668 0)
(1.00799 0.000889252 0)
(1.00134 7.87936e-05 0)
(0.988823 -0.0084649 0)
(0.989235 0.00826006 0)
(1.00786 -0.00946311 0)
(0.97149 0.0188591 0)
(1.0005 0.00654564 0)
(0.988926 0.012399 0)
(0.98662 0.0155031 0)
(1.00163 0.00752615 0)
(1.00214 0.00606085 0)
(1.00326 -0.0027958 0)
(1.00064 -0.00383141 0)
(0.99753 -0.00703753 0)
(0.992637 -0.00799531 0)
(0.989612 -0.00385996 0)
(0.987854 -0.00443799 0)
(1.00186 0.00903303 0)
(1.00278 -0.0110351 0)
(0.99267 0.0144508 0)
(1.00816 0.000832661 0)
(1.00215 0.000184365 0)
(0.991771 -0.00821444 0)
(0.994808 0.00799637 0)
(1.0036 -0.00915011 0)
(0.976729 0.0188099 0)
(1.00169 0.00643912 0)
(0.993883 0.0123952 0)
(0.993036 0.0153329 0)
(1.00649 0.00721782 0)
(1.0063 0.00591023 0)
(1.00659 -0.00259973 0)
(1.00357 -0.00375805 0)
(1.00016 -0.00664983 0)
(0.995143 -0.00762158 0)
(0.991454 -0.00367609 0)
(0.989082 -0.00380331 0)
(1.00323 0.00896081 0)
(1.00052 -0.0108759 0)
(0.997045 0.0142881 0)
(1.00871 0.000836874 0)
(1.0028 0.000262994 0)
(0.993428 -0.008007 0)
(0.999116 0.00781421 0)
(1.00039 -0.00881742 0)
(0.980968 0.0186478 0)
(1.00269 0.0063571 0)
(0.997514 0.0122665 0)
(0.997946 0.0151672 0)
(1.01005 0.00694544 0)
(1.00921 0.005812 0)
(1.00887 -0.00239584 0)
(1.00558 -0.00362126 0)
(1.00206 -0.00626113 0)
(0.997149 -0.00721042 0)
(0.99311 -0.00343292 0)
(0.99036 -0.00316746 0)
(1.00379 0.00889039 0)
(0.99945 -0.0107304 0)
(0.999387 0.0140872 0)
(1.00923 0.000880077 0)
(1.00351 0.000328999 0)
(0.994249 -0.00782345 0)
(1.00186 0.00767991 0)
(0.998346 -0.00846727 0)
(0.984142 0.0183922 0)
(1.00351 0.00631059 0)
(1.00004 0.0120299 0)
(1.00134 0.0150149 0)
(1.0124 0.00669205 0)
(1.01099 0.00576391 0)
(1.01022 -0.00218312 0)
(1.00677 -0.003448 0)
(1.00324 -0.00587759 0)
(0.998576 -0.0067815 0)
(0.99443 -0.00312746 0)
(0.99152 -0.00253893 0)
(1.00386 0.00881752 0)
(0.999181 -0.0105861 0)
(1.00029 0.0138566 0)
(1.00954 0.000942996 0)
(1.00428 0.000387734 0)
(0.994582 -0.00764119 0)
(1.00322 0.00756435 0)
(0.997261 -0.00810138 0)
(0.986299 0.0180596 0)
(1.00412 0.00629992 0)
(1.00167 0.011709 0)
(1.00332 0.0148815 0)
(1.01373 0.00644719 0)
(1.01187 0.00575781 0)
(1.01085 -0.00196341 0)
(1.00738 -0.00325787 0)
(1.00388 -0.00547854 0)
(0.999505 -0.00636276 0)
(0.995411 -0.00277036 0)
(0.992484 -0.00193594 0)
(1.00366 0.0087389 0)
(0.999372 -0.0104327 0)
(1.00032 0.0136035 0)
(1.00958 0.0010114 0)
(1.00504 0.000440694 0)
(0.99467 -0.0074409 0)
(1.00364 0.00744732 0)
(0.99681 -0.0077227 0)
(0.987684 0.0176658 0)
(1.00449 0.00632433 0)
(1.0026 0.0113297 0)
(1.00418 0.0147629 0)
(1.01429 0.00621047 0)
(1.01211 0.0057751 0)
(1.01099 -0.00173536 0)
(1.00761 -0.0030613 0)
(1.00417 -0.00504312 0)
(1.00009 -0.00597836 0)
(0.996142 -0.00238632 0)
(0.993265 -0.00136457 0)
(1.00336 0.00865224 0)
(0.999774 -0.0102636 0)
(0.999925 0.013333 0)
(1.0094 0.0010779 0)
(1.00572 0.00048462 0)
(0.994675 -0.00720824 0)
(1.00354 0.00731473 0)
(0.996707 -0.00733066 0)
(0.98859 0.0172207 0)
(1.00464 0.00638846 0)
(1.00305 0.0109094 0)
(1.00426 0.0146579 0)
(1.01431 0.00597225 0)
(1.01199 0.00580552 0)
(1.01084 -0.00149266 0)
(1.00763 -0.00288047 0)
(1.00427 -0.00456148 0)
(1.00046 -0.00562584 0)
(0.996731 -0.00200398 0)
(0.993917 -0.000814158 0)
(1.00305 0.00855621 0)
(1.00023 -0.0100749 0)
(0.999422 0.013048 0)
(1.00907 0.00113994 0)
(1.00626 0.00051621 0)
(0.994691 -0.00693762 0)
(1.0032 0.00716017 0)
(0.996781 -0.00692254 0)
(0.989229 0.0167299 0)
(1.00461 0.0064947 0)
(1.00322 0.0104572 0)
(1.00392 0.0145688 0)
(1.014 0.0057214 0)
(1.01169 0.00583544 0)
(1.01055 -0.00122996 0)
(1.00756 -0.00273077 0)
(1.00428 -0.00402573 0)
(1.00074 -0.00529755 0)
(0.997245 -0.00165085 0)
(0.994485 -0.000268437 0)
(1.00276 0.00845001 0)
(1.00066 -0.00986501 0)
(0.998978 0.0127498 0)
(1.00869 0.00120002 0)
(1.00663 0.000532121 0)
(0.994757 -0.00662739 0)
(1.00281 0.00698121 0)
(0.996955 -0.00649675 0)
(0.989712 0.0162004 0)
(1.00447 0.00663755 0)
(1.00328 0.00998427 0)
(1.0034 0.0144908 0)
(1.01352 0.00547086 0)
(1.01131 0.00584517 0)
(1.01018 -0.000935441 0)
(1.00745 -0.00262391 0)
(1.00424 -0.00345549 0)
(1.00095 -0.00496186 0)
(0.997717 -0.00135232 0)
(0.994992 0.000302156 0)
(1.00252 0.00833332 0)
(1.00102 -0.00963356 0)
(0.99866 0.0124375 0)
(1.00831 0.00126289 0)
(1.00683 0.000529242 0)
(0.994873 -0.00627872 0)
(1.00245 0.00677906 0)
(0.99719 -0.00605432 0)
(0.990099 0.0156377 0)
(1.00428 0.00681517 0)
(1.00335 0.00949707 0)
(1.00287 0.0144183 0)
(1.01296 0.0052293 0)
(1.01093 0.00581365 0)
(1.00978 -0.000585175 0)
(1.00733 -0.00257809 0)
(1.00419 -0.00287796 0)
(1.00112 -0.0045856 0)
(0.99816 -0.00112561 0)
(0.995448 0.000896977 0)
(1.00231 0.0082061 0)
(1.00132 -0.00938122 0)
(0.99847 0.0121104 0)
(1.00797 0.00133185 0)
(1.0069 0.000507901 0)
(0.995024 -0.00589532 0)
(1.00215 0.00655322 0)
(0.997459 -0.00558998 0)
(0.990426 0.0150412 0)
(1.00408 0.00702443 0)
(1.00347 0.00899856 0)
(1.00241 0.0143436 0)
(1.0124 0.00500016 0)
(1.01058 0.00572929 0)
(1.00937 -0.000177437 0)
(1.00723 -0.00257396 0)
(1.00413 -0.00231036 0)
(1.00126 -0.00414776 0)
(0.998583 -0.000988175 0)
(0.995868 0.00147027 0)
(1.00212 0.00806846 0)
(1.00156 -0.00910861 0)
(0.998381 0.0117658 0)
(1.00769 0.00141376 0)
(1.00684 0.000465082 0)
(0.995195 -0.00547852 0)
(1.00192 0.0063019 0)
(0.997744 -0.00510339 0)
(0.99072 0.0144182 0)
(1.00388 0.0072519 0)
(1.00363 0.00849437 0)
(1.00206 0.0142493 0)
(1.01185 0.00481171 0)
(1.01028 0.0055858 0)
(1.00894 0.000284563 0)
(1.00714 -0.00258049 0)
(1.00408 -0.00178646 0)
(1.00139 -0.00361834 0)
(0.998994 -0.000934594 0)
(0.99627 0.00198172 0)
(1.00194 0.00792028 0)
(1.00175 -0.00881591 0)
(0.998361 0.0114014 0)
(1.00746 0.00151122 0)
(1.0067 0.000403005 0)
(0.995377 -0.0050349 0)
(1.00174 0.00602762 0)
(0.998035 -0.00459881 0)
(0.990995 0.0137736 0)
(1.00368 0.00749616 0)
(1.00381 0.00799002 0)
(1.00182 0.0141313 0)
(1.01133 0.00466812 0)
(1.01003 0.00537782 0)
(1.0085 0.000793534 0)
(1.00707 -0.00257534 0)
(1.00404 -0.00133864 0)
(1.00149 -0.00298614 0)
(0.999394 -0.00092365 0)
(0.996678 0.00239954 0)
(1.00178 0.00776194 0)
(1.00192 -0.00850443 0)
(0.99838 0.0110179 0)
(1.00727 0.00162471 0)
(1.00651 0.000323808 0)
(0.995563 -0.00456777 0)
(1.0016 0.00573557 0)
(0.998327 -0.0040797 0)
(0.991262 0.0131133 0)
(1.00349 0.00774208 0)
(1.004 0.00750205 0)
(1.00166 0.0139845 0)
(1.01084 0.00458177 0)
(1.00983 0.00509682 0)
(1.00806 0.00132678 0)
(1.007 -0.00252165 0)
(1.00403 -0.000985374 0)
(1.00157 -0.00227077 0)
(0.99978 -0.000907082 0)
(0.997113 0.00268621 0)
(1.00162 0.0075927 0)
(1.00207 -0.00817241 0)
(0.998422 0.0106117 0)
(1.00709 0.00176019 0)
(1.00629 0.000223437 0)
(0.995747 -0.00407772 0)
(1.00149 0.00542953 0)
(0.998617 -0.0035522 0)
(0.991526 0.0124488 0)
(1.00331 0.00797668 0)
(1.00418 0.00703895 0)
(1.00155 0.0137828 0)
(1.01036 0.0045665 0)
(1.00967 0.00475845 0)
(1.00763 0.00185941 0)
(1.00691 -0.00240744 0)
(1.00406 -0.000745298 0)
(1.00164 -0.00151187 0)
(1.00014 -0.000832415 0)
(0.997589 0.00281684 0)
(1.00148 0.00741257 0)
(1.0022 -0.00782108 0)
(0.998481 0.0101838 0)
(1.00691 0.00191405 0)
(1.00607 0.000108545 0)
(0.995927 -0.00357488 0)
(1.00139 0.00511142 0)
(0.998901 -0.0030163 0)
(0.991799 0.0117845 0)
(1.00313 0.0081948 0)
(1.00436 0.00660442 0)
(1.00148 0.0135233 0)
(1.00988 0.00462262 0)
(1.00954 0.00438691 0)
(1.0072 0.00238335 0)
(1.0068 -0.00221017 0)
(1.00413 -0.000611821 0)
(1.0017 -0.000754356 0)
(1.00047 -0.000651561 0)
(0.998108 0.00279532 0)
(1.00135 0.00722221 0)
(1.00231 -0.00745161 0)
(0.998559 0.00973588 0)
(1.00672 0.00208705 0)
(1.00585 -2.04691e-05 0)
(0.9961 -0.00306076 0)
(1.0013 0.00478813 0)
(0.999177 -0.00248731 0)
(0.992087 0.0111341 0)
(1.00294 0.00837762 0)
(1.00453 0.00621521 0)
(1.00143 0.0132091 0)
(1.00939 0.00474316 0)
(1.00943 0.0039895 0)
(1.00679 0.00287794 0)
(1.00665 -0.00190413 0)
(1.00424 -0.000557286 0)
(1.00176 -6.00423e-05 0)
(1.00075 -0.000343545 0)
(0.998663 0.00265163 0)
(1.00124 0.00701968 0)
(1.0024 -0.00706064 0)
(0.998661 0.00926579 0)
(1.0065 0.00228046 0)
(1.00565 -0.000164421 0)
(0.996265 -0.00253325 0)
(1.00123 0.00446673 0)
(0.999441 -0.001974 0)
(0.992398 0.0105174 0)
(1.00275 0.00851626 0)
(1.0047 0.00587201 0)
(1.00139 0.0128421 0)
(1.0089 0.00490919 0)
(1.00935 0.00358203 0)
(1.00641 0.00330786 0)
(1.00646 -0.00150018 0)
(1.00439 -0.00056194 0)
(1.00185 0.000569718 0)
(1.00097 8.9757e-05 0)
(0.999235 0.00243088 0)
(1.00115 0.00680624 0)
(1.00246 -0.00665202 0)
(0.998788 0.00877668 0)
(1.00627 0.00249007 0)
(1.00547 -0.000317557 0)
(0.996424 -0.00200663 0)
(1.00119 0.00415696 0)
(0.999696 -0.0014885 0)
(0.992734 0.00994653 0)
(1.00255 0.00861189 0)
(1.00487 0.00556721 0)
(1.00136 0.0124299 0)
(1.00841 0.00512109 0)
(1.00927 0.00318878 0)
(1.00608 0.00366553 0)
(1.00622 -0.000984143 0)
(1.00456 -0.000596568 0)
(1.00197 0.00111471 0)
(1.00113 0.000645872 0)
(0.999796 0.00222113 0)
(1.00108 0.00658178 0)
(1.00251 -0.0062252 0)
(0.99894 0.0082693 0)
(1.00602 0.00271352 0)
(1.0053 -0.000474912 0)
(0.996578 -0.00148868 0)
(1.00116 0.00386745 0)
(0.999942 -0.00104609 0)
(0.993093 0.00942473 0)
(1.00235 0.00865363 0)
(1.00503 0.00530633 0)
(1.00135 0.0119831 0)
(1.00791 0.00535774 0)
(1.0092 0.00282617 0)
(1.00581 0.00393626 0)
(1.00592 -0.000379831 0)
(1.00475 -0.000621291 0)
(1.00214 0.00150846 0)
(1.00124 0.00129172 0)
(1.00031 0.00212163 0)
(1.00101 0.00634571 0)
(1.00254 -0.00578003 0)
(0.99911 0.00774486 0)
(1.00576 0.00295056 0)
(1.00515 -0.000636141 0)
(0.99673 -0.000981268 0)
(1.00114 0.00360724 0)
(1.00018 -0.00065431 0)
(0.99347 0.00896265 0)
(1.00216 0.00864625 0)
(1.00519 0.00507965 0)
(1.00136 0.011498 0)
(1.0074 0.00561833 0)
(1.00914 0.00251066 0)
(1.00559 0.00411207 0)
(1.00559 0.000282711 0)
(1.00492 -0.000589492 0)
(1.00238 0.00174246 0)
(1.00132 0.00194783 0)
(1.00074 0.00218627 0)
(1.00096 0.00609849 0)
(1.00255 -0.00531858 0)
(0.999294 0.00720666 0)
(1.00549 0.00319803 0)
(1.00501 -0.000795655 0)
(0.99688 -0.000499259 0)
(1.00112 0.0033915 0)
(1.00043 -0.00032097 0)
(0.99386 0.00855485 0)
(1.00197 0.00861441 0)
(1.00533 0.00487552 0)
(1.0014 0.0109896 0)
(1.00688 0.00589357 0)
(1.00907 0.00225362 0)
(1.00545 0.00419509 0)
(1.00523 0.000985648 0)
(1.00506 -0.00047092 0)
(1.00268 0.00183422 0)
(1.0014 0.00254757 0)
(1.00106 0.00244199 0)
(1.0009 0.00584041 0)
(1.00255 -0.00484262 0)
(0.999486 0.00665836 0)
(1.00522 0.00344564 0)
(1.00487 -0.000941122 0)
(0.997032 -4.19667e-05 0)
(1.00111 0.00322805 0)
(1.00067 -5.7343e-05 0)
(0.994261 0.00819678 0)
(1.00178 0.00855106 0)
(1.00547 0.00469284 0)
(1.00146 0.0104843 0)
(1.00635 0.00616716 0)
(1.009 0.00206076 0)
(1.00539 0.00418132 0)
(1.00486 0.00168894 0)
(1.00515 -0.000252957 0)
(1.00303 0.00182063 0)
(1.00151 0.00302931 0)
(1.00127 0.00285897 0)
(1.00085 0.00557318 0)
(1.00253 -0.00435555 0)
(0.999682 0.00610359 0)
(1.00495 0.0036912 0)
(1.00474 -0.00106963 0)
(0.997189 0.000375854 0)
(1.00109 0.00312334 0)
(1.00091 0.000141068 0)
(0.994672 0.00787561 0)
(1.00159 0.00846911 0)
(1.00559 0.00453077 0)
(1.00155 0.00995474 0)
(1.00581 0.00644985 0)
(1.00889 0.00194839 0)
(1.0054 0.00407896 0)
(1.00449 0.002375 0)
(1.00517 7.62761e-05 0)
(1.00342 0.00175824 0)
(1.00169 0.00335895 0)
(1.0014 0.00335616 0)
(1.0008 0.0052956 0)
(1.00251 -0.00385649 0)
(0.999881 0.00554613 0)
(1.00468 0.0039295 0)
(1.00462 -0.00117309 0)
(0.997354 0.000734254 0)
(1.00106 0.00308708 0)
(1.00116 0.000284492 0)
(0.995094 0.007576 0)
(1.0014 0.00839408 0)
(1.0057 0.00437088 0)
(1.00168 0.00940257 0)
(1.00528 0.0067282 0)
(1.00875 0.00192456 0)
(1.00549 0.00389751 0)
(1.00416 0.00301878 0)
(1.00511 0.00051241 0)
(1.00381 0.00169337 0)
(1.00195 0.00354062 0)
(1.00148 0.00383643 0)
(1.00076 0.00500969 0)
(1.00247 -0.003351 0)
(1.00008 0.00499411 0)
(1.00442 0.00414929 0)
(1.00449 -0.00123748 0)
(0.997528 0.00102729 0)
(1.00102 0.00311433 0)
(1.0014 0.000392876 0)
(0.99553 0.00727607 0)
(1.00122 0.00833071 0)
(1.00578 0.0042214 0)
(1.00185 0.00883491 0)
(1.00475 0.00699002 0)
(1.00857 0.00199276 0)
(1.00564 0.00364513 0)
(1.00388 0.0035827 0)
(1.00498 0.00103166 0)
(1.00419 0.00164745 0)
(1.00228 0.00359474 0)
(1.00158 0.00422111 0)
(1.00071 0.00471633 0)
(1.00241 -0.00284278 0)
(1.00028 0.00445248 0)
(1.00415 0.00434492 0)
(1.00436 -0.00125971 0)
(0.997715 0.00124621 0)
(1.00096 0.0031981 0)
(1.00163 0.000478881 0)
(0.995982 0.00695676 0)
(1.00104 0.0082841 0)
(1.00584 0.00410932 0)
(1.00206 0.00824509 0)
(1.00425 0.00722141 0)
(1.00832 0.00216528 0)
(1.00585 0.003341 0)
(1.00368 0.00402937 0)
(1.00477 0.00162585 0)
(1.00452 0.00166527 0)
(1.00268 0.00357409 0)
(1.00172 0.00448814 0)
(1.00067 0.00441727 0)
(1.00235 -0.00233679 0)
(1.00048 0.00392819 0)
(1.0039 0.00450486 0)
(1.00422 -0.00123153 0)
(0.997917 0.00139635 0)
(1.00091 0.00332496 0)
(1.00185 0.00055286 0)
(0.996454 0.00661813 0)
(1.00086 0.00824984 0)
(1.00586 0.00404277 0)
(1.00232 0.00764489 0)
(1.0038 0.00740797 0)
(1.00801 0.00244429 0)
(1.00609 0.00302829 0)
(1.00357 0.00433834 0)
(1.00452 0.00226458 0)
(1.00478 0.00176008 0)
(1.00313 0.00350554 0)
(1.00193 0.00464668 0)
(1.00063 0.00411529 0)
(1.00226 -0.00183871 0)
(1.00067 0.00342838 0)
(1.00365 0.00462228 0)
(1.00407 -0.00114039 0)
(0.998133 0.00147037 0)
(1.00084 0.00348328 0)
(1.00205 0.000639568 0)
(0.996942 0.00624751 0)
(1.00071 0.00821248 0)
(1.00584 0.00403037 0)
(1.00261 0.00704124 0)
(1.0034 0.00752878 0)
(1.00764 0.00281321 0)
(1.00634 0.00275422 0)
(1.00356 0.00449917 0)
(1.00424 0.00290627 0)
(1.00495 0.0019404 0)
(1.00359 0.00340128 0)
(1.00221 0.00471941 0)
(1.00059 0.00381062 0)
(1.00217 -0.00134952 0)
(1.00086 0.00296201 0)
(1.00342 0.0046892 0)
(1.00392 -0.000990027 0)
(0.998363 0.0014786 0)
(1.00078 0.00365672 0)
(1.00223 0.00075689 0)
(0.997446 0.00584384 0)
(1.00057 0.00815891 0)
(1.00578 0.00408219 0)
(1.00293 0.0064417 0)
(1.00307 0.00755958 0)
(1.00721 0.00325276 0)
(1.00657 0.0025529 0)
(1.00366 0.00450717 0)
(1.00396 0.00351109 0)
(1.00503 0.00222547 0)
(1.00405 0.00328539 0)
(1.00256 0.00472618 0)
(1.00055 0.00350369 0)
(1.00206 -0.000872012 0)
(1.00103 0.00253466 0)
(1.0032 0.00470222 0)
(1.00375 -0.000769384 0)
(0.998604 0.00143444 0)
(1.00073 0.00382371 0)
(1.00238 0.000924538 0)
(0.997962 0.00541988 0)
(1.00047 0.00806332 0)
(1.00567 0.00420702 0)
(1.00327 0.00588471 0)
(1.00283 0.00749572 0)
(1.00674 0.00372307 0)
(1.00676 0.00244858 0)
(1.00387 0.00438636 0)
(1.00371 0.00402731 0)
(1.005 0.00260578 0)
(1.00448 0.00318563 0)
(1.00296 0.00465805 0)
(1.00052 0.00320129 0)
(1.00193 -0.000417046 0)
(1.0012 0.00214906 0)
(1.003 0.00465867 0)
(1.00356 -0.000478887 0)
(0.998853 0.00135196 0)
(1.00069 0.00395796 0)
(1.00249 0.00116123 0)
(0.998483 0.00500397 0)
(1.00041 0.0079194 0)
(1.00553 0.00438136 0)
(1.0036 0.00539572 0)
(1.00267 0.00732939 0)
(1.00625 0.0041741 0)
(1.00687 0.00245323 0)
(1.00415 0.00418274 0)
(1.00354 0.00442145 0)
(1.00489 0.00306113 0)
(1.00484 0.00315721 0)
(1.00343 0.00451727 0)
(1.00049 0.00290061 0)
(1.0018 1.38176e-05 0)
(1.00135 0.00181938 0)
(1.00282 0.00454321 0)
(1.00336 -0.000127512 0)
(0.999102 0.0012503 0)
(1.00068 0.00404 0)
(1.00257 0.00144069 0)
(0.999 0.00461852 0)
(1.00039 0.00772711 0)
(1.00534 0.00459076 0)
(1.00392 0.00499666 0)
(1.00261 0.00709075 0)
(1.00575 0.00458488 0)
(1.00691 0.00255817 0)
(1.00449 0.00393706 0)
(1.00347 0.00466512 0)
(1.00471 0.00353281 0)
(1.0051 0.00323038 0)
(1.00392 0.00433142 0)
(1.00046 0.0026125 0)
(1.00165 0.00040596 0)
(1.00147 0.00154921 0)
(1.00266 0.00436272 0)
(1.00315 0.000252168 0)
(0.999344 0.00114252 0)
(1.00069 0.00404364 0)
(1.00263 0.00175715 0)
(0.999503 0.00429114 0)
(1.00043 0.00746681 0)
(1.00513 0.00479383 0)
(1.0042 0.00468403 0)
(1.00262 0.00679702 0)
(1.00527 0.00493252 0)
(1.00686 0.00275107 0)
(1.00486 0.00370672 0)
(1.00351 0.00477719 0)
(1.00452 0.00397663 0)
(1.00526 0.00341187 0)
(1.00439 0.00416527 0)
(1.00043 0.00233056 0)
(1.00149 0.000765897 0)
(1.00157 0.00134188 0)
(1.00253 0.00412378 0)
(1.00293 0.000648554 0)
(0.999571 0.00109416 0)
(1.00074 0.00397362 0)
(1.00266 0.0020868 0)
(0.999973 0.0040524 0)
(1.0005 0.00717077 0)
(1.0049 0.0049718 0)
(1.00445 0.00445512 0)
(1.00271 0.00646361 0)
(1.00484 0.00520199 0)
(1.00673 0.00300919 0)
(1.00522 0.00351504 0)
(1.00365 0.00476896 0)
(1.00435 0.00434661 0)
(1.00531 0.00366264 0)
(1.00481 0.00407178 0)
(1.00041 0.00206388 0)
(1.00133 0.00107841 0)
(1.00165 0.00120567 0)
(1.00243 0.00381585 0)
(1.00271 0.00107127 0)
(0.999766 0.00114916 0)
(1.00081 0.00385826 0)
(1.00269 0.00239613 0)
(1.00042 0.00389282 0)
(1.00061 0.00683724 0)
(1.00467 0.00508508 0)
(1.00465 0.00427841 0)
(1.00286 0.00610252 0)
(1.00447 0.00538394 0)
(1.00652 0.00330405 0)
(1.00554 0.00337953 0)
(1.00389 0.00466226 0)
(1.00423 0.0046238 0)
(1.00528 0.00393532 0)
(1.00513 0.00406527 0)
(1.00039 0.00181881 0)
(1.00117 0.00133362 0)
(1.00169 0.0011336 0)
(1.00235 0.00347503 0)
(1.00251 0.00147482 0)
(0.99993 0.00128122 0)
(1.0009 0.00370592 0)
(1.00271 0.00264433 0)
(1.00082 0.00377755 0)
(1.00075 0.00647956 0)
(1.00445 0.00514391 0)
(1.0048 0.00414933 0)
(1.00306 0.00574238 0)
(1.00417 0.00549085 0)
(1.00627 0.00361995 0)
(1.0058 0.00333173 0)
(1.0042 0.00450029 0)
(1.00418 0.00480715 0)
(1.0052 0.00420243 0)
(1.00535 0.00412469 0)
(1.00037 0.00158656 0)
(1.001 0.00154117 0)
(1.00169 0.00112781 0)
(1.0023 0.00312542 0)
(1.00232 0.00180489 0)
(1.00006 0.00147915 0)
(1.00099 0.00355593 0)
(1.00273 0.00281011 0)
(1.00118 0.00370389 0)
(1.00092 0.00616047 0)
(1.00423 0.00518762 0)
(1.00491 0.00406985 0)
(1.00329 0.00540008 0)
(1.00394 0.00552768 0)
(1.00598 0.00392718 0)
(1.00598 0.00336605 0)
(1.00455 0.00431323 0)
(1.00422 0.00488277 0)
(1.00511 0.0044431 0)
(1.00549 0.00421862 0)
(1.00035 0.00138379 0)
(1.00084 0.00168241 0)
(1.00166 0.00117703 0)
(1.00226 0.00276708 0)
(1.00217 0.0020542 0)
(1.00015 0.00173372 0)
(1.00108 0.00343505 0)
(1.00276 0.00292304 0)
(1.00152 0.00365818 0)
(1.00109 0.00587059 0)
(1.00402 0.00519848 0)
(1.00497 0.00402783 0)
(1.00354 0.00507747 0)
(1.0038 0.00549077 0)
(1.00568 0.0042006 0)
(1.00608 0.00346804 0)
(1.0049 0.0041407 0)
(1.00435 0.0048583 0)
(1.00503 0.00463894 0)
(1.00556 0.00433348 0)
(1.00033 0.00120402 0)
(1.00069 0.00176169 0)
(1.0016 0.00126803 0)
(1.00223 0.00242977 0)
(1.00205 0.00220863 0)
(1.00022 0.00202578 0)
(1.00115 0.00336577 0)
(1.00279 0.00299721 0)
(1.00183 0.00361329 0)
(1.00128 0.00560294 0)
(1.00383 0.00519098 0)
(1.00498 0.00402687 0)
(1.00379 0.00478372 0)
(1.00374 0.00538448 0)
(1.00539 0.00442175 0)
(1.00609 0.00361573 0)
(1.00523 0.00401076 0)
(1.00455 0.00475871 0)
(1.00498 0.00476608 0)
(1.00557 0.00446483 0)
(1.00032 0.00105056 0)
(1.00056 0.00178236 0)
(1.00152 0.00138743 0)
(1.00221 0.00213824 0)
(1.00197 0.0022559 0)
(1.00028 0.00232431 0)
(1.0012 0.00337453 0)
(1.00281 0.00305234 0)
(1.00211 0.00355184 0)
(1.00148 0.00534891 0)
(1.00366 0.00516464 0)
(1.00495 0.004045 0)
(1.00403 0.00452438 0)
(1.00375 0.00522642 0)
(1.00514 0.00458167 0)
(1.00604 0.00378988 0)
(1.00551 0.00394299 0)
(1.00481 0.00462836 0)
(1.005 0.00481521 0)
(1.00554 0.00459335 0)
(1.0003 0.000923658 0)
(1.00044 0.00175092 0)
(1.00141 0.0015179 0)
(1.00217 0.00190951 0)
(1.00193 0.00223234 0)
(1.00034 0.00259623 0)
(1.00123 0.00343985 0)
(1.00282 0.00310041 0)
(1.00237 0.00347512 0)
(1.00169 0.00509799 0)
(1.00352 0.00512124 0)
(1.00488 0.0040892 0)
(1.00424 0.00431995 0)
(1.00382 0.00504162 0)
(1.00494 0.00467611 0)
(1.00594 0.00395821 0)
(1.00573 0.00392407 0)
(1.00508 0.00448991 0)
(1.00507 0.00478222 0)
(1.00551 0.00467326 0)
(1.00028 0.000822991 0)
(1.00034 0.00167251 0)
(1.00129 0.00165536 0)
(1.00212 0.00175128 0)
(1.00194 0.00215085 0)
(1.00041 0.00281844 0)
(1.00124 0.00354788 0)
(1.0028 0.00316518 0)
(1.0026 0.00340135 0)
(1.00191 0.00484458 0)
(1.00341 0.00504907 0)
(1.00478 0.00415051 0)
(1.00442 0.00416804 0)
(1.00394 0.00483559 0)
(1.00479 0.00470287 0)
(1.00582 0.00410067 0)
(1.00587 0.00394111 0)
(1.00535 0.00437275 0)
(1.0052 0.00470833 0)
(1.00551 0.00469713 0)
(1.00027 0.000746671 0)
(1.00026 0.001565 0)
(1.00117 0.00178243 0)
(1.00205 0.00168504 0)
(1.00197 0.00201922 0)
(1.00051 0.00294558 0)
(1.00123 0.00367053 0)
(1.00276 0.00325513 0)
(1.00279 0.00333927 0)
(1.00214 0.00459041 0)
(1.00333 0.00493913 0)
(1.00466 0.0042066 0)
(1.00455 0.00407065 0)
(1.00408 0.00463401 0)
(1.0047 0.00467448 0)
(1.00569 0.00421254 0)
(1.00596 0.00397689 0)
(1.00559 0.00427777 0)
(1.00535 0.00462135 0)
(1.00554 0.00467068 0)
(1.00025 0.000688882 0)
(1.00021 0.00144954 0)
(1.00106 0.00187854 0)
(1.00196 0.00170684 0)
(1.00202 0.00188072 0)
(1.00065 0.00295861 0)
(1.00123 0.00377376 0)
(1.0027 0.00336833 0)
(1.00295 0.00330158 0)
(1.00237 0.00435027 0)
(1.0033 0.00480005 0)
(1.00453 0.00424192 0)
(1.00464 0.00401789 0)
(1.00423 0.0044588 0)
(1.00467 0.00460348 0)
(1.00557 0.00428493 0)
(1.006 0.00401677 0)
(1.0058 0.00418921 0)
(1.00552 0.00452147 0)
(1.0056 0.00461319 0)
(1.00023 0.000643958 0)
(1.00017 0.00134252 0)
(1.00096 0.00193425 0)
(1.00186 0.00178169 0)
(1.00207 0.00178371 0)
(1.00081 0.00288297 0)
(1.00125 0.0038334 0)
(1.00262 0.00349637 0)
(1.00307 0.00329606 0)
(1.00259 0.00412906 0)
(1.00331 0.00463161 0)
(1.00442 0.00424611 0)
(1.00469 0.00398433 0)
(1.00438 0.00431189 0)
(1.00467 0.00450624 0)
(1.00547 0.00431415 0)
(1.00599 0.00406247 0)
(1.00597 0.00411764 0)
(1.0057 0.00441007 0)
(1.00568 0.00454815 0)
(1.00022 0.000609744 0)
(1.00014 0.00124689 0)
(1.00088 0.00194728 0)
(1.00173 0.00187747 0)
(1.00209 0.00175888 0)
(1.001 0.00275626 0)
(1.0013 0.00382119 0)
(1.00253 0.0036122 0)
(1.00313 0.00332944 0)
(1.00279 0.0039416 0)
(1.00334 0.00444503 0)
(1.00432 0.0042201 0)
(1.00471 0.00395886 0)
(1.0045 0.00418564 0)
(1.00471 0.00439606 0)
(1.00539 0.00429856 0)
(1.00595 0.00409678 0)
(1.00608 0.00407032 0)
(1.00588 0.00428125 0)
(1.00577 0.00446479 0)
(1.0002 0.000582729 0)
(1.00013 0.00116755 0)
(1.00082 0.00192354 0)
(1.00161 0.00196907 0)
(1.0021 0.00180396 0)
(1.00119 0.00262663 0)
(1.00139 0.00372998 0)
(1.00245 0.00369167 0)
(1.00316 0.00338667 0)
(1.00296 0.00379829 0)
(1.0034 0.00425703 0)
(1.00425 0.00415814 0)
(1.00471 0.00393119 0)
(1.00461 0.00407757 0)
(1.00476 0.0042847 0)
(1.00535 0.00425493 0)
(1.00591 0.00410207 0)
(1.00615 0.00404719 0)
(1.00605 0.00415609 0)
(1.00588 0.00435637 0)
(1.00019 0.000557812 0)
(1.00012 0.00110838 0)
(1.00078 0.00187808 0)
(1.0015 0.00204071 0)
(1.00209 0.00188921 0)
(1.00137 0.00252476 0)
(1.00151 0.00358509 0)
(1.0024 0.00372592 0)
(1.00316 0.00344478 0)
(1.00309 0.00370071 0)
(1.00347 0.00408306 0)
(1.0042 0.00406633 0)
(1.0047 0.00388808 0)
(1.0047 0.00398257 0)
(1.00483 0.00417123 0)
(1.00533 0.00419474 0)
(1.00587 0.00407359 0)
(1.00618 0.0040253 0)
(1.00617 0.00405726 0)
(1.006 0.00422401 0)
(1.00018 0.000535668 0)
(1.00012 0.00106582 0)
(1.00076 0.00181952 0)
(1.00141 0.00208729 0)
(1.00206 0.00198404 0)
(1.00152 0.0024639 0)
(1.00165 0.00342041 0)
(1.00237 0.0036995 0)
(1.00314 0.00348995 0)
(1.00318 0.00363622 0)
(1.00354 0.00393464 0)
(1.00417 0.00396689 0)
(1.00468 0.00382979 0)
(1.00478 0.00389058 0)
(1.0049 0.00405167 0)
(1.00532 0.00411812 0)
(1.00584 0.00402569 0)
(1.00619 0.00398325 0)
(1.00626 0.00398446 0)
(1.00613 0.00408483 0)
(1.00017 0.000514227 0)
(1.00011 0.00103567 0)
(1.00074 0.00175768 0)
(1.00133 0.00210215 0)
(1.00202 0.00207447 0)
(1.00165 0.00244727 0)
(1.00179 0.00326453 0)
(1.00238 0.00361705 0)
(1.00312 0.00350912 0)
(1.00325 0.00358787 0)
(1.0036 0.00380909 0)
(1.00415 0.00386395 0)
(1.00467 0.00376106 0)
(1.00484 0.00379763 0)
(1.00498 0.00392963 0)
(1.00534 0.00402373 0)
(1.00582 0.00396842 0)
(1.00619 0.00392054 0)
(1.00631 0.00391482 0)
(1.00623 0.00396064 0)
(1.00016 0.000495072 0)
(1.00011 0.00101054 0)
(1.00073 0.00169903 0)
(1.00126 0.00209218 0)
(1.00197 0.00214797 0)
(1.00175 0.00245767 0)
(1.00192 0.00313308 0)
(1.00241 0.00350807 0)
(1.0031 0.00348942 0)
(1.00329 0.00354702 0)
(1.00364 0.0037061 0)
(1.00414 0.00376155 0)
(1.00465 0.0036855 0)
(1.00488 0.00370743 0)
(1.00505 0.0038072 0)
(1.00537 0.00390922 0)
(1.0058 0.00389202 0)
(1.00618 0.00384452 0)
(1.00634 0.00382826 0)
(1.00629 0.00385242 0)
(1.00015 0.000476897 0)
(1.00011 0.000988385 0)
(1.00073 0.00164674 0)
(1.00121 0.00206917 0)
(1.00193 0.00219828 0)
(1.00182 0.00247504 0)
(1.00204 0.00302782 0)
(1.00245 0.00339338 0)
(1.0031 0.00343072 0)
(1.00331 0.00349581 0)
(1.00367 0.00361796 0)
(1.00413 0.00366683 0)
(1.00463 0.00360151 0)
(1.00491 0.00361638 0)
(1.00511 0.00368581 0)
(1.0054 0.00378026 0)
(1.00579 0.00379114 0)
(1.00617 0.00376045 0)
(1.00635 0.00372958 0)
(1.00633 0.00374872 0)
(1.00014 0.000460116 0)
(1.00011 0.000966861 0)
(1.00072 0.00159915 0)
(1.00116 0.00203866 0)
(1.0019 0.00222618 0)
(1.00187 0.00248869 0)
(1.00214 0.00294837 0)
(1.00249 0.0032834 0)
(1.0031 0.00335393 0)
(1.00334 0.00342655 0)
(1.00369 0.00353122 0)
(1.00411 0.00358045 0)
(1.0046 0.00351782 0)
(1.00492 0.00352047 0)
(1.00515 0.00356715 0)