/*--------------------------------*- C++ -*----------------------------------*\
| =========                 |                                                 |
| \\      /  F ield         | OpenFOAM: The Open Source CFD Toolbox           |
|  \\    /   O peration     | Version:  v1906                                 |
|   \\  /    A nd           | Web:      www.OpenFOAM.com                      |
|    \\/     M anipulation  |                                                 |
\*---------------------------------------------------------------------------*/
FoamFile
{
    version     2.0;
    format      ascii;
    class       volScalarField;
    location    "1.1";
    object      p;
}
// * * * * * * * * * * * * * * * * * * * * * * * * * * * * * * * * * * * * * //

dimensions      [0 2 -2 0 0 0 0];


internalField   nonuniform List<scalar> 
9600
(
-2.56689e-11
-5.07519e-05
-0.00203227
0.000176041
0.00128209
0.000548046
0.000254372
0.00209212
0.00142655
0.00123706
0.00126832
0.00174406
0.00211246
0.00282232
0.00279557
0.00454251
0.00506416
0.00736674
0.00922953
0.0149475
-1.83868e-07
-5.29973e-05
-0.00200231
0.000172901
0.00127149
0.00055354
0.000259388
0.00208468
0.00142966
0.00122345
0.0012737
0.00174799
0.00210996
0.0028215
0.00280253
0.00452675
0.00507791
0.00733488
0.00924299
0.0142908
-6.62309e-07
-5.54972e-05
-0.00198213
0.000167474
0.0012615
0.000561854
0.000263543
0.00207205
0.00143369
0.00120907
0.0012839
0.00175573
0.00210692
0.00282302
0.00281161
0.00451129
0.00509586
0.00728959
0.00923426
0.0136928
-1.45684e-06
-5.85339e-05
-0.00196052
0.000165258
0.00125104
0.00057026
0.000267541
0.00205611
0.00143772
0.00118967
0.00129571
0.00176879
0.00210081
0.00282413
0.00282201
0.004492
0.00511537
0.00722987
0.00920652
0.0131099
-2.71927e-06
-6.20282e-05
-0.00193518
0.000165652
0.00123771
0.000579571
0.000272259
0.002037
0.00144172
0.0011674
0.00130982
0.00178392
0.00209202
0.00282379
0.00283336
0.00446866
0.00513486
0.00715827
0.00915613
0.0125842
-4.47207e-06
-6.5574e-05
-0.00190566
0.000166721
0.00122128
0.000589714
0.000277864
0.00201557
0.00144607
0.00114387
0.00132608
0.00179886
0.00208295
0.00282132
0.00284615
0.00444095
0.00515336
0.00707784
0.00908444
0.0120863
-6.60531e-06
-6.89674e-05
-0.00187238
0.000167714
0.00120234
0.000600377
0.00028444
0.00199284
0.00145092
0.00111971
0.00134368
0.00181312
0.00207441
0.00281654
0.00286018
0.00440917
0.00517015
0.00699053
0.00898286
0.0116139
-8.9666e-06
-7.21612e-05
-0.00183596
0.000168465
0.00118157
0.000611351
0.000292124
0.00196931
0.00145619
0.00109494
0.00136206
0.00182655
0.0020668
0.00280951
0.0028749
0.00437426
0.00518334
0.00689755
0.0088606
0.0111646
-1.14057e-05
-7.51755e-05
-0.00179709
0.000169034
0.00115971
0.000622513
0.000300955
0.00194503
0.00146172
0.00106954
0.00138095
0.00183915
0.00206034
0.00280029
0.0028897
0.00433706
0.00519075
0.00679989
0.00871354
0.0107352
-1.38098e-05
-7.80741e-05
-0.00175635
0.000169605
0.00113733
0.000633743
0.00031085
0.00191995
0.00146739
0.0010435
0.00140023
0.00185095
0.00205488
0.00278919
0.00290385
0.00429829
0.00519055
0.00669809
0.00854269
0.0103211
-1.61142e-05
-8.09279e-05
-0.00171411
0.000170347
0.00111482
0.000644926
0.000321683
0.00189401
0.00147311
0.00101683
0.00141984
0.00186204
0.0020501
0.00277674
0.00291632
0.00425855
0.00518134
0.00659225
0.00834991
0.00991758
-1.82842e-05
-8.37921e-05
-0.00167061
0.000171358
0.00109242
0.000655928
0.000333329
0.00186715
0.00147883
0.000989572
0.00143967
0.0018725
0.00204556
0.00276353
0.00292603
0.00421829
0.00516218
0.00648167
0.00813798
0.00952096
-2.02948e-05
-8.67051e-05
-0.00162594
0.000172641
0.00107031
0.000666627
0.000345693
0.00183934
0.00148451
0.000961538
0.0014595
0.00188253
0.00204071
0.00275014
0.00293211
0.00417776
0.00513258
0.00636473
0.00791079
0.00912905
-2.21179e-05
-8.96966e-05
-0.00158016
0.000174114
0.00104857
0.000676925
0.000358702
0.00181056
0.00149012
0.000933305
0.00147896
0.00189251
0.00203486
0.00273709
0.00293394
0.0041367
0.00509263
0.00623915
0.00767265
0.00874148
-2.37192e-05
-9.27921e-05
-0.00153329
0.000175669
0.00102725
0.000686747
0.000372291
0.00178082
0.00149561
0.000904963
0.00149766
0.00190289
0.00202731
0.00272475
0.00293116
0.00409412
0.00504321
0.00610255
0.00742662
0.00835912
-2.50594e-05
-9.60187e-05
-0.00148535
0.0001772
0.00100641
0.000696041
0.000386383
0.00175016
0.00150088
0.000876671
0.00151512
0.00191414
0.00201749
0.00271336
0.00292373
0.00404828
0.00498575
0.00595353
0.00717368
0.0079832
-2.60953e-05
-9.94059e-05
-0.00143637
0.000178623
0.000986058
0.000704796
0.000400886
0.00171863
0.0015058
0.000848719
0.00153076
0.00192673
0.00200502
0.0027031
0.00291205
0.00399691
0.0049215
0.00579197
0.00691393
0.00761528
-2.6777e-05
-0.000102981
-0.00138638
0.000179876
0.000966239
0.000713038
0.000415688
0.00168631
0.00151018
0.000821444
0.00154401
0.00194106
0.00198971
0.00270075
0.00289688
0.00393776
0.00485103
0.0056189
0.00664672
0.00725695
-2.70495e-05
-0.000106764
-0.00133546
0.000180936
0.000946975
0.000720829
0.000430657
0.00165335
0.0015138
0.000795199
0.00155431
0.00195743
0.00197141
0.00268919
0.00287939
0.0038691
0.00477414
0.00543658
0.00637072
0.00690927
-2.68546e-05
-0.00011078
-0.00128369
0.000181818
0.000928272
0.000728271
0.000445605
0.00161992
0.00151641
0.000770281
0.00156124
0.00197584
0.00195028
0.00267479
0.00286081
0.00378996
0.0046901
0.00524768
0.00608458
0.00657229
-2.61251e-05
-0.000115053
-0.00123118
0.000182567
0.000910103
0.000735527
0.000460311
0.00158618
0.00151782
0.000746999
0.00156443
0.00199616
0.00192682
0.00265631
0.00284175
0.00369995
0.00459759
0.00505443
0.00578791
0.00624453
-2.47869e-05
-0.000119589
-0.00117807
0.00018327
0.000892397
0.000742796
0.000474559
0.00155225
0.00151787
0.000725871
0.00156367
0.00201813
0.00190173
0.00263222
0.00282219
0.00359947
0.00449445
0.00486186
0.005482
0.00592314
-2.27649e-05
-0.000124382
-0.00112454
0.00018404
0.000875051
0.000750321
0.000488158
0.00151821
0.00151649
0.000710604
0.00155904
0.00204112
0.00187562
0.00260144
0.00280173
0.00348951
0.00437842
0.00467149
0.0051694
0.00560453
-1.99824e-05
-0.000129418
-0.00107081
0.000184979
0.000857938
0.000758417
0.000500974
0.00148405
0.00151362
0.000693459
0.00155072
0.00206451
0.00184886
0.00256309
0.00277958
0.00337126
0.00424814
0.00448458
0.00485321
0.00528478
-1.63691e-05
-0.000134653
-0.00101712
0.000186245
0.000840894
0.000767329
0.000513026
0.00144961
0.00150937
0.000677117
0.00153883
0.00208792
0.00182164
0.00251627
0.00275486
0.00324588
0.00410262
0.00430222
0.0045373
0.00495951
-1.18511e-05
-0.00014001
-0.000963801
0.000188064
0.00082374
0.000777187
0.000524425
0.00141463
0.00150406
0.000661321
0.0015232
0.00211108
0.00179396
0.00245995
0.00272665
0.00311481
0.00394086
0.00412521
0.00422707
0.00462428
-6.36051e-06
-0.000145355
-0.000911243
0.00019064
0.000806359
0.00078811
0.000535303
0.00137869
0.00149824
0.000646009
0.0015036
0.00213382
0.0017658
0.00239291
0.0026937
0.00298008
0.00376192
0.00395254
0.00392964
0.00427673
1.46602e-07
-0.000150524
-0.000859851
0.000194191
0.000788667
0.000800129
0.000546024
0.00134121
0.00149228
0.000631359
0.00147948
0.00215577
0.00173723
0.00231404
0.00265513
0.0028445
0.00356592
0.0037803
0.00365194
0.0039194
7.70133e-06
-0.000155321
-0.00081007
0.000198901
0.000770644
0.000813186
0.000557265
0.00130146
0.00148621
0.000617853
0.00144973
0.00217641
0.00170895
0.00222212
0.00260874
0.00269993
0.0033547
0.00360282
0.00339825
0.00356049
1.63055e-05
-0.000159456
-0.000762396
0.000204848
0.000752465
0.000827037
0.000569844
0.00125885
0.0014797
0.00060665
0.00141296
0.00219475
0.00168224
0.00211602
0.00255291
0.0025763
0.00313202
0.0034138
0.00316831
0.00321211
2.59131e-05
-0.000162548
-0.000717351
0.000212023
0.000734474
0.000841297
0.000584642
0.0012132
0.00147204
0.000598933
0.00136825
0.00220903
0.00165865
0.00199578
0.00248519
0.00246199
0.00290241
0.00320837
0.00295755
0.00288619
3.64238e-05
-0.000164148
-0.000675353
0.000220293
0.000717208
0.000855363
0.000602509
0.00116476
0.00146196
0.000595794
0.00131532
0.00221636
0.00163954
0.00186286
0.00240268
0.00235776
0.00267146
0.00298473
0.0027584
0.00259091
4.7696e-05
-0.000163825
-0.000636709
0.000229395
0.000701373
0.000868166
0.000624
0.00111435
0.00144754
0.000598219
0.00125446
0.00221307
0.00162619
0.00172105
0.00230229
0.00226189
0.00244495
0.00274428
0.00256224
0.00232848
5.95513e-05
-0.000161107
-0.000601601
0.000238762
0.000687807
0.000882258
0.00064929
0.00106331
0.00142667
0.000606162
0.00118674
0.00219551
0.00161906
0.00157594
0.00218182
0.00217107
0.00222784
0.00249001
0.00236147
0.00209485
7.17474e-05
-0.000155477
-0.000569965
0.000247517
0.00067724
0.000887179
0.000678161
0.00101347
0.0013974
0.000618714
0.00111416
0.0021607
0.00161728
0.0014332
0.00204085
0.00208151
0.00202398
0.00222507
0.00215098
0.00188234
8.40369e-05
-0.000146489
-0.000541395
0.000254559
0.00067024
0.000882888
0.000709606
0.000967054
0.0013584
0.000633727
0.0010395
0.00210723
0.00161824
0.00129752
0.00188054
0.00198916
0.00183662
0.00195307
0.00192793
0.00168329
9.61612e-05
-0.000133784
-0.000515216
0.00025857
0.000667176
0.000878992
0.000741847
0.000926045
0.00130945
0.000648012
0.000965629
0.00203542
0.00161775
0.00117187
0.00170361
0.00188942
0.00166835
0.00167928
0.00168986
0.00149203
0.000107835
-0.000117148
-0.000490428
0.000258146
0.000667946
0.000874396
0.000772784
0.000891716
0.00125127
0.000657659
0.000894675
0.00194767
0.00161179
0.00105804
0.00151356
0.00177712
0.00151987
0.00141144
0.00143425
0.00130316
0.000118865
-9.6487e-05
-0.000465904
0.000252065
0.000671894
0.000869475
0.000800217
0.000864422
0.00118599
0.000658979
0.000827061
0.0018481
0.00159774
0.00095624
0.00131393
0.00164768
0.0013895
0.00115956
0.00116101
0.00110844
0.000129073
-7.18503e-05
-0.000440372
0.000239441
0.000677704
0.000865658
0.000822206
0.000843337
0.0011171
0.00065016
0.000761934
0.0017404
0.00157449
0.000865472
0.0011082
0.00149752
0.00127201
0.000933151
0.000876346
0.000897212
0.000138298
-4.34979e-05
-0.000412439
0.000219844
0.000683572
0.00086432
0.000837416
0.000826714
0.00104816
0.000630754
0.000696944
0.00162665
0.00154218
0.000785373
0.000900123
0.00132439
0.00115902
0.000738218
0.000593384
0.000661742
0.000146452
-1.19709e-05
-0.000380755
0.000193541
0.00068722
0.000866264
0.000845374
0.000812201
0.000982139
0.000601738
0.000629046
0.00150735
0.00150122
0.000715869
0.000694157
0.00112807
0.00104154
0.000574343
0.000327236
0.000403834
0.000153478
2.19459e-05
-0.00034391
0.000161412
0.000685876
0.000871902
0.000846412
0.0007965
0.000920752
0.000566521
0.000556652
0.00138137
0.00145079
0.000657458
0.000495439
0.000910546
0.000911249
0.000434498
8.89129e-05
0.000135478
0.000159512
5.72484e-05
-0.000300723
0.000124961
0.000676607
0.000881071
0.000841869
0.000776168
0.000864143
0.000529539
0.000480241
0.00124679
0.00138896
0.000609839
0.000309763
0.000676083
0.000761615
0.00031008
-0.000117955
-0.000128402
0.000164799
9.28127e-05
-0.000250514
8.63497e-05
0.000656546
0.000893355
0.000834061
0.000748307
0.000811263
0.000494558
0.000401537
0.00110231
0.00131263
0.000570415
0.000143422
0.000431919
0.000588263
0.000192435
-0.000294415
-0.000376911
0.000169685
0.000127477
-0.000193053
4.82195e-05
0.000622939
0.000906498
0.000826625
0.000711232
0.000757841
0.000463685
0.000325533
0.000949037
0.00121753
0.000534649
1.20621e-06
0.000187224
0.000390225
7.23389e-05
-0.000443524
-0.00060429
0.000174723
0.000160095
-0.000128983
1.38184e-05
0.000573853
0.000917242
0.000824426
0.000665835
0.000698099
0.000436794
0.000258279
0.000789971
0.00110009
0.00049588
-0.000116436
-4.76042e-05
0.000171992
-5.9275e-05
-0.000570061
-0.000806065
0.000180663
0.000189542
-6.00472e-05
-1.31665e-05
0.000508823
0.000920787
0.000830333
0.000612137
0.000626721
0.000411044
0.000203969
0.000631153
0.000960433
0.000445384
-0.000214098
-0.000263298
-5.72334e-05
-0.000208337
-0.000682164
-0.00097747
0.000188346
0.000214955
1.10923e-05
-2.93884e-05
0.000429576
0.000910826
0.000845877
0.000559617
0.000540901
0.000378948
0.000162578
0.00048202
0.0008031
0.000375568
-0.000298474
-0.000456366
-0.000287312
-0.000374411
-0.00079087
-0.0011174
0.00019856
0.000235889
8.12198e-05
-3.22655e-05
0.00034067
0.000880378
0.00086927
0.000517575
0.000441874
0.00033116
0.000131366
0.000350751
0.000635136
0.000283739
-0.00037856
-0.000629055
-0.000510741
-0.000551444
-0.000905067
-0.00123253
0.000211837
0.000252279
0.000152007
-1.96637e-05
0.000247583
0.00082368
0.000893823
0.000493458
0.000334
0.000260686
0.000103039
0.000240842
0.000467651
0.000172805
-0.000462181
-0.000784556
-0.000724879
-0.000733201
-0.00102681
-0.00133513
0.000228419
0.00026464
0.000210655
9.33109e-06
0.000156677
0.000738363
0.000908019
0.000490248
0.000229946
0.000166799
6.40584e-05
0.00014989
0.000312189
4.8666e-05
-0.000553199
-0.000927325
-0.000929085
-0.000917117
-0.00115291
-0.00143491
0.000248358
0.000273934
0.00025874
5.08088e-05
7.68819e-05
0.000625541
0.000899278
0.000506653
0.000144237
5.32253e-05
2.59347e-06
7.18113e-05
0.000175496
-7.84718e-05
-0.000650515
-0.00106128
-0.00112333
-0.0011039
-0.00128117
-0.00153396
0.000271452
0.000281482
0.000294353
9.94309e-05
1.3785e-05
0.000491482
0.000858972
0.000534907
8.60471e-05
-6.99301e-05
-8.61697e-05
-7.72807e-06
5.59807e-05
-0.00019805
-0.000750232
-0.00118791
-0.00130643
-0.00129367
-0.00141341
-0.00162964
0.00029729
0.000288649
0.000316865
0.000150072
-2.80459e-05
0.000346877
0.000781887
0.000560486
5.75547e-05
-0.000184912
-0.000198991
-0.000102632
-5.22071e-05
-0.000305696
-0.000845279
-0.00130655
-0.0014765
-0.00148343
-0.00155353
-0.00172094
0.000324581
0.000296518
0.00032614
0.000195234
-4.73225e-05
0.000205235
0.000668333
0.000567489
5.65041e-05
-0.000277838
-0.000327809
-0.000219043
-0.000161032
-0.000403264
-0.000930193
-0.0014144
-0.00163166
-0.00166785
-0.00170364
-0.00181145
0.000352028
0.000306015
0.000323862
0.000229918
-4.60706e-05
7.7458e-05
0.000523617
0.000543296
7.30373e-05
-0.000342509
-0.000456966
-0.000354883
-0.000281679
-0.000496213
-0.00100451
-0.00150791
-0.00177001
-0.00184016
-0.00186125
-0.0019077
0.000378408
0.000317445
0.000312629
0.000250761
-3.2577e-05
-2.9357e-05
0.000360679
0.000481939
9.01459e-05
-0.000378765
-0.000572021
-0.000503818
-0.000419436
-0.000594369
-0.00107033
-0.0015864
-0.00189046
-0.00199518
-0.00201884
-0.00201514
0.000402355
0.000330477
0.000291352
0.000255582
-1.43418e-05
-0.00011083
0.000194092
0.000384722
9.12719e-05
-0.000391243
-0.000663737
-0.000652375
-0.000570964
-0.000705886
-0.00113494
-0.00165033
-0.00199319
-0.00213053
-0.00216611
-0.00213272
0.00042289
0.000344552
0.000276902
0.000244939
1.10073e-06
-0.000166441
3.76704e-05
0.000256737
6.62388e-05
-0.000392173
-0.000730193
-0.000788282
-0.000729888
-0.000832614
-0.0012071
-0.00170339
-0.00207834
-0.00224784
-0.00229584
-0.00225115
0.000439401
0.000358407
0.000262252
0.000220905
7.18049e-06
-0.000202814
-9.9742e-05
0.000108958
1.05146e-05
-0.000395219
-0.000773971
-0.00090386
-0.000885281
-0.00096931
-0.00129202
-0.00175341
-0.00214653
-0.00234984
-0.00240782
-0.00235991
0.000451476
0.000370367
0.00024769
0.000187375
5.88031e-07
-0.000228588
-0.000215036
-4.39446e-05
-7.4541e-05
-0.000411779
-0.000801505
-0.000995939
-0.00102777
-0.00110938
-0.0013882
-0.00180714
-0.00220091
-0.00243623
-0.0025062
-0.00245381
0.000458907
0.000378889
0.000234878
0.000148305
-1.97697e-05
-0.000251391
-0.000309585
-0.000189878
-0.000182944
-0.000449543
-0.000823484
-0.00106625
-0.00115132
-0.00124381
-0.00148992
-0.00186697
-0.00224622
-0.00250545
-0.00259283
-0.00253416
0.000461528
0.000382756
0.000222511
0.000107315
-5.25806e-05
-0.000277628
-0.000387072
-0.000323347
-0.000304161
-0.000509058
-0.000849668
-0.001119
-0.00125304
-0.00136527
-0.00159043
-0.00193051
-0.00228669
-0.00255683
-0.00266522
-0.00260357
0.000459437
0.000381012
0.000209149
6.63275e-05
-9.53797e-05
-0.000311018
-0.000453699
-0.000443097
-0.000428818
-0.000586188
-0.000885735
-0.00116181
-0.00133422
-0.00146875
-0.00168174
-0.00199227
-0.00232321
-0.00259155
-0.00271837
-0.00266082
0.000452751
0.000373441
0.000192849
2.56452e-05
-0.000145035
-0.000353244
-0.000515848
-0.000550089
-0.000550827
-0.000675781
-0.00093319
-0.00120111
-0.0013976
-0.00155221
-0.00175786
-0.00204476
-0.00235301
-0.00261131
-0.00274916
-0.00270127
0.000441189
0.000360064
0.000172545
-1.52902e-05
-0.000198827
-0.000404125
-0.000579119
-0.00064741
-0.000667055
-0.000772002
-0.000990563
-0.00123992
-0.00144653
-0.00161571
-0.00181524
-0.00208102
-0.00236986
-0.00261556
-0.00275662
-0.00271936
0.000424591
0.00034099
0.000147652
-5.76318e-05
-0.00025575
-0.000462368
-0.000645831
-0.000739664
-0.000778738
-0.000871387
-0.00105553
-0.00127957
-0.00148353
-0.00165888
-0.00185099
-0.0020953
-0.00236503
-0.00259815
-0.00273726
-0.00270879
0.000402916
0.000316426
0.000117765
-0.000102291
-0.000315621
-0.000527617
-0.000717735
-0.000830327
-0.000887005
-0.000972547
-0.00112637
-0.00132129
-0.00151099
-0.00168111
-0.00186123
-0.00208148
-0.00232829
-0.00254741
-0.0026819
-0.00266039
0.000375995
0.000286681
8.27301e-05
-0.000150383
-0.000378259
-0.000598537
-0.000796694
-0.000924328
-0.000995213
-0.00107562
-0.0012024
-0.0013659
-0.00153127
-0.00168291
-0.00184171
-0.00203159
-0.00224706
-0.00244504
-0.00257102
-0.00255547
0.000343956
0.000251835
4.26225e-05
-0.000202513
-0.000444848
-0.000674866
-0.000881942
-0.00102461
-0.0011098
-0.00118648
-0.00128771
-0.00141599
-0.00154643
-0.0016647
-0.00178705
-0.00193526
-0.00210648
-0.00226804
-0.00237214
-0.00235449
0.000307444
0.000211794
-3.35151e-06
-0.000258764
-0.000515142
-0.000757195
-0.000974954
-0.00113198
-0.00123324
-0.00131244
-0.00139491
-0.00148594
-0.00156754
-0.00163071
-0.00168913
-0.00176879
-0.00187918
-0.00199298
-0.00206434
-0.00203162
0.000267976
0.00016643
-5.55411e-05
-0.000320269
-0.000589633
-0.000844659
-0.00107588
-0.00124982
-0.00136803
-0.00145512
-0.00153137
-0.00160129
-0.00164059
-0.00162744
-0.00156119
-0.00147446
-0.00141404
-0.00140368
-0.0014509
-0.00149588
0.000225197
0.000116175
-0.000111823
-0.000386114
-0.000669187
-0.000939636
-0.00118504
-0.00137839
-0.00151731
-0.00161725
-0.00169582
-0.00176348
-0.0018021
-0.00179232
-0.00170005
-0.00145978
-0.00102536
-0.00043661
0.000148591
0.000559819
0.000177499
6.23895e-05
-0.000170722
-0.00045322
-0.000753739
-0.00104349
-0.00130659
-0.00151892
-0.00168014
-0.00179904
-0.00188643
-0.00193249
-0.00187749
-0.00166586
-0.00125116
-0.000638693
3.36301e-05
0.000606116
0.000973344
0.00106931
0.000125211
6.0144e-06
-0.000231485
-0.000521559
-0.00083796
-0.00115351
-0.00144586
-0.00168094
-0.00185048
-0.00195543
-0.00198816
-0.00192472
-0.00169163
-0.00123709
-0.000657603
-7.90068e-05
0.00041768
0.000787509
0.00100818
0.00104381
7.26582e-05
-5.19663e-05
-0.000297404
-0.000594359
-0.000917434
-0.00124858
-0.00157491
-0.0018643
-0.00207422
-0.00214931
-0.00202523
-0.00168655
-0.00121397
-0.000678046
-0.000141125
0.000344731
0.00075855
0.00107226
0.00124841
0.00122979
2.27057e-05
-0.00010724
-0.000364102
-0.000676383
-0.00101701
-0.00134375
-0.00160956
-0.00179469
-0.00188321
-0.00188755
-0.00183821
-0.001729
-0.00153786
-0.00121889
-0.000713478
-5.45438e-05
0.000620578
0.0011663
0.00148194
0.00151007
-2.42052e-05
-0.000159124
-0.000412645
-0.000724183
-0.00107682
-0.00144125
-0.00178418
-0.00204042
-0.00213847
-0.0020326
-0.00174743
-0.00132961
-0.00084261
-0.000345819
0.00012694
0.000552077
0.00090573
0.00116472
0.00129151
0.00123082
-6.35796e-05
-0.000208628
-0.000478094
-0.00080605
-0.00116574
-0.00151448
-0.00180638
-0.00200184
-0.00206593
-0.00197444
-0.0017199
-0.00133337
-0.000873862
-0.000409369
1.61253e-05
0.00039427
0.000718945
0.000970378
0.00110859
0.0010704
0.0182048
0.0114105
0.00251555
-0.00385298
-0.00569248
-0.0050141
-0.0041526
-0.00371087
-0.0034844
-0.00328359
-0.00310556
-0.00299246
-0.00297441
-0.0030381
-0.00312325
-0.00317128
-0.00316225
-0.00313867
-0.00314777
-0.00318392
-0.00324734
-0.00332844
-0.00337516
-0.00340016
-0.0034719
-0.00357771
-0.0036602
-0.00371254
-0.00376409
-0.00384212
-0.00394132
-0.00402021
-0.00406556
-0.00411561
-0.00418399
-0.00424534
-0.00429587
-0.00435787
-0.00444129
-0.00453398
-0.00462309
-0.00470742
-0.00479109
-0.00486734
-0.0049277
-0.00498687
-0.00505048
-0.00510897
-0.00516554
-0.00523743
-0.00531856
-0.00540229
-0.00548766
-0.00557371
-0.00565434
-0.00572799
-0.00581039
-0.00589114
-0.00596462
-0.00603362
-0.00610504
-0.00617564
-0.00624457
-0.00632397
-0.00640484
-0.00647745
-0.00656004
-0.006652
-0.00675158
-0.00684686
-0.00693472
-0.00702444
-0.00710753
-0.0071996
-0.00729803
-0.00739139
-0.00749466
-0.00757854
-0.00765784
-0.00775457
-0.00783202
-0.00791745
-0.00802164
-0.00809447
-0.00817833
-0.00828112
-0.00834293
-0.00841023
-0.00850859
-0.00858328
-0.00863643
-0.00870848
-0.00879006
-0.00884895
-0.00891285
-0.00897739
-0.00904018
-0.0091006
-0.00916811
-0.00924687
0.0173419
0.0112511
0.00260139
-0.00370946
-0.00560473
-0.00497172
-0.0041273
-0.00369449
-0.00347301
-0.00327469
-0.00309796
-0.00298559
-0.00296811
-0.00303247
-0.00311836
-0.00316706
-0.0031585
-0.0031352
-0.00314457
-0.00318098
-0.00324464
-0.00332606
-0.003373
-0.00339806
-0.00346989
-0.00357589
-0.00365853
-0.00371096
-0.00376256
-0.00384065
-0.00393996
-0.00401897
-0.00406439
-0.00411449
-0.00418295
-0.00424438
-0.00429496
-0.004357
-0.00444048
-0.00453322
-0.00462238
-0.00470675
-0.00479045
-0.00486675
-0.00492714
-0.00498633
-0.00504997
-0.00510848
-0.00516507
-0.00523698
-0.00531812
-0.00540187
-0.00548726
-0.00557333
-0.00565397
-0.00572764
-0.00581005
-0.00589081
-0.00596431
-0.00603332
-0.00610475
-0.00617536
-0.00624431
-0.00632371
-0.00640459
-0.00647721
-0.00655981
-0.00665177
-0.00675137
-0.00684665
-0.00693453
-0.00702425
-0.00710735
-0.00719943
-0.00729787
-0.00739124
-0.00749452
-0.00757841
-0.00765772
-0.00775445
-0.00783191
-0.00791735
-0.00802154
-0.00809439
-0.00817825
-0.00828105
-0.00834287
-0.00841016
-0.00850853
-0.00858323
-0.00863638
-0.00870843
-0.00879002
-0.00884891
-0.00891282
-0.00897736
-0.00904015
-0.00910058
-0.00916809
-0.00924685
0.0165565
0.0111123
0.00278837
-0.00343824
-0.0054534
-0.00491511
-0.0040985
-0.00367275
-0.00345629
-0.00326225
-0.00308872
-0.00297843
-0.00296206
-0.00302698
-0.00311332
-0.0031626
-0.00315464
-0.00313181
-0.00314153
-0.00317816
-0.00324204
-0.00332379
-0.00337098
-0.00339615
-0.0034681
-0.00357428
-0.00365704
-0.00370955
-0.00376121
-0.00383936
-0.00393877
-0.00401787
-0.00406333
-0.00411348
-0.00418202
-0.00424352
-0.00429413
-0.0043562
-0.00443974
-0.00453255
-0.00462175
-0.00470616
-0.0047899
-0.00486624
-0.00492665
-0.00498586
-0.00504953
-0.00510806
-0.00516465
-0.00523658
-0.00531775
-0.00540151
-0.00548691
-0.005573
-0.00565366
-0.00572733
-0.00580975
-0.00589053
-0.00596404
-0.00603306
-0.0061045
-0.00617513
-0.00624407
-0.00632348
-0.00640438
-0.006477
-0.0065596
-0.00665157
-0.00675118
-0.00684648
-0.00693436
-0.00702409
-0.00710719
-0.00719927
-0.00729773
-0.00739111
-0.0074944
-0.0075783
-0.00765761
-0.00775435
-0.00783182
-0.00791725
-0.00802147
-0.00809432
-0.00817817
-0.00828099
-0.00834281
-0.0084101
-0.00850848
-0.00858319
-0.00863634
-0.00870839
-0.00878999
-0.00884888
-0.00891279
-0.00897733
-0.00904013
-0.00910056
-0.00916807
-0.00924684
0.0158148
0.010969
0.00301923
-0.00309808
-0.00524643
-0.0048345
-0.00405515
-0.00363782
-0.00342867
-0.00324215
-0.00307483
-0.00296894
-0.00295492
-0.00302047
-0.00310681
-0.00315649
-0.0031495
-0.00312771
-0.00313805
-0.00317483
-0.00323875
-0.00332081
-0.00336849
-0.00339401
-0.00346615
-0.00357243
-0.0036553
-0.003708
-0.00375981
-0.00383802
-0.00393748
-0.00401665
-0.00406217
-0.00411239
-0.00418101
-0.00424255
-0.00429319
-0.00435531
-0.00443893
-0.00453181
-0.00462108
-0.00470552
-0.00478931
-0.00486569
-0.00492613
-0.00498537
-0.00504906
-0.00510762
-0.00516421
-0.00523615
-0.00531736
-0.00540114
-0.00548656
-0.00557266
-0.00565335
-0.00572702
-0.00580945
-0.00589025
-0.00596377
-0.00603279
-0.00610424
-0.00617488
-0.00624383
-0.00632325
-0.00640416
-0.00647679
-0.00655939
-0.00665137
-0.00675099
-0.0068463
-0.00693418
-0.00702393
-0.00710703
-0.00719911
-0.00729759
-0.00739097
-0.00749428
-0.00757819
-0.00765749
-0.00775425
-0.00783172
-0.00791716
-0.00802139
-0.00809424
-0.00817809
-0.00828093
-0.00834275
-0.00841004
-0.00850843
-0.00858315
-0.00863629
-0.00870835
-0.00878995
-0.00884885
-0.00891275
-0.00897731
-0.0090401
-0.00910054
-0.00916805
-0.00924684
0.015081
0.0107951
0.00325278
-0.00273882
-0.005017
-0.004742
-0.00400406
-0.00359326
-0.00339095
-0.00321369
-0.00305503
-0.00295581
-0.00294565
-0.00301217
-0.00309804
-0.00314785
-0.00314233
-0.0031224
-0.00313392
-0.00317087
-0.00323448
-0.00331663
-0.00336506
-0.00339138
-0.00346379
-0.00356997
-0.00365292
-0.00370603
-0.00375821
-0.00383651
-0.00393592
-0.00401514
-0.00406079
-0.00411112
-0.00417978
-0.00424133
-0.004292
-0.00435419
-0.0044379
-0.00453089
-0.00462025
-0.00470476
-0.00478859
-0.00486503
-0.00492552
-0.0049848
-0.00504853
-0.00510709
-0.00516369
-0.00523567
-0.00531691
-0.00540072
-0.00548616
-0.00557229
-0.00565299
-0.00572667
-0.00580912
-0.00588994
-0.00596346
-0.0060325
-0.00610396
-0.00617461
-0.00624357
-0.00632299
-0.00640393
-0.00647655
-0.00655916
-0.00665115
-0.00675078
-0.00684611
-0.00693399
-0.00702374
-0.00710685
-0.00719893
-0.00729742
-0.00739081
-0.00749414
-0.00757806
-0.00765735
-0.00775413
-0.00783161
-0.00791704
-0.0080213
-0.00809415
-0.008178
-0.00828087
-0.00834268
-0.00840996
-0.00850837
-0.0085831
-0.00863624
-0.0087083
-0.00878991
-0.00884881
-0.00891272
-0.00897728
-0.00904007
-0.00910051
-0.00916803
-0.00924684
0.0143507
0.0105862
0.00347711
-0.00237482
-0.00477579
-0.0046441
-0.00395183
-0.0035455
-0.00334795
-0.0031799
-0.00303085
-0.00293957
-0.00293423
-0.00300194
-0.00308698
-0.00313672
-0.00313308
-0.0031158
-0.00312909
-0.00316635
-0.00322932
-0.00331121
-0.0033606
-0.00338822
-0.00346096
-0.0035667
-0.00364962
-0.00370341
-0.00375628
-0.00383468
-0.0039339
-0.00401318
-0.00405915
-0.00410968
-0.00417833
-0.00423981
-0.00429049
-0.00435275
-0.00443655
-0.00452967
-0.00461918
-0.00470378
-0.00478768
-0.0048642
-0.00492478
-0.00498413
-0.00504789
-0.00510646
-0.00516307
-0.00523509
-0.00531638
-0.00540023
-0.00548569
-0.00557185
-0.00565258
-0.00572629
-0.00580876
-0.00588959
-0.00596312
-0.00603216
-0.00610364
-0.00617431
-0.00624327
-0.00632271
-0.00640365
-0.00647628
-0.0065589
-0.0066509
-0.00675053
-0.00684588
-0.00693378
-0.00702354
-0.00710664
-0.00719872
-0.00729723
-0.00739063
-0.00749397
-0.0075779
-0.00765718
-0.00775398
-0.00783147
-0.00791691
-0.00802119
-0.00809404
-0.00817789
-0.00828078
-0.0083426
-0.00840988
-0.00850831
-0.00858304
-0.00863617
-0.00870824
-0.00878986
-0.00884877
-0.00891267
-0.00897724
-0.00904003
-0.00910048
-0.009168
-0.00924684
0.0136299
0.0103455
0.00368842
-0.00200927
-0.00452369
-0.00454087
-0.00389979
-0.00349688
-0.00330203
-0.00314274
-0.0030038
-0.00292113
-0.00292112
-0.00299014
-0.00307417
-0.00312375
-0.00312229
-0.00310818
-0.00312367
-0.0031614
-0.00322352
-0.00330486
-0.00335538
-0.00338468
-0.00345772
-0.00356265
-0.00364535
-0.00370004
-0.00375387
-0.00383237
-0.00393122
-0.00401059
-0.00405714
-0.00410807
-0.00417668
-0.00423803
-0.00428871
-0.00435099
-0.00443482
-0.00452804
-0.00461773
-0.00470248
-0.00478646
-0.00486311
-0.00492387
-0.00498333
-0.00504712
-0.00510568
-0.00516231
-0.00523438
-0.00531573
-0.00539962
-0.00548512
-0.0055713
-0.00565209
-0.00572583
-0.00580833
-0.00588918
-0.00596271
-0.00603177
-0.00610327
-0.00617398
-0.00624295
-0.00632238
-0.00640334
-0.00647598
-0.00655862
-0.00665062
-0.00675026
-0.00684562
-0.00693353
-0.0070233
-0.00710638
-0.00719846
-0.00729699
-0.0073904
-0.00749376
-0.0075777
-0.00765698
-0.00775379
-0.00783129
-0.00791674
-0.00802104
-0.0080939
-0.00817775
-0.00828067
-0.00834248
-0.00840977
-0.00850822
-0.00858296
-0.00863609
-0.00870816
-0.0087898
-0.0088487
-0.00891261
-0.00897719
-0.00903998
-0.00910044
-0.00916797
-0.00924685
0.0129258
0.0100751
0.00388197
-0.00164418
-0.00425941
-0.00443014
-0.00384733
-0.00344796
-0.00325387
-0.00310284
-0.00297444
-0.00290094
-0.00290667
-0.00297717
-0.00306018
-0.0031096
-0.00311052
-0.00309986
-0.00311776
-0.00315606
-0.00321728
-0.00329798
-0.00334975
-0.00338098
-0.00345421
-0.00355797
-0.00364029
-0.00369605
-0.00375103
-0.00382953
-0.00392773
-0.00400718
-0.0040546
-0.00410618
-0.00417482
-0.00423608
-0.00428678
-0.00434906
-0.00443278
-0.00452602
-0.00461587
-0.00470075
-0.00478482
-0.00486166
-0.00492272
-0.0049824
-0.00504622
-0.00510476
-0.0051614
-0.00523351
-0.00531491
-0.00539885
-0.00548438
-0.0055706
-0.00565146
-0.00572527
-0.00580782
-0.00588869
-0.00596224
-0.00603131
-0.00610284
-0.0061736
-0.00624258
-0.00632201
-0.00640296
-0.00647563
-0.0065583
-0.00665029
-0.00674992
-0.00684531
-0.00693325
-0.00702302
-0.00710608
-0.00719815
-0.0072967
-0.00739013
-0.00749351
-0.00757745
-0.00765671
-0.00775353
-0.00783105
-0.00791652
-0.00802084
-0.0080937
-0.00817757
-0.00828051
-0.00834233
-0.00840962
-0.0085081
-0.00858284
-0.00863597
-0.00870807
-0.00878971
-0.00884862
-0.00891253
-0.00897712
-0.0090399
-0.00910038
-0.00916792
-0.00924686
0.0122438
0.00977647
0.00405298
-0.00128101
-0.00398126
-0.00430961
-0.00379385
-0.00339946
-0.00320419
-0.00306051
-0.00294294
-0.00287916
-0.00289108
-0.00296332
-0.00304537
-0.00309464
-0.00309804
-0.00309099
-0.00311141
-0.00315036
-0.00321071
-0.00329078
-0.00334392
-0.00337719
-0.00345056
-0.0035529
-0.00363471
-0.00369164
-0.0037479
-0.00382627
-0.00392355
-0.00400294
-0.00405139
-0.00410384
-0.00417265
-0.00423395
-0.00428483
-0.00434711
-0.00443064
-0.00452376
-0.00461366
-0.0046986
-0.00478267
-0.00485973
-0.00492123
-0.00498127
-0.00504519
-0.00510373
-0.00516037
-0.00523249
-0.00531391
-0.00539789
-0.00548345
-0.00556971
-0.00565066
-0.00572457
-0.00580718
-0.00588807
-0.00596165
-0.00603075
-0.00610234
-0.00617317
-0.00624218
-0.00632158
-0.00640252
-0.00647523
-0.00655793
-0.0066499
-0.00674953
-0.00684494
-0.00693291
-0.00702269
-0.00710572