/*--------------------------------*- C++ -*----------------------------------*\
| =========                 |                                                 |
| \\      /  F ield         | OpenFOAM: The Open Source CFD Toolbox           |
|  \\    /   O peration     | Version:  v1906                                 |
|   \\  /    A nd           | Web:      www.OpenFOAM.com                      |
|    \\/     M anipulation  |                                                 |
\*---------------------------------------------------------------------------*/
FoamFile
{
    version     2.0;
    format      ascii;
    class       volVectorField;
    location    "1.1";
    object      U;
}
// * * * * * * * * * * * * * * * * * * * * * * * * * * * * * * * * * * * * * //

dimensions      [0 1 -1 0 0 0 0];


internalField   nonuniform List<vector> 
9600
(
(0.851481 0.00021245 0)
(1.13495 -0.00284307 0)
(0.869173 0.000384269 0)
(1.18967 0.00622434 0)
(0.825579 -0.00187674 0)
(1.10461 0.0019618 0)
(0.893365 -0.00824135 0)
(1.11974 -0.00201315 0)
(0.875849 0.00238005 0)
(1.1255 -0.000711749 0)
(0.864965 0.0064023 0)
(1.13092 0.0068464 0)
(0.873707 -0.00117965 0)
(1.10864 -0.000185543 0)
(0.890502 -0.00544319 0)
(1.10894 -0.000921883 0)
(0.88525 -0.00608851 0)
(1.11771 -0.00229033 0)
(0.872175 -0.00321279 0)
(1.12627 -0.000392014 0)
(0.862035 0.000231297 0)
(1.12337 -0.00279325 0)
(0.879745 -0.000287066 0)
(1.17577 0.00671197 0)
(0.848579 -0.00118677 0)
(1.09009 0.00140696 0)
(0.913154 -0.00871127 0)
(1.10591 -0.00160537 0)
(0.898612 0.0021364 0)
(1.10471 -0.000204469 0)
(0.893398 0.00607391 0)
(1.09843 0.00694378 0)
(0.918681 -0.000889416 0)
(1.06659 -0.000378129 0)
(0.943717 -0.00550103 0)
(1.05363 -0.000816938 0)
(0.957729 -0.00609855 0)
(1.03834 -0.00232003 0)
(0.974022 -0.00254667 0)
(1.00933 -0.00012591 0)
(0.882029 0.000264795 0)
(1.10216 -0.00280589 0)
(0.900851 -0.000819395 0)
(1.14824 0.00719659 0)
(0.885401 -0.000623556 0)
(1.0651 0.000973684 0)
(0.940953 -0.00895241 0)
(1.07942 -0.00135033 0)
(0.934931 0.00202889 0)
(1.07113 -2.96099e-05 0)
(0.93639 0.00596488 0)
(1.05667 0.00669769 0)
(0.966076 -0.000452924 0)
(1.02626 -0.000806341 0)
(0.982321 -0.0051415 0)
(1.01494 -0.00130525 0)
(0.99059 -0.0054605 0)
(1.00369 -0.00304743 0)
(0.995438 -0.0014823 0)
(0.9923 -0.000421888 0)
(0.908126 0.000319087 0)
(1.07541 -0.00285204 0)
(0.92801 -0.00122751 0)
(1.11221 0.00740986 0)
(0.92462 -3.62728e-05 0)
(1.03788 0.000573154 0)
(0.966814 -0.00913558 0)
(1.04907 -0.00129824 0)
(0.967938 0.00208802 0)
(1.03926 2.04731e-05 0)
(0.971189 0.00608268 0)
(1.0271 0.00631686 0)
(0.992682 -1.84813e-05 0)
(1.00702 -0.0010024 0)
(0.994895 -0.00491499 0)
(1.00157 -0.00150251 0)
(0.995561 -0.00518342 0)
(0.996012 -0.0032424 0)
(0.993737 -0.00101244 0)
(0.991702 0.000273718 0)
(0.93559 0.000394513 0)
(1.04878 -0.00293213 0)
(0.954942 -0.00154735 0)
(1.07513 0.00747446 0)
(0.956859 0.000535007 0)
(1.01641 0.000261821 0)
(0.984591 -0.0092597 0)
(1.02407 -0.00135858 0)
(0.988372 0.00220511 0)
(1.01824 2.63315e-05 0)
(0.989782 0.00617496 0)
(1.01258 0.00604316 0)
(1.00218 0.000301483 0)
(1.00136 -0.00102045 0)
(0.996723 -0.00469218 0)
(0.997332 -0.00167138 0)
(0.994964 -0.0048528 0)
(0.993016 -0.00335402 0)
(0.991658 -0.000567771 0)
(0.989678 0.000676668 0)
(0.959918 0.00047712 0)
(1.02714 -0.00303986 0)
(0.976611 -0.00175518 0)
(1.04366 0.0074872 0)
(0.978136 0.000992598 0)
(1.00409 4.60361e-05 0)
(0.993974 -0.00931507 0)
(1.00801 -0.00145766 0)
(0.997161 0.00228554 0)
(1.00795 3.89016e-05 0)
(0.996643 0.00618876 0)
(1.00678 0.00587465 0)
(1.00424 0.000514094 0)
(1.0001 -0.000954741 0)
(0.996729 -0.00445015 0)
(0.995321 -0.00180828 0)
(0.994001 -0.00451177 0)
(0.99105 -0.00342397 0)
(0.98995 -0.00022388 0)
(0.987918 0.00112211 0)
(0.978332 0.00054908 0)
(1.0127 -0.0031491 0)
(0.99091 -0.0018575 0)
(1.02112 0.00748409 0)
(0.98962 0.00129716 0)
(0.999551 -8.29274e-05 0)
(0.997988 -0.00930158 0)
(0.999422 -0.00155839 0)
(0.999369 0.00230358 0)
(1.00396 5.57126e-05 0)
(0.99834 0.00616301 0)
(1.00457 0.00574199 0)
(1.00433 0.000683374 0)
(0.999914 -0.000875589 0)
(0.9969 -0.00418279 0)
(0.994567 -0.00190377 0)
(0.993293 -0.0041991 0)
(0.99009 -0.00341336 0)
(0.988589 5.11498e-05 0)
(0.986828 0.00160558 0)
(0.990286 0.000598913 0)
(1.00485 -0.0032405 0)
(0.998442 -0.00188 0)
(1.00733 0.00748501 0)
(0.994845 0.00145678 0)
(0.999403 -0.00016282 0)
(0.999637 -0.00922347 0)
(0.995375 -0.00164833 0)
(0.999092 0.00227528 0)
(1.00242 6.21596e-05 0)
(0.998572 0.0061218 0)
(1.00368 0.00561634 0)
(1.0042 0.000833201 0)
(1.0001 -0.000805454 0)
(0.997361 -0.00390069 0)
(0.994704 -0.00196615 0)
(0.993141 -0.00390016 0)
(0.989913 -0.0033143 0)
(0.987919 0.000273105 0)
(0.986295 0.00211038 0)
(0.996923 0.000624222 0)
(1.00146 -0.00330681 0)
(1.00118 -0.00184663 0)
(1.00011 0.00748974 0)
(0.997124 0.00150604 0)
(1.0008 -0.000225753 0)
(1.00051 -0.00908625 0)
(0.993623 -0.00172248 0)
(0.998274 0.00222574 0)
(1.00146 5.05425e-05 0)
(0.998466 0.0060699 0)
(1.00323 0.0054902 0)
(1.00413 0.000964482 0)
(1.00046 -0.000739289 0)
(0.997998 -0.00362308 0)
(0.9953 -0.00199454 0)
(0.993488 -0.00361412 0)
(0.990269 -0.00313335 0)
(0.987919 0.000466 0)
(0.986284 0.00261763 0)
(1.00003 0.000630102 0)
(1.00035 -0.0033474 0)
(1.00118 -0.00177855 0)
(0.997037 0.00748236 0)
(0.998461 0.00148915 0)
(1.00225 -0.000284079 0)
(1.00111 -0.00890102 0)
(0.992951 -0.00178135 0)
(0.997513 0.00217489 0)
(1.00057 2.34887e-05 0)
(0.998154 0.00600454 0)
(1.00286 0.00535699 0)
(1.00405 0.00107697 0)
(1.00084 -0.000673523 0)
(0.99866 -0.00336587 0)
(0.996035 -0.00198519 0)
(0.994083 -0.00334612 0)
(0.990922 -0.00288178 0)
(0.988378 0.000636691 0)
(0.986701 0.00310894 0)
(1.00121 0.000624504 0)
(1.00012 -0.00336432 0)
(0.999951 -0.00169365 0)
(0.996242 0.00744702 0)
(0.999659 0.00143986 0)
(1.00326 -0.000338256 0)
(1.00147 -0.00868106 0)
(0.992787 -0.00182728 0)
(0.996916 0.00213462 0)
(0.999766 -1.17221e-05 0)
(0.997671 0.00592345 0)
(1.00245 0.00521296 0)
(1.00393 0.00116673 0)
(1.00113 -0.000608747 0)
(0.999224 -0.00313629 0)
(0.996712 -0.001936 0)
(0.994706 -0.00310052 0)
(0.991658 -0.00257763 0)
(0.989068 0.000797363 0)
(0.987392 0.00356697 0)
(1.00152 0.000613834 0)
(1.00013 -0.00336003 0)
(0.998396 -0.00160493 0)
(0.996519 0.00737447 0)
(1.00085 0.00138051 0)
(1.00381 -0.000384625 0)
(1.00164 -0.00843713 0)
(0.992869 -0.00186395 0)
(0.996483 0.00210899 0)
(0.999157 -4.84272e-05 0)
(0.997137 0.00582813 0)
(1.00201 0.00505906 0)
(1.00375 0.00123273 0)
(1.00128 -0.000539694 0)
(0.999627 -0.00293445 0)
(0.99723 -0.00185231 0)
(0.995225 -0.00287825 0)
(0.992332 -0.00224077 0)
(0.989804 0.000964863 0)
(0.988195 0.00396835 0)
(1.00151 0.000601742 0)
(1.00016 -0.00333737 0)
(0.996999 -0.00151971 0)
(0.997157 0.00726229 0)
(1.00193 0.00132526 0)
(1.00405 -0.000419894 0)
(1.00166 -0.00817705 0)
(0.993063 -0.00189526 0)
(0.9962 0.00209696 0)
(0.998772 -8.30326e-05 0)
(0.996679 0.00572086 0)
(1.00159 0.00490098 0)
(1.00356 0.00127033 0)
(1.00131 -0.000457069 0)
(0.999865 -0.00276147 0)
(0.997569 -0.00174062 0)
(0.995591 -0.00267365 0)
(0.992878 -0.00189134 0)
(0.990476 0.00115513 0)
(0.988987 0.0042906 0)
(1.00142 0.00058981 0)
(1.00017 -0.0033 0)
(0.995966 -0.00144029 0)
(0.997782 0.00711408 0)
(1.00277 0.00127946 0)
(1.00409 -0.000443694 0)
(1.00161 -0.00790586 0)
(0.993299 -0.00192406 0)
(0.996043 0.00209518 0)
(0.99858 -0.000113449 0)
(0.996366 0.00560376 0)
(1.0012 0.00474337 0)
(1.00337 0.00127794 0)
(1.00125 -0.000355254 0)
(0.99997 -0.0026161 0)
(0.997759 -0.00160588 0)
(0.995814 -0.00247451 0)
(0.993295 -0.00154959 0)
(0.991046 0.00138096 0)
(0.989699 0.00453258 0)
(1.00134 0.000578478 0)
(1.00016 -0.00325189 0)
(0.995327 -0.00136571 0)
(0.998247 0.00693691 0)
(1.00332 0.00124214 0)
(1.00403 -0.000458164 0)
(1.00154 -0.00762689 0)
(0.993542 -0.00195149 0)
(0.995978 0.00209971 0)
(0.998523 -0.000137502 0)
(0.996205 0.00547673 0)
(1.00089 0.00459134 0)
(1.00318 0.00125871 0)
(1.00114 -0.000234422 0)
(0.999988 -0.00249075 0)
(0.99785 -0.00145639 0)
(0.995937 -0.00226195 0)
(0.993612 -0.00123519 0)
(0.99152 0.00164042 0)
(0.990316 0.00471519 0)
(1.00128 0.000567593 0)
(1.00015 -0.00319648 0)
(0.995018 -0.00129364 0)
(0.998539 0.00673852 0)
(1.00362 0.00121204 0)
(1.00392 -0.000465986 0)
(1.00148 -0.00734257 0)
(0.993775 -0.00197776 0)
(0.995973 0.00210698 0)
(0.998546 -0.000154935 0)
(0.996165 0.00533721 0)
(1.00063 0.00445286 0)
(1.003 0.00121301 0)
(1.001 -9.69908e-05 0)
(0.999961 -0.00237582 0)
(0.99789 -0.00130539 0)
(0.996002 -0.00201866 0)
(0.993871 -0.000955722 0)
(0.991928 0.0019159 0)
(0.990852 0.00486087 0)
(1.00124 0.000556997 0)
(1.00013 -0.00313678 0)
(0.994939 -0.00122216 0)
(0.998701 0.00652607 0)
(1.00372 0.00118698 0)
(1.00378 -0.000469986 0)
(1.00143 -0.0070548 0)
(0.993999 -0.00200107 0)
(0.996002 0.00211331 0)
(0.99861 -0.000163959 0)
(0.996207 0.00518343 0)
(1.00042 0.00433303 0)
(1.00283 0.00114421 0)
(1.00087 5.17541e-05 0)
(0.999916 -0.00226305 0)
(0.997913 -0.00116265 0)
(0.996044 -0.00174003 0)
(0.994102 -0.000706546 0)
(0.992298 0.00218845 0)
(0.991327 0.00498878 0)
(1.0012 0.000546728 0)
(1.00011 -0.00307515 0)
(0.994997 -0.00115014 0)
(0.998787 0.0063046 0)
(1.00369 0.00116585 0)
(1.00362 -0.000472229 0)
(1.00141 -0.00676493 0)
(0.994217 -0.00202147 0)
(0.996047 0.00211658 0)
(0.998692 -0.000164134 0)
(0.996296 0.00501433 0)
(1.00025 0.0042323 0)
(1.00266 0.0010573 0)
(1.00073 0.000207599 0)
(0.999868 -0.00213896 0)
(0.997937 -0.00103702 0)
(0.996083 -0.00142793 0)
(0.994327 -0.000477499 0)
(0.992654 0.00244099 0)
(0.991762 0.00511578 0)
(1.00117 0.000536624 0)
(1.0001 -0.00301251 0)
(0.995126 -0.00107737 0)
(0.998837 0.00607813 0)
(1.00361 0.00114633 0)
(1.00345 -0.000472488 0)
(1.00139 -0.00647504 0)
(0.994435 -0.00203602 0)
(0.9961 0.00211318 0)
(0.99878 -0.000153163 0)
(0.996411 0.00482896 0)
(1.00009 0.0041484 0)
(1.00251 0.000958769 0)
(1.0006 0.000365275 0)
(0.99982 -0.00198895 0)
(0.997973 -0.000935437 0)
(0.996127 -0.00108742 0)
(0.994554 -0.000259166 0)
(0.99301 0.00265416 0)
(0.992171 0.00524794 0)
(1.00114 0.000526538 0)
(1.00008 -0.00294945 0)
(0.995286 -0.00100344 0)
(0.998871 0.00584822 0)
(1.00349 0.00112734 0)
(1.00328 -0.000470797 0)
(1.00137 -0.00618831 0)
(0.994653 -0.00204166 0)
(0.996157 0.00210134 0)
(0.998872 -0.000131103 0)
(0.996541 0.00462832 0)
(0.999946 0.00407857 0)
(1.00237 0.000858862 0)
(1.00048 0.000514837 0)
(0.999771 -0.00180811 0)
(0.998025 -0.000854909 0)
(0.99618 -0.0007317 0)
(0.994783 -4.21458e-05 0)
(0.993373 0.0028181 0)
(0.992563 0.00538526 0)
(1.00111 0.000516651 0)
(1.00006 -0.00288673 0)
(0.995458 -0.000928665 0)
(0.998901 0.00561585 0)
(1.00337 0.0011084 0)
(1.00311 -0.000466089 0)
(1.00135 -0.00590712 0)
(0.994873 -0.00203811 0)
(0.996215 0.002081 0)
(0.998964 -9.87644e-05 0)
(0.996679 0.00441487 0)
(0.999804 0.0040202 0)
(1.00224 0.00075843 0)
(1.00037 0.000643951 0)
(0.99972 -0.00159695 0)
(0.998093 -0.000788258 0)
(0.996245 -0.000377755 0)
(0.995012 0.000193034 0)
(0.993747 0.00293383 0)
(0.992944 0.0055193 0)
(1.00108 0.000506846 0)
(1.00005 -0.00282395 0)
(0.995633 -0.000855034 0)
(0.998931 0.00538454 0)
(1.00325 0.00108496 0)
(1.00293 -0.000454749 0)
(1.00133 -0.00563347 0)
(0.995096 -0.00202283 0)
(0.996274 0.00205212 0)
(0.999057 -5.84261e-05 0)
(0.996826 0.00419347 0)
(0.999664 0.00396453 0)
(1.00211 0.000667213 0)
(1.00028 0.000749019 0)
(0.999665 -0.00135758 0)
(0.998176 -0.000727776 0)
(0.996324 -3.78971e-05 0)
(0.995238 0.000458569 0)
(0.99413 0.00300769 0)
(0.993321 0.0056341 0)
(1.00105 0.000496867 0)
(1.00004 -0.00276091 0)
(0.995809 -0.000782659 0)
(0.998962 0.00515468 0)
(1.00312 0.0010596 0)
(1.00276 -0.000436271 0)
(1.0013 -0.00536891 0)
(0.99532 -0.00199666 0)
(0.996334 0.00201507 0)
(0.999148 -1.01635e-05 0)
(0.99698 0.00396804 0)
(0.999525 0.00390643 0)
(1.00198 0.000596733 0)
(1.0002 0.000831489 0)
(0.999607 -0.00109559 0)
(0.998272 -0.000662184 0)
(0.996419 0.000279713 0)
(0.995458 0.000748836 0)
(0.994519 0.00305281 0)
(0.993698 0.00571721 0)
(1.00102 0.000486613 0)
(1.00003 -0.00269725 0)
(0.995986 -0.000712533 0)
(0.998994 0.00492784 0)
(1.003 0.00103187 0)
(1.0026 -0.00040924 0)
(1.00127 -0.00511434 0)
(0.995547 -0.00196144 0)
(0.996395 0.00197219 0)
(0.999236 4.15215e-05 0)
(0.997139 0.00374642 0)
(0.99939 0.00384344 0)
(1.00186 0.000542257 0)
(1.00013 0.000893433 0)
(0.999546 -0.00081601 0)
(0.998379 -0.000584401 0)
(0.996535 0.000571318 0)
(0.99567 0.00105553 0)
(0.99491 0.0030795 0)
(0.994081 0.00575882 0)
(1.00098 0.000475713 0)
(1.00002 -0.00263188 0)
(0.996163 -0.00064701 0)
(0.999027 0.00470681 0)
(1.00287 0.000995492 0)
(1.00243 -0.000371608 0)
(1.00124 -0.00486796 0)
(0.995776 -0.00192122 0)
(0.996459 0.00192833 0)
(0.99932 8.894e-05 0)
(0.997304 0.00353273 0)
(0.999258 0.00377703 0)
(1.00173 0.000505784 0)
(1.00008 0.000940742 0)
(0.999483 -0.000521202 0)
(0.998492 -0.000493057 0)
(0.996672 0.00083604 0)
(0.995875 0.00137501 0)
(0.995299 0.00309455 0)
(0.994475 0.0057474 0)
(1.00095 0.000464439 0)
(1.00002 -0.00256571 0)
(0.996342 -0.000586861 0)
(0.999061 0.00449343 0)
(1.00275 0.000951042 0)
(1.00227 -0.000324628 0)
(1.0012 -0.00462883 0)
(0.996006 -0.00187516 0)
(0.996527 0.00188615 0)
(0.9994 0.000128609 0)
(0.997473 0.00332857 0)
(0.999131 0.00370803 0)
(1.00161 0.000485032 0)
(1.00005 0.000974462 0)
(0.999421 -0.000211953 0)
(0.99861 -0.000382837 0)
(0.996832 0.00106833 0)
(0.996071 0.00170563 0)
(0.995678 0.00311165 0)
(0.994887 0.00567061 0)
(1.00092 0.000451988 0)
(1.00002 -0.00249662 0)
(0.996522 -0.000535974 0)
(0.999097 0.0042903 0)
(1.00263 0.000898248 0)
(1.00211 -0.000269794 0)
(1.00117 -0.00439649 0)
(0.996238 -0.001825 0)
(0.9966 0.00185075 0)
(0.999476 0.000158099 0)
(0.997646 0.0031313 0)
(0.999009 0.00363607 0)
(1.00149 0.000478087 0)
(1.00004 0.000996908 0)
(0.999361 0.000107508 0)
(0.998727 -0.000246277 0)
(0.997019 0.00126092 0)
(0.99626 0.00204347 0)
(0.99604 0.00315607 0)
(0.995319 0.00552731 0)
(1.00088 0.000438078 0)
(1.00002 -0.00242402 0)
(0.996703 -0.000492591 0)
(0.999132 0.00409803 0)
(1.00251 0.000836559 0)
(1.00196 -0.000207136 0)
(1.00113 -0.00416702 0)
(0.996471 -0.00178112 0)
(0.996677 0.00182456 0)
(0.999549 0.000181904 0)
(0.997823 0.00293421 0)
(0.998893 0.00357078 0)
(1.00138 0.000487474 0)
(1.00004 0.0010097 0)
(0.999308 0.000428912 0)
(0.99884 -7.50115e-05 0)
(0.997232 0.00140534 0)
(0.99645 0.00236767 0)
(0.996373 0.00324718 0)
(0.995766 0.00533643 0)
(1.00085 0.000422823 0)
(1.00002 -0.00234723 0)
(0.996887 -0.000459776 0)
(0.999168 0.00391965 0)
(1.0024 0.000769915 0)
(1.00181 -0.000140368 0)
(1.00109 -0.00393499 0)
(0.996707 -0.00174789 0)
(0.99676 0.00181287 0)
(0.999617 0.00020223 0)
(0.998004 0.00273319 0)
(0.998784 0.00352355 0)
(1.00126 0.000509294 0)
(1.00007 0.00101403 0)
(0.999265 0.000754418 0)
(0.998943 0.000125084 0)
(0.997467 0.00150304 0)
(0.996648 0.00264927 0)
(0.996675 0.00338678 0)
(0.996217 0.00513102 0)
(1.00081 0.000405321 0)
(1.00002 -0.00226441 0)
(0.997072 -0.000440521 0)
(0.999205 0.00375474 0)
(1.00228 0.000697668 0)
(1.00165 -7.53817e-05 0)
(1.00105 -0.00369424 0)
(0.996946 -0.00172985 0)
(0.996849 0.00180938 0)
(0.99968 0.000227778 0)
(0.998192 0.00252277 0)
(0.998684 0.00349293 0)
(1.00115 0.00055326 0)
(1.00012 0.00100485 0)
(0.999235 0.00107229 0)
(0.999032 0.000351188 0)
(0.997721 0.00157237 0)
(0.996864 0.00287693 0)
(0.996946 0.00356547 0)
(0.996656 0.00495256 0)
(1.00078 0.000385471 0)
(1.00003 -0.00217394 0)
(0.99726 -0.000436934 0)
(0.999242 0.00360417 0)
(1.00217 0.00062301 0)
(1.00151 -1.56943e-05 0)
(1.00101 -0.00344153 0)
(0.997188 -0.00172602 0)
(0.996944 0.00180784 0)
(0.999737 0.000261318 0)
(0.998387 0.00230425 0)
(0.998597 0.00346451 0)
(1.00103 0.000630796 0)
(1.0002 0.000980293 0)
(0.999224 0.00136918 0)
(0.999105 0.000604955 0)
(0.997985 0.00162417 0)
(0.997104 0.00304343 0)
(0.997192 0.00375448 0)
(0.997065 0.00483072 0)
(1.00074 0.000362867 0)
(1.00003 -0.00207431 0)
(0.997448 -0.000448457 0)
(0.99928 0.00346362 0)
(1.00206 0.000548891 0)
(1.00137 2.9756e-05 0)
(1.00096 -0.00316664 0)
(0.997433 -0.00173875 0)
(0.997047 0.00180521 0)
(0.999786 0.000313031 0)
(0.998591 0.00207496 0)
(0.998525 0.00343738 0)
(1.0009 0.000750196 0)
(1.00029 0.00094815 0)
(0.999238 0.00163059 0)
(0.999161 0.000887476 0)
(0.998253 0.00167788 0)
(0.997371 0.00315685 0)
(0.997426 0.00392948 0)
(0.997434 0.00477746 0)
(1.00071 0.000336623 0)
(1.00004 -0.00196603 0)
(0.997639 -0.000472028 0)
(0.999318 0.00332911 0)
(1.00196 0.000481371 0)
(1.00124 5.6536e-05 0)
(1.0009 -0.00287143 0)
(0.997677 -0.001759 0)
(0.997161 0.00179148 0)
(0.999826 0.000394893 0)
(0.998802 0.00184448 0)
(0.998474 0.00340782 0)
(1.00078 0.000917251 0)
(1.0004 0.000914455 0)
(0.999282 0.00183515 0)
(0.999204 0.00119409 0)
(0.998516 0.00174686 0)
(0.997663 0.00322683 0)
(0.997658 0.00407558 0)
(0.997761 0.00478197 0)
(1.00067 0.000307846 0)
(1.00004 -0.00184795 0)
(0.99783 -0.000509451 0)
(0.999357 0.0031992 0)
(1.00185 0.000429905 0)
(1.00111 6.61642e-05 0)
(1.00084 -0.00256481 0)
(0.997919 -0.00177779 0)
(0.997289 0.00175641 0)
(0.999855 0.000501992 0)
(0.999018 0.00162488 0)
(0.998451 0.0033621 0)
(1.00064 0.00112524 0)
(1.00052 0.000889339 0)
(0.999361 0.00197951 0)
(0.999241 0.00150488 0)
(0.998766 0.00182685 0)
(0.997978 0.0032546 0)
(0.9979 0.00418308 0)
(0.998051 0.0048135 0)
(1.00064 0.000275611 0)
(1.00004 -0.00171946 0)
(0.99802 -0.000556999 0)
(0.999398 0.00306251 0)
(1.00175 0.000397322 0)
(1.001 5.52294e-05 0)
(1.00077 -0.00224806 0)
(0.998156 -0.00178796 0)
(0.997432 0.00169112 0)
(0.999877 0.000634713 0)
(0.999236 0.00142532 0)
(0.998459 0.00329287 0)
(1.0005 0.0013607 0)
(1.00064 0.000887084 0)
(0.999475 0.00206832 0)
(0.999278 0.00180515 0)
(0.998999 0.00192319 0)
(0.998311 0.00325007 0)
(0.998158 0.00425965 0)
(0.998318 0.00484915 0)
(1.00061 0.000240514 0)
(1.00004 -0.00158464 0)
(0.99821 -0.000610796 0)
(0.999442 0.00291346 0)
(1.00164 0.000388931 0)
(1.0009 2.38579e-05 0)
(1.0007 -0.00193406 0)
(0.998383 -0.00176851 0)
(0.997593 0.00159473 0)
(0.999893 0.000786442 0)
(0.999451 0.00126149 0)
(0.9985 0.00319493 0)
(1.00036 0.00160304 0)
(1.00076 0.000922874 0)
(0.999624 0.00211511 0)
(0.99932 0.00208893 0)
(0.999208 0.00204612 0)
(0.998656 0.00321729 0)
(0.998436 0.00430512 0)
(0.998569 0.00487811 0)
(1.00058 0.000202122 0)
(1.00004 -0.00144254 0)
(0.998396 -0.000666136 0)
(0.99949 0.00274784 0)
(1.00154 0.000408359 0)
(1.00081 -1.88405e-05 0)
(1.00063 -0.00163391 0)
(0.998598 -0.0017113 0)
(0.99777 0.00147072 0)
(0.999907 0.000942355 0)
(0.999659 0.00114172 0)
(0.998576 0.0030671 0)
(1.00023 0.00183458 0)
(1.00085 0.000998851 0)
(0.999803 0.00212579 0)
(0.999376 0.00234145 0)
(0.99939 0.00220182 0)
(0.999006 0.00316644 0)
(0.998739 0.00431123 0)
(0.998813 0.00490651 0)
(1.00055 0.000161568 0)
(1.00003 -0.00129659 0)
(0.998577 -0.000717393 0)
(0.999544 0.00256028 0)
(1.00143 0.000453737 0)
(1.00072 -6.66922e-05 0)
(1.00057 -0.0013565 0)
(0.998797 -0.0016124 0)
(0.997962 0.00133151 0)
(0.999924 0.00109004 0)
(0.999856 0.00108087 0)
(0.998683 0.00292119 0)
(1.00011 0.00204152 0)
(1.00094 0.00110657 0)
(1.00001 0.00211187 0)
(0.999454 0.00255096 0)
(0.999544 0.00238761 0)
(0.999348 0.00311495 0)
(0.999069 0.00426474 0)
(0.999054 0.00493477 0)
(1.00052 0.000120112 0)
(1.00002 -0.00115237 0)
(0.99875 -0.000761067 0)
(0.999603 0.00234982 0)
(1.00133 0.000515657 0)
(1.00065 -0.000111949 0)
(1.0005 -0.00110678 0)
(0.998979 -0.00147163 0)
(0.998165 0.00119424 0)
(0.999949 0.00121193 0)
(1.00004 0.00107145 0)
(0.998816 0.00277293 0)
(1.00001 0.00221267 0)
(1.001 0.00123649 0)
(1.00023 0.00208908 0)
(0.999562 0.00271746 0)
(0.999674 0.00259686 0)
(0.999668 0.00308749 0)
(0.999426 0.00416344 0)
(0.999306 0.00494213 0)
(1.00049 7.72549e-05 0)
(1 -0.00100864 0)
(0.998913 -0.000793745 0)
(0.999668 0.00211566 0)
(1.00122 0.000587978 0)
(1.00058 -0.00014259 0)
(1.00045 -0.000891829 0)
(0.999143 -0.00129524 0)
(0.998373 0.00107473 0)
(0.999983 0.00130045 0)
(1.00021 0.00109131 0)
(0.998969 0.00263263 0)
(0.999926 0.00234749 0)
(1.00105 0.00137743 0)
(1.00047 0.00205972 0)
(0.999705 0.00283335 0)
(0.999787 0.00281094 0)
(0.999953 0.00310397 0)
(0.999802 0.00402828 0)
(0.999585 0.00490012 0)
(1.00046 3.58653e-05 0)
(0.999986 -0.00087118 0)
(0.999064 -0.000808286 0)
(0.99974 0.0018626 0)
(1.00112 0.000659704 0)
(1.00051 -0.000152281 0)
(1.0004 -0.000712656 0)
(0.999293 -0.00109324 0)
(0.998582 0.000976738 0)
(1.00003 0.00135769 0)
(1.00037 0.0011294 0)
(0.999138 0.0025126 0)
(0.999868 0.00245601 0)
(1.00108 0.00152572 0)
(1.00071 0.00203079 0)
(0.999887 0.00289972 0)
(0.999897 0.00301111 0)
(1.0002 0.00316794 0)
(1.00018 0.00389339 0)
(0.999901 0.00479093 0)
(1.00043 -4.49217e-06 0)
(0.999965 -0.000742041 0)
(0.9992 -0.000801797 0)
(0.999817 0.00159472 0)
(1.00102 0.000720229 0)
(1.00044 -0.000133826 0)
(1.00036 -0.00056317 0)
(0.999429 -0.000878205 0)
(0.998786 0.000912368 0)
(1.00008 0.00138956 0)
(1.00052 0.00116769 0)
(0.999321 0.00241088 0)
(0.999833 0.00254754 0)
(1.0011 0.00168326 0)
(1.00095 0.00200938 0)
(1.00011 0.00292253 0)
(1.00002 0.00318186 0)
(1.0004 0.00326872 0)
(1.00053 0.00379585 0)
(1.00025 0.00463159 0)
(1.0004 -4.18144e-05 0)
(0.999941 -0.000624151 0)
(0.999319 -0.000770739 0)
(0.999898 0.00131387 0)
(1.00094 0.000763554 0)
(1.00037 -8.65612e-05 0)
(1.00032 -0.000441205 0)
(0.999555 -0.000666908 0)
(0.998982 0.000892108 0)
(1.00014 0.00141074 0)
(1.00066 0.00119733 0)
(0.999515 0.00231678 0)
(0.999821 0.00262417 0)
(1.0011 0.00185126 0)
(1.00118 0.0020004 0)
(1.00036 0.00290449 0)
(1.00016 0.00330978 0)
(1.00056 0.00338152 0)
(1.00084 0.00374602 0)
(1.00062 0.00446078 0)
(1.00038 -7.4329e-05 0)
(0.999917 -0.000522151 0)
(0.999418 -0.000714877 0)
(0.99998 0.00103341 0)
(1.00086 0.000780573 0)
(1.00029 -8.95794e-06 0)
(1.0003 -0.000338669 0)
(0.999673 -0.000467844 0)
(0.999169 0.000906776 0)
(1.0002 0.00143146 0)
(1.0008 0.00121845 0)
(0.99972 0.00222528 0)
(0.999835 0.00268395 0)
(1.00108 0.00202541 0)
(1.00139 0.00201381 0)
(1.00064 0.00285246 0)
(1.00032 0.00339233 0)
(1.00071 0.00349031 0)
(1.00111 0.00372907 0)
(1.00098 0.004308 0)
(1.00035 -0.000100685 0)
(0.999893 -0.000437771 0)
(0.999498 -0.000635767 0)
(1.00006 0.000761928 0)
(1.0008 0.000766179 0)
(1.00022 9.87156e-05 0)
(1.00027 -0.000253414 0)
(0.999787 -0.00029547 0)
(0.999346 0.000948107 0)
(1.00026 0.0014665 0)
(1.00092 0.00123738 0)
(0.999934 0.00212701 0)
(0.999877 0.00272263 0)
(1.00105 0.00220191 0)
(1.00157 0.00205973 0)
(1.00093 0.00278048 0)
(1.00052 0.00342299 0)
(1.00085 0.00358581 0)
(1.00134 0.00372957 0)
(1.00132 0.00417985 0)
(1.00033 -0.000119963 0)
(0.999872 -0.000374207 0)
(0.999559 -0.000537121 0)
(1.00013 0.000509539 0)
(1.00076 0.000713763 0)
(1.00014 0.000232737 0)
(1.00024 -0.000163103 0)
(0.9999 -0.000160718 0)
(0.999517 0.00100038 0)
(1.00031 0.00152444 0)
(1.00102 0.00126546 0)
(1.00015 0.00201789 0)
(0.999951 0.00272884 0)
(1.00102 0.00237073 0)
(1.00171 0.0021365 0)
(1.00123 0.00271033 0)
(1.00076 0.00340072 0)
(1.00099 0.00365489 0)
(1.00153 0.00374265 0)
(1.00162 0.0040681 0)
(1.0003 -0.000130637 0)
(0.999853 -0.000334045 0)
(0.999602 -0.000423891 0)
(1.0002 0.000291539 0)
(1.00074 0.000619599 0)
(1.00007 0.000380699 0)
(1.00021 -5.26433e-05 0)
(1.00001 -5.8197e-05 0)
(0.999687 0.00104793 0)
(1.00035 0.00160053 0)
(1.0011 0.00131362 0)
(1.00037 0.00190857 0)
(1.00006 0.00269771 0)
(1.001 0.00251946 0)
(1.00182 0.00224172 0)
(1.00151 0.00266225 0)
(1.00102 0.00334029 0)
(1.00114 0.00368464 0)
(1.00169 0.00376471 0)
(1.00189 0.00397158 0)
(1.00027 -0.000132671 0)
(0.99984 -0.000318278 0)
(0.999629 -0.000301121 0)
(1.00025 0.000120422 0)
(1.00074 0.000487726 0)
(1.00002 0.000521779 0)
(1.00016 8.37416e-05 0)
(1.00011 1.22774e-05 0)
(0.999859 0.0010714 0)
(1.00039 0.00168409 0)
(1.00116 0.00139472 0)
(1.00058 0.0018167 0)
(1.0002 0.00262618 0)
(1.00099 0.00263113 0)
(1.00189 0.00236256 0)
(1.00176 0.00264523 0)
(1.00129 0.00326527 0)
(1.00132 0.00367215 0)
(1.00182 0.00378293 0)
(1.00212 0.0039049 0)
(1.00025 -0.0001258 0)
(0.999833 -0.000323175 0)
(0.999647 -0.000179802 0)
(1.00028 3.61511e-06 0)
(1.00077 0.000328096 0)
(0.999976 0.000634667 0)
(1.0001 0.000262547 0)
(1.0002 7.59105e-05 0)
(1.00004 0.0010519 0)
(1.00044 0.00175414 0)
(1.00119 0.00150671 0)
(1.00077 0.00176085 0)
(1.00037 0.00252617 0)
(1.00101 0.00269731 0)
(1.00194 0.00247693 0)
(1.00197 0.00265541 0)
(1.00157 0.00319529 0)
(1.00151 0.00362769 0)
(1.00195 0.00377598 0)
(1.00229 0.00386776 0)
(1.00022 -0.000111527 0)
(0.999833 -0.000343713 0)
(0.999658 -6.84035e-05 0)
(1.00029 -5.41013e-05 0)
(1.00081 0.000155197 0)
(0.999964 0.000700676 0)
(1.00003 0.000471674 0)
(1.00026 0.000159513 0)
(1.00022 0.000997398 0)
(1.00051 0.00179625 0)
(1.0012 0.00164014 0)
(1.00092 0.00174833 0)
(1.00055 0.00242108 0)
(1.00105 0.00271442 0)
(1.00198 0.00257039 0)
(1.00216 0.00267898 0)
(1.00183 0.00313492 0)
(1.00171 0.00357021 0)
(1.00208 0.0037382 0)
(1.00243 0.00383941 0)
(1.0002 -9.18519e-05 0)
(0.999841 -0.000370961 0)
(0.99967 2.30801e-05 0)
(1.00028 -5.29111e-05 0)
(1.00085 -1.98615e-05 0)
(0.999985 0.000700491 0)
(0.999957 0.000695748 0)
(1.00029 0.000284509 0)
(1.0004 0.000929765 0)
(1.0006 0.00178532 0)
(1.0012 0.00177241 0)
(1.00104 0.00178615 0)
(1.00073 0.00233196 0)
(1.00113 0.00269013 0)
(1.00201 0.00263268 0)
(1.00231 0.00270282 0)
(1.00207 0.0030766 0)
(1.00192 0.00350724 0)
(1.00222 0.00368191 0)
(1.00255 0.00379019 0)
(1.00018 -6.80648e-05 0)
(0.999856 -0.000398571 0)
(0.999688 8.72241e-05 0)
(1.00026 -1.08913e-05 0)
(1.0009 -0.000166467 0)
(1.00005 0.000629856 0)
(0.999901 0.000902783 0)
(1.00029 0.000468826 0)
(1.00056 0.000878464 0)
(1.00071 0.00171834 0)
(1.00121 0.00187331 0)
(1.00113 0.00186909 0)
(1.00089 0.0022737 0)
(1.00122 0.00264619 0)
(1.00206 0.00265966 0)
(1.00244 0.00271946 0)
(1.0023 0.00301667 0)
(1.00212 0.0034329 0)
(1.00235 0.00362407 0)
(1.00266 0.00371327 0)
(1.00015 -4.32312e-05 0)
(0.999875 -0.000421632 0)
(0.999715 0.000122794 0)
(1.00021 5.99723e-05 0)
(1.00093 -0.000258265 0)
(1.00014 0.000513079 0)
(0.999875 0.00106359 0)
(1.00026 0.000692173 0)
(1.00069 0.000865995 0)
(1.00085 0.00161498 0)
(1.00125 0.00192619 0)
(1.0012 0.00196583 0)
(1.00103 0.00226005 0)
(1.00132 0.00260006 0)
(1.00211 0.00265763 0)
(1.00255 0.00272167 0)
(1.00251 0.00295775 0)
(1.00233 0.00334105 0)
(1.00248 0.00356664 0)
(1.00277 0.00362825 0)
(1.00013 -1.97135e-05 0)
(0.999898 -0.000432802 0)
(0.999754 0.000128504 0)
(1.00016 0.00015177 0)
(1.00095 -0.000289275 0)
(1.00027 0.000368615 0)
(0.99989 0.00116261 0)
(1.00021 0.000930412 0)
(1.00078 0.000912262 0)
(1.00099 0.00150316 0)
(1.00131 0.00191286 0)
(1.00126 0.00204459 0)
(1.00115 0.00228297 0)
(1.00141 0.00257122 0)
(1.00216 0.0026436 0)
(1.00265 0.00270919 0)
(1.0027 0.00290154 0)
(1.00255 0.00323318 0)
(1.00262 0.00349161 0)
(1.00286 0.00354852 0)
(1.00012 5.31836e-07 0)
(0.999921 -0.000431441 0)
(0.999806 0.000110754 0)
(1.00011 0.000245404 0)
(1.00095 -0.00024882 0)
(1.00042 0.000220722 0)
(0.999955 0.00117324 0)
(1.00016 0.00115794 0)
(1.00082 0.00101984 0)
(1.00112 0.001422 0)
(1.00141 0.00184481 0)
(1.00133 0.00208723 0)
(1.00125 0.00231197 0)
(1.00149 0.00256291 0)
(1.00221 0.00262904 0)
(1.00273 0.00268542 0)
(1.00286 0.00284642 0)
(1.00275 0.00312263 0)
(1.00276 0.00339114 0)
(1.00294 0.00347822 0)
(1.0001 1.58195e-05 0)
(0.999944 -0.000409716 0)
(0.99987 7.71248e-05 0)
(1.00008 0.000328931 0)
(1.00093 -0.00015505 0)
(1.00056 0.00010471 0)
(1.00007 0.00110123 0)
(1.00013 0.00134079 0)
(1.00082 0.00116506 0)
(1.00122 0.00138083 0)
(1.00152 0.00176066 0)
(1.00143 0.00207748 0)
(1.00135 0.00233301 0)
(1.00157 0.00256428 0)
(1.00225 0.00262337 0)
(1.00281 0.00265845 0)
(1.00301 0.00278948 0)
(1.00294 0.00301616 0)
(1.00292 0.00326447 0)
(1.00301 0.00339958 0)
(1.00009 2.62734e-05 0)
(0.999964 -0.00036797 0)
(0.999943 3.61086e-05 0)
(1.00005 0.000393493 0)
(1.00089 -3.29854e-05 0)
(1.00069 4.31192e-05 0)
(1.00023 0.000982058 0)
(1.00013 0.00145011 0)
(1.0008 0.00132717 0)
(1.00129 0.00138908 0)
(1.00164 0.0016839 0)
(1.00154 0.00202078 0)
(1.00146 0.00232674 0)
(1.00164 0.00256315 0)
(1.00229 0.00262321 0)
(1.00286 0.00263586 0)
(1.00313 0.00273354 0)
(1.00312 0.00292119 0)
(1.00309 0.00312575 0)
(1.0031 0.00329961 0)
(1.00008 3.15427e-05 0)
(0.999978 -0.000310396 0)
(1.00002 -9.42234e-07 0)
(1.00005 0.000430451 0)
(1.00084 0.000111676 0)
(1.00079 4.12743e-05 0)
(1.00041 0.000844808 0)
(1.00019 0.00147938 0)
(1.00077 0.00147354 0)
(1.00132 0.00145021 0)
(1.00173 0.00162978 0)
(1.00168 0.00194985 0)
(1.00159 0.00227954 0)
(1.00172 0.00254556 0)
(1.00231 0.00261803 0)
(1.0029 0.00261685 0)
(1.00323 0.00267669 0)
(1.00326 0.00283725 0)
(1.00326 0.00299051 0)
(1.0032 0.00317101 0)
(1.00007 3.17162e-05 0)
(0.999987 -0.000242578 0)
(1.0001 -2.52185e-05 0)
(1.00006 0.000436576 0)
(1.00078 0.000258366 0)
(1.00086 0.000103084 0)
(1.0006 0.000720678 0)
(1.00029 0.00143926 0)
(1.00076 0.00158045 0)
(1.00132 0.00153532 0)
(1.00181 0.00161407 0)
(1.00181 0.00188083 0)
(1.00173 0.00220599 0)
(1.00181 0.00249879 0)
(1.00234 0.00260225 0)
(1.00293 0.00260041 0)
(1.00331 0.00262033 0)
(1.00338 0.00275691 0)
(1.0034 0.00287179 0)
(1.00332 0.00301963 0)
(1.00007 2.95286e-05 0)
(0.999991 -0.000173477 0)
(1.00017 -3.33695e-05 0)
(1.0001 0.000422793 0)
(1.00074 0.00038176 0)
(1.0009 0.000208694 0)
(1.00078 0.000638361 0)
(1.00042 0.00135355 0)
(1.00077 0.00164209 0)
(1.0013 0.00161848 0)
(1.00185 0.00163472 0)
(1.00192 0.00182508 0)
(1.00188 0.00212613 0)
(1.00193 0.00242383 0)
(1.00238 0.00256196 0)
(1.00294 0.00257879 0)
(1.00337 0.00256691 0)
(1.00348 0.00267196 0)
(1.00351 0.00277289 0)
(1.00344 0.00286959 0)
(1.00007 2.5917e-05 0)
(0.99999 -0.000107391 0)
(1.00023 -2.31816e-05 0)
(1.00014 0.000402779 0)
(1.00071 0.000476801 0)
(1.00092 0.000328911 0)
(1.00093 0.000606212 0)
(1.00058 0.00125166 0)
(1.00081 0.00164846 0)
(1.00128 0.00169125 0)
(1.00187 0.00167595 0)
(1.00202 0.00179441 0)
(1.00202 0.00204881 0)
(1.00205 0.00233426 0)
(1.00244 0.00249333 0)
(1.00295 0.00253987 0)
(1.0034 0.00251632 0)
(1.00357 0.0025792 0)