/*--------------------------------*- C++ -*----------------------------------*\
| =========                 |                                                 |
| \\      /  F ield         | OpenFOAM: The Open Source CFD Toolbox           |
|  \\    /   O peration     | Version:  v1812                                 |
|   \\  /    A nd           | Web:      www.OpenFOAM.com                      |
|    \\/     M anipulation  |                                                 |
\*---------------------------------------------------------------------------*/
FoamFile
{
    version     2.0;
    format      ascii;
    class       volScalarField;
    location    "2.2";
    object      p;
}
// * * * * * * * * * * * * * * * * * * * * * * * * * * * * * * * * * * * * * //

dimensions      [0 2 -2 0 0 0 0];


internalField   nonuniform List<scalar> 
9600
(
-7.20883e-13
-0.00018174
-0.000219444
0.00031852
-0.000152672
-0.0015031
-1.05777e-06
0.00130227
0.000610677
0.00114074
0.00114959
-0.000193729
-0.000322852
0.00110259
0.0016374
0.00263752
0.00333162
0.00551123
0.00786233
0.0124212
1.53255e-06
-0.000181247
-0.000218084
0.00029899
-0.000153255
-0.00148723
1.71282e-06
0.00128692
0.000614927
0.00110991
0.00114929
-0.000215541
-0.000322225
0.00110852
0.00163999
0.00263339
0.00334803
0.00549183
0.00789171
0.0120972
2.82451e-06
-0.000180882
-0.000218325
0.000281909
-0.000150804
-0.00147106
1.33154e-06
0.00126797
0.000616747
0.00107404
0.00114947
-0.000221042
-0.000319533
0.00111724
0.00164303
0.00262858
0.00336514
0.00546225
0.00789798
0.0116344
3.86001e-06
-0.000181344
-0.000218522
0.000268042
-0.00014936
-0.00145625
2.31319e-06
0.00124438
0.000615132
0.00103779
0.00114668
-0.000213205
-0.000318664
0.00112618
0.00164631
0.00261989
0.00338199
0.00542335
0.00787011
0.0111995
4.61255e-06
-0.000182633
-0.00021779
0.000256378
-0.000149718
-0.00144123
5.742e-06
0.00121505
0.000613412
0.000999501
0.00114319
-0.000195845
-0.000317579
0.00113449
0.00165077
0.00260781
0.00339817
0.00537603
0.00781904
0.0107884
5.08896e-06
-0.000184624
-0.000216026
0.000246929
-0.000151454
-0.00142497
1.16343e-05
0.00118177
0.000612691
0.000959761
0.00114182
-0.000171607
-0.000314303
0.00114173
0.00165733
0.00259267
0.00341244
0.0053225
0.00774608
0.0103921
5.31863e-06
-0.000187174
-0.000213197
0.00023938
-0.000153976
-0.00140687
1.9503e-05
0.00114653
0.000613335
0.000919353
0.00114278
-0.000142603
-0.00030835
0.00114799
0.00166582
0.00257508
0.00342348
0.0052648
0.00764973
0.0100095
5.36279e-06
-0.000190096
-0.000209386
0.000233083
-0.000156603
-0.00138672
2.8772e-05
0.00111007
0.000615585
0.000878438
0.00114548
-0.000110568
-0.000299782
0.00115348
0.00167536
0.00255639
0.0034295
0.00520344
0.00752993
0.00963995
5.3033e-06
-0.00019325
-0.000204804
0.000227446
-0.000158784
-0.00136467
3.88526e-05
0.00107314
0.000619391
0.000836987
0.00114927
-7.66334e-05
-0.000288851
0.00115831
0.00168502
0.00253786
0.00342833
0.00513846
0.00738879
0.00928069
5.20911e-06
-0.000196576
-0.000199655
0.000222051
-0.00016026
-0.00134116
4.92938e-05
0.00103623
0.000624424
0.000795042
0.0011536
-4.15826e-05
-0.000276252
0.00116279
0.00169393
0.00251999
0.00341824
0.00506983
0.00722878
0.00892651
5.12226e-06
-0.000200065
-0.000194073
0.000216595
-0.000160989
-0.00131664
5.97429e-05
0.000999625
0.000630223
0.000752748
0.00115796
-6.06924e-06
-0.000262881
0.00116755
0.00170089
0.00250303
0.00339881
0.00499635
0.00705194
0.00857287
5.06665e-06
-0.000203718
-0.000188131
0.000210874
-0.000161029
-0.00129145
6.99294e-05
0.000963395
0.000636255
0.000710346
0.00116181
2.95216e-05
-0.000249577
0.00117325
0.00170468
0.00248719
0.00337028
0.00491558
0.00686082
0.00821719
5.05923e-06
-0.000207546
-0.000181864
0.000204756
-0.000160461
-0.00126574
7.96551e-05
0.000927457
0.000641983
0.000668167
0.00116453
6.51501e-05
-0.000237217
0.00118047
0.00170458
0.00247203
0.0033328
0.00482481
0.00665977
0.00785861
5.11574e-06
-0.000211566
-0.000175287
0.000198158
-0.000159356
-0.00123962
8.87461e-05
0.00089177
0.000646941
0.000626627
0.00116555
0.000101002
-0.000226657
0.00118962
0.00170041
0.00245645
0.00328701
0.00472079
0.00645269
0.00749824
5.25243e-06
-0.000215802
-0.000168406
0.000191032
-0.00015777
-0.00121309
9.70461e-05
0.000856322
0.00065075
0.000586201
0.00116434
0.000137329
-0.000218588
0.00120101
0.00169204
0.00243882
0.0032353
0.00460015
0.00624042
0.0071382
5.4876e-06
-0.000220284
-0.000161232
0.000183357
-0.000155749
-0.00118612
0.000104385
0.000821135
0.000653081
0.000547391
0.00116034
0.000174486
-0.00021355
0.00121466
0.00167976
0.0024165
0.00318079
0.00446136
0.00602267
0.006782
5.84221e-06
-0.000225042
-0.000153779
0.000175137
-0.000153341
-0.00115863
0.000110556
0.000786361
0.000653624
0.000510673
0.00115298
0.000212892
-0.000211917
0.00123008
0.00166479
0.00238612
0.00312559
0.00430496
0.00579768
0.00643367
6.34046e-06
-0.000230111
-0.000146062
0.000166394
-0.000150614
-0.00113052
0.000115327
0.000752234
0.000652024
0.000476486
0.00114183
0.000252795
-0.000213904
0.00124632
0.00164905
0.00234431
0.00307036
0.00413277
0.00556234
0.00609745
7.01152e-06
-0.000235525
-0.000138117
0.000157174
-0.000147655
-0.00110163
0.000118446
0.000719019
0.000647906
0.000445207
0.00112667
0.000294079
-0.000219355
0.00126174
0.00163484
0.00228848
0.00301415
0.00394858
0.00531344
0.00577579
7.88677e-06
-0.000241307
-0.000129993
0.000147551
-0.000144567
-0.0010718
0.000119611
0.000686997
0.000640984
0.000417081
0.00110721
0.000336443
-0.000227464
0.00127408
0.00162415
0.00221745
0.00295479
0.00375753
0.00504746
0.00547114
8.99938e-06
-0.00024748
-0.000121738
0.00013762
-0.000141509
-0.00104083
0.00011848
0.000656426
0.000630989
0.00039221
0.00108337
0.000379249
-0.000237111
0.00128106
0.00161832
0.00213127
0.00288891
0.0035646
0.00476246
0.00517988
1.03862e-05
-0.00025406
-0.000113447
0.000127511
-0.00013869
-0.00100848
0.000114766
0.000627459
0.000617734
0.000370586
0.00105565
0.000421366
-0.000247343
0.00128054
0.00161768
0.00203136
0.00281213
0.00337472
0.00445962
0.00489583
1.20799e-05
-0.000261037
-0.000105254
0.000117409
-0.000136349
-0.000974573
0.000108259
0.000600212
0.000601219
0.000351971
0.00102468
0.000461543
-0.000257294
0.00127078
0.00162187
0.00192009
0.00272008
0.00319183
0.00414247
0.0046109
1.41017e-05
-0.000268377
-9.72948e-05
0.000107543
-0.000134738
-0.000938995
9.87757e-05
0.000574693
0.000581566
0.000335699
0.000991249
0.000498638
-0.000266209
0.00125077
0.00162978
0.00180031
0.00260918
0.00301781
0.00381597
0.00431782
1.64652e-05
-0.00027601
-8.97797e-05
9.81707e-05
-0.00013409
-0.000901642
8.62349e-05
0.00055073
0.000559099
0.000320747
0.000956396
0.000531873
-0.000273684
0.00121972
0.00163952
0.00167508
0.00247697
0.00285273
0.0034865
0.00401107
1.91722e-05
-0.000283837
-8.29918e-05
8.95685e-05
-0.000134567
-0.000862533
7.0728e-05
0.000527915
0.000534483
0.00030613
0.000920808
0.00056067
-0.000279837
0.00117709
0.00164896
0.00154742
0.00232201
0.00269537
0.00316135
0.00368676
2.21991e-05
-0.000291697
-7.72375e-05
8.1984e-05
-0.000136285
-0.000821809
5.24934e-05
0.000505683
0.000508616
0.000290936
0.000884761
0.000584689
-0.000285177
0.00112259
0.00165607
0.0014205
0.00214362
0.00254304
0.00284866
0.00334215
2.54926e-05
-0.000299361
-7.28054e-05
7.56188e-05
-0.000139379
-0.000779603
3.19741e-05
0.000483127
0.000482382
0.000274306
0.000848321
0.000604156
-0.000290415
0.00105572
0.00165847
0.00129813
0.00194257
0.00239067
0.00255688
0.00297774
2.89681e-05
-0.000306545
-6.99661e-05
7.05858e-05
-0.000143878
-0.000736264
9.91862e-06
0.000459127
0.000456533
0.000255812
0.000811166
0.000619453
-0.000296132
0.000975789
0.00165303
0.00118422
0.00172164
0.00223101
0.00229312
0.0026004
3.24983e-05
-0.000312912
-6.89552e-05
6.69375e-05
-0.000149708
-0.000692495
-1.26027e-05
0.000432928
0.000431519
0.000235315
0.000772322
0.00063062
-0.000302322
0.000882602
0.00163643
0.00108163
0.00148562
0.00205683
0.0020607
0.00222389
3.59322e-05
-0.000318121
-6.99668e-05
6.45613e-05
-0.000156545
-0.000649028
-3.4607e-05
0.000403977
0.000407325
0.000212961
0.000730732
0.000637443
-0.000308812
0.000776524
0.00160562
0.000991531
0.00124111
0.00186242
0.00185642
0.00186559
3.91101e-05
-0.000321862
-7.31135e-05
6.31471e-05
-0.000163784
-0.000606568
-5.54712e-05
0.000371885
0.000383733
0.000189044
0.000685096
0.000639451
-0.000315074
0.000658222
0.00155788
0.000914243
0.000995111
0.00164397
0.00169451
0.00154225
4.18548e-05
-0.000323844
-7.83553e-05
6.2247e-05
-0.000170826
-0.000565745
-7.48097e-05
0.000336961
0.000360512
0.000163654
0.000634045
0.000635639
-0.000320471
0.000529087
0.00149095
0.000849257
0.000754056
0.00139914
0.00152057
0.00126574
4.40299e-05
-0.000323859
-8.55213e-05
6.12872e-05
-0.000177168
-0.000527045
-9.24086e-05
0.000299474
0.000337049
0.000137125
0.000576632
0.000624328
-0.000324341
0.000391489
0.00140299
0.000794247
0.000523867
0.00113158
0.0013403
0.00103474
4.55307e-05
-0.000321825
-9.41598e-05
5.95662e-05
-0.000182607
-0.000490546
-0.000108248
0.000259394
0.000312539
0.000109716
0.000511933
0.000603648
-0.000325954
0.000248669
0.00129304
0.000745626
0.000309336
0.000847865
0.00114434
0.000838312
4.62867e-05
-0.000317825
-0.000103567
5.65499e-05
-0.000187344
-0.00045605
-0.000122282
0.000216829
0.000286343
8.12878e-05
0.000439375
0.000571827
-0.000325033
0.000104884
0.00116091
0.000698962
0.000114091
0.000553563
0.000929708
0.000663591
4.63428e-05
-0.000312167
-0.000113047
5.21793e-05
-0.000192192
-0.000423701
-0.000134257
0.000171747
0.000257569
5.18055e-05
0.000359324
0.000527326
-0.00032182
-3.50645e-05
0.00100744
0.000649081
-5.90003e-05
0.000253843
0.000695915
0.000498761
4.58063e-05
-0.000305234
-0.000122082
4.67227e-05
-0.000197986
-0.000394007
-0.000143861
0.000123931
0.000224544
2.15762e-05
0.000273507
0.000469388
-0.000317977
-0.000167003
0.000834717
0.0005899
-0.000208691
-4.53898e-05
0.000442537
0.000336297
4.48344e-05
-0.000297365
-0.000130399
4.07474e-05
-0.000205271
-0.000368198
-0.000150992
7.34604e-05
0.00018533
-8.67838e-06
0.000185287
0.000398553
-0.000315349
-0.000288817
0.000645688
0.000514978
-0.000335662
-0.000331102
0.000168957
0.000170324
4.36713e-05
-0.000288814
-0.000138088
3.51625e-05
-0.000214234
-0.000348258
-0.000156336
2.06825e-05
0.000138831
-3.90268e-05
9.84127e-05
0.00031658
-0.000316515
-0.000400493
0.00044467
0.000419315
-0.000443483
-0.000605283
-0.000124072
-6.51746e-06
4.25303e-05
-0.000279702
-0.000145433
3.05971e-05
-0.000224477
-0.00033631
-0.000161801
-3.18771e-05
8.47825e-05
-7.05613e-05
1.57439e-05
0.000225679
-0.000330439
-0.000502863
0.000236998
0.00030082
-0.000537981
-0.000854652
-0.000431044
-0.000202645
4.15791e-05
-0.000269952
-0.000152905
2.71773e-05
-0.000234566
-0.000333925
-0.000170171
-8.29074e-05
2.36284e-05
-0.000104464
-6.08421e-05
0.000128352
-0.000355917
-0.000597109
2.69175e-05
0.000159983
-0.000623452
-0.00107482
-0.000742098
-0.000424383
4.09133e-05
-0.000259355
-0.000161097
2.48807e-05
-0.000242422
-0.000341896
-0.000184885
-0.000132965
-4.3709e-05
-0.00014166
-0.000130158
2.81769e-05
-0.000393391
-0.000685508
-0.000182497
-2.24835e-06
-0.000711889
-0.00126509
-0.00104541
-0.000672118
4.03192e-05
-0.000247523
-0.000170304
2.31609e-05
-0.00024593
-0.000359991
-0.000209395
-0.000184283
-0.000115872
-0.000182776
-0.000192163
-7.14953e-05
-0.000442695
-0.000770296
-0.000388107
-0.000183784
-0.000806653
-0.00142792
-0.00133091
-0.000939566
3.9705e-05
-0.000234175
-0.000180693
2.01965e-05
-0.000244209
-0.000385855
-0.000246957
-0.000238792
-0.000188565
-0.000228617
-0.000249762
-0.000169395
-0.000502717
-0.000853378
-0.000586778
-0.000380937
-0.000912572
-0.00156824
-0.00159187
-0.00121682
3.91506e-05
-0.00021933
-0.000192349
1.30775e-05
-0.000238721
-0.000417224
-0.000297392
-0.000289412
-0.00025713
-0.000280954
-0.000309235
-0.000265845
-0.000571265
-0.000936526
-0.000776678
-0.000589083
-0.00103351
-0.00169245
-0.00182486
-0.00149319
3.83171e-05
-0.000203106
-0.000205138
-1.2153e-06
-0.000231768
-0.000447576
-0.00035485
-0.000338079
-0.000321458
-0.000340969
-0.000375288
-0.000362485
-0.000646325
-0.00101947
-0.000956311
-0.000803392
-0.00117121
-0.00180779
-0.00202975
-0.00175917
3.69586e-05
-0.000185594
-0.000218748
-2.42831e-05
-0.000224763
-0.000472342
-0.000417117
-0.000392203
-0.000383505
-0.000406558
-0.000448825
-0.000461201
-0.000726991
-0.00110207
-0.00112442
-0.0010193
-0.00132555
-0.00192115
-0.00220934
-0.00200809
3.49204e-05
-0.000167031
-0.000232138
-5.64274e-05
-0.000220202
-0.000490651
-0.000482286
-0.000453962
-0.000445043
-0.000473226
-0.000528101
-0.000563697
-0.000813466
-0.00118552
-0.00128074
-0.00123154
-0.00149388
-0.00203795
-0.00236833
-0.00223686
3.1968e-05
-0.000147907
-0.000243957
-9.71346e-05
-0.000221934
-0.000502382
-0.000546657
-0.000523912
-0.000508394
-0.000539128
-0.000610186
-0.000670663
-0.000907825
-0.00127218
-0.00142628
-0.00143439
-0.00167119
-0.00216161
-0.00251142
-0.00244453
2.80792e-05
-0.000129004
-0.000253084
-0.000145117
-0.000233512
-0.000508441
-0.000606478
-0.000601681
-0.000577245
-0.000604595
-0.000691977
-0.000781185
-0.00101106
-0.00136337
-0.00156279
-0.00162573
-0.00185189
-0.0022937
-0.00264326
-0.00263059
2.32618e-05
-0.000111335
-0.000258927
-0.000198339
-0.000257504
-0.000511423
-0.000658902
-0.000684709
-0.000654697
-0.000671746
-0.000771438
-0.000891776
-0.00112174
-0.00146117
-0.00169337
-0.00180551
-0.0020306
-0.00243301
-0.00276935
-0.00279529
1.75276e-05
-9.61425e-05
-0.000261461
-0.00025393
-0.000295129
-0.000515802
-0.000701982
-0.00076818
-0.00074126
-0.000744652
-0.000849253
-0.00099855
-0.00123679
-0.00156693
-0.00182121
-0.00197435
-0.00220323
-0.00257546
-0.00289466
-0.00294159
1.0889e-05
-8.45664e-05
-0.000261036
-0.000320026
-0.000345849
-0.000525604
-0.000735794
-0.000847596
-0.000836008
-0.000826709
-0.000927087
-0.00110009
-0.00135174
-0.00167814
-0.00194948
-0.00213494
-0.00236881
-0.00271661
-0.00302092
-0.00307595
3.38706e-06
-7.8215e-05
-0.000258706
-0.000371715
-0.000407517
-0.000546689
-0.000762819
-0.000919376
-0.000936088
-0.000919579
-0.00100792
-0.0011969
-0.00146358
-0.00179124
-0.00207805
-0.00229018
-0.00252877
-0.00285416
-0.00314595
-0.00320491
-5.0475e-06
-7.70456e-05
-0.000253224
-0.000416085
-0.00047647
-0.000581797
-0.000788116
-0.000981717
-0.0010362
-0.00102273
-0.00109607
-0.00129
-0.00157076
-0.00190354
-0.00220416
-0.00244035
-0.0026849
-0.00298866
-0.00326641
-0.00333073
-1.44878e-05
-8.1176e-05
-0.000254659
-0.000453124
-0.000548121
-0.000631785
-0.000817646
-0.00103511
-0.00113088
-0.00113362
-0.00119462
-0.00138256
-0.00167221
-0.00201279
-0.00232653
-0.0025837
-0.00283712
-0.00312221
-0.00338133
-0.00345144
-2.50294e-05
-9.03767e-05
-0.000260334
-0.000483834
-0.000618565
-0.00069586
-0.00085603
-0.0010817
-0.00121727
-0.00124734
-0.0013028
-0.00147967
-0.00176902
-0.00211619
-0.00244405
-0.00271882
-0.00298267
-0.00325563
-0.0034927
-0.00356433
-3.69529e-05
-0.000104269
-0.000271577
-0.000511196
-0.00068492
-0.00077058
-0.00090632
-0.00112589
-0.00129457
-0.00135838
-0.00141757
-0.00158363
-0.00186561
-0.00221371
-0.00255438
-0.00284553
-0.00311856
-0.00338656
-0.00360313
-0.00366888
-5.06627e-05
-0.000121866
-0.000289202
-0.000537425
-0.00074553
-0.000850777
-0.000969161
-0.0011734
-0.00136337
-0.00146285
-0.00153524
-0.0016926
-0.001965
-0.00230798
-0.00265636
-0.00296309
-0.0032438
-0.00351061
-0.00371311
-0.00376735
-6.66595e-05
-0.000142478
-0.000313364
-0.00056561
-0.000800252
-0.000931638
-0.00104333
-0.00122852
-0.00142624
-0.00155823
-0.00165154
-0.00180487
-0.00206623
-0.00240184
-0.00275151
-0.00307037
-0.00335859
-0.00362433
-0.00381946
-0.0038621
-8.55034e-05
-0.00016589
-0.000343352
-0.000597976
-0.000850507
-0.00101026
-0.00112591
-0.00129279
-0.00148826
-0.00164464
-0.00176152
-0.00191837
-0.00216853
-0.00249456
-0.00284246
-0.00316778
-0.00346275
-0.00372714
-0.00391766
-0.00395251
-0.000107734
-0.000192125
-0.000377866
-0.00063576
-0.000899442
-0.00108536
-0.00121268
-0.00136572
-0.0015534
-0.00172426
-0.00186203
-0.00202794
-0.00227098
-0.00258505
-0.00292888
-0.00325708
-0.00355603
-0.00381973
-0.00400579
-0.0040358
-0.00013378
-0.000221443
-0.000415924
-0.000679028
-0.000950092
-0.00115739
-0.00129982
-0.00144578
-0.00162325
-0.00180051
-0.00195435
-0.00212875
-0.00236977
-0.00267297
-0.00300899
-0.00333828
-0.00363856
-0.00390135
-0.00408379
-0.00410949
-0.000163991
-0.000254302
-0.000456951
-0.000727397
-0.00100417
-0.00122765
-0.00138562
-0.00153039
-0.00169805
-0.00187524
-0.00203977
-0.0022205
-0.00245964
-0.00275555
-0.00308205
-0.00340902
-0.00370972
-0.00397022
-0.00415057
-0.0041732
-0.000198559
-0.000291214
-0.000501022
-0.000780061
-0.00106228
-0.00129827
-0.00147054
-0.00161683
-0.00177695
-0.00194965
-0.00211871
-0.00230392
-0.00253869
-0.00282763
-0.00314613
-0.0034674
-0.00376737
-0.00402507
-0.00420381
-0.00422578
-0.000237488
-0.000332578
-0.000548677
-0.000836423
-0.0011246
-0.00137072
-0.00155528
-0.00170431
-0.00185845
-0.00202448
-0.00219179
-0.00237771
-0.00260719
-0.00288608
-0.00319703
-0.00351208
-0.00380928
-0.00406448
-0.00424069
-0.00426395
-0.000280804
-0.000378584
-0.000600263
-0.000896431
-0.00119144
-0.00144604
-0.00164057
-0.00179305
-0.00194166
-0.00209939
-0.00226051
-0.00244091
-0.00266313
-0.00292962
-0.0032295
-0.00353858
-0.00383184
-0.00408477
-0.00425829
-0.00428343
-0.000328632
-0.000429281
-0.000656235
-0.000960189
-0.00126248
-0.00152536
-0.00172805
-0.0018833
-0.00202641
-0.00217395
-0.00232589
-0.00249491
-0.00270372
-0.00295525
-0.00323909
-0.00353882
-0.00382768
-0.00407839
-0.00425078
-0.00427817
-0.000381127
-0.000484576
-0.000716798
-0.00102819
-0.00133783
-0.00160886
-0.00181956
-0.00197673
-0.00211341
-0.00224888
-0.0023881
-0.00254123
-0.00272884
-0.0029588
-0.0032206
-0.00350361
-0.00378563
-0.0040341
-0.00420756
-0.00423977
-0.000438528
-0.000544819
-0.000781677
-0.0011004
-0.0014184
-0.00169773
-0.00191589
-0.00207511
-0.00220445
-0.00232579
-0.00244882
-0.00258114
-0.00274015
-0.00293621
-0.00316495
-0.00341964
-0.00368725
-0.00393463
-0.00411369
-0.00415796
-0.000500748
-0.000610491
-0.000850762
-0.00117709
-0.00150479
-0.00179348
-0.00201954
-0.00218097
-0.00230281
-0.00240719
-0.00250875
-0.00261467
-0.00273926
-0.00288944
-0.00306913
-0.00327451
-0.00350155
-0.00373193
-0.00391853
-0.00399174
-0.000565991
-0.000678663
-0.000925204
-0.00126078
-0.00159863
-0.00189618
-0.00213205
-0.00230001
-0.00241707
-0.00250349
-0.00257277
-0.002638
-0.00271741
-0.00281704
-0.00294257
-0.00309054
-0.00325354
-0.00342315
-0.00356657
-0.0036287
-0.000633296
-0.000749401
-0.00100607
-0.00135078
-0.00169896
-0.00200612
-0.0022531
-0.00243386
-0.00255737
-0.00263986
-0.00268446
-0.00267775
-0.00263943
-0.00259066
-0.00256771
-0.00261673
-0.00275867
-0.00298181
-0.0032319
-0.00342359
-0.000704816
-0.000828922
-0.00109135
-0.00144112
-0.00179787
-0.00211665
-0.00237885
-0.00258117
-0.00272291
-0.00282124
-0.00291003
-0.00297721
-0.00298324
-0.00283438
-0.0024703
-0.00202897
-0.00164497
-0.00137451
-0.00122503
-0.00120746
-0.000779817
-0.000918833
-0.0011881
-0.00154035
-0.00190179
-0.00222327
-0.00249159
-0.00271048
-0.00287511
-0.00297473
-0.00294611
-0.00272944
-0.00242526
-0.00214377
-0.00192476
-0.0017646
-0.00163665
-0.00152119
-0.00143725
-0.00144736
-0.000854376
-0.000986069
-0.00127384
-0.00165572
-0.00205939
-0.00242714
-0.00272411
-0.00290549
-0.00290709
-0.00275992
-0.00257024
-0.00239113
-0.00223797
-0.00207706
-0.00187298
-0.00161775
-0.0013311
-0.00106129
-0.000869183
-0.000838127
-0.000963876
-0.00110725
-0.00133866
-0.00165414
-0.00200711
-0.00232528
-0.00255246
-0.00268648
-0.00273267
-0.00272735
-0.0027283
-0.00273343
-0.00273997
-0.00273009
-0.00262281
-0.00234915
-0.00187824
-0.00129249
-0.000773931
-0.00050626
-0.0010197
-0.00118716
-0.00149736
-0.00185975
-0.00220094
-0.0024601
-0.00261763
-0.00270369
-0.00271977
-0.00265566
-0.00254104
-0.00238658
-0.00218033
-0.00194762
-0.00169784
-0.00143628
-0.00118284
-0.00096414
-0.000836485
-0.00087109
-0.00106485
-0.0012138
-0.00148659
-0.00184358
-0.00222405
-0.00255336
-0.0027552
-0.00281157
-0.00274624
-0.00259912
-0.00243881
-0.00231416
-0.00220348
-0.00209086
-0.00196387
-0.00179292
-0.00157831
-0.00135221
-0.00118756
-0.00117167
0.0194067
0.0111546
0.00167492
-0.00487634
-0.00686752
-0.00645816
-0.0058996
-0.00555583
-0.00521755
-0.00485169
-0.00453042
-0.00433235
-0.00435099
-0.00455495
-0.00473734
-0.00477407
-0.00475084
-0.00476525
-0.00484947
-0.00501217
-0.00517924
-0.0052697
-0.0053352
-0.00545217
-0.00560184
-0.00572857
-0.00580575
-0.00585106
-0.00591418
-0.00601212
-0.00610288
-0.00616173
-0.0062209
-0.00631333
-0.00642626
-0.00653317
-0.00663719
-0.00675367
-0.00686878
-0.0069571
-0.00703355
-0.00712383
-0.00721477
-0.00728516
-0.00736489
-0.00747998
-0.00760333
-0.0077116
-0.00782045
-0.0079427
-0.00805553
-0.0081445
-0.00823967
-0.00834988
-0.00844853
-0.00855079
-0.00867071
-0.00879073
-0.00890903
-0.0090335
-0.00915701
-0.00927823
-0.00939925
-0.00951324
-0.0096301
-0.00975478
-0.00988705
-0.0100223
-0.0101591
-0.010292
-0.0104256
-0.0105635
-0.0107023
-0.010842
-0.0109827
-0.0111232
-0.0112672
-0.0114101
-0.0115589
-0.0117045
-0.0118515
-0.0119981
-0.0121462
-0.0122991
-0.0124524
-0.0126042
-0.0127607
-0.0129149
-0.0130746
-0.0132393
-0.0134028
-0.0135713
-0.0137401
-0.0139115
-0.0140888
-0.0142734
-0.0144688
-0.0146519
-0.0149114
-0.01518
0.0182739
0.0109691
0.00175577
-0.00472692
-0.00677864
-0.00641748
-0.00587713
-0.00554189
-0.00520756
-0.0048435
-0.00452307
-0.00432525
-0.00434425
-0.00454914
-0.00473257
-0.00476994
-0.00474706
-0.00476174
-0.00484619
-0.00500923
-0.00517674
-0.00526744
-0.00533301
-0.00545009
-0.00559995
-0.00572688
-0.0058042
-0.00584958
-0.00591276
-0.00601082
-0.00610172
-0.00616064
-0.00621984
-0.00631232
-0.00642533
-0.0065323
-0.00663636
-0.00675288
-0.00686805
-0.00695642
-0.00703288
-0.00712319
-0.00721418
-0.00728459
-0.00736432
-0.00747943
-0.00760283
-0.00771112
-0.00781997
-0.00794225
-0.00805511
-0.0081441
-0.00823927
-0.00834951
-0.00844818
-0.00855044
-0.00867037
-0.00879041
-0.00890872
-0.0090332
-0.00915672
-0.00927796
-0.00939899
-0.00951299
-0.00962986
-0.00975455
-0.00988682
-0.0100221
-0.0101589
-0.0102919
-0.0104254
-0.0105633
-0.0107021
-0.0108419
-0.0109825
-0.0111231
-0.011267
-0.01141
-0.0115587
-0.0117044
-0.0118513
-0.011998
-0.012146
-0.012299
-0.0124523
-0.0126041
-0.0127606
-0.0129148
-0.0130745
-0.0132392
-0.0134027
-0.0135712
-0.01374
-0.0139114
-0.0140887
-0.0142733
-0.0144687
-0.0146519
-0.0149113
-0.01518
0.0172974
0.0107944
0.00191844
-0.00445886
-0.00662908
-0.00636078
-0.0058468
-0.00552053
-0.00519234
-0.00483256
-0.0045151
-0.00431896
-0.00433852
-0.00454362
-0.00472745
-0.0047654
-0.00474317
-0.00475837
-0.00484307
-0.0050064
-0.00517432
-0.00526529
-0.005331
-0.00544825
-0.00559828
-0.00572535
-0.00580279
-0.00584823
-0.00591146
-0.00600964
-0.00610066
-0.00615964
-0.00621887
-0.00631141
-0.0064245
-0.00653153
-0.00663562
-0.00675219
-0.00686742
-0.00695583
-0.00703229
-0.00712264
-0.00721367
-0.00728409
-0.00736381
-0.00747895
-0.00760239
-0.0077107
-0.00781956
-0.00794186
-0.00805476
-0.00814375
-0.00823892
-0.00834919
-0.00844787
-0.00855013
-0.00867008
-0.00879013
-0.00890845
-0.00903294
-0.00915648
-0.00927772
-0.00939877
-0.00951277
-0.00962965
-0.00975434
-0.00988663
-0.0100219
-0.0101587
-0.0102917
-0.0104252
-0.0105631
-0.010702
-0.0108417
-0.0109824
-0.0111229
-0.0112669
-0.0114098
-0.0115586
-0.0117042
-0.0118512
-0.0119979
-0.0121459
-0.0122989
-0.0124522
-0.012604
-0.0127605
-0.0129147
-0.0130744
-0.0132391
-0.0134026
-0.0135711
-0.0137399
-0.0139113
-0.0140887
-0.0142732
-0.0144686
-0.0146518
-0.0149113
-0.01518
0.0163875
0.0105961
0.00211948
-0.00411974
-0.00641976
-0.00627422
-0.00579609
-0.0054828
-0.00516559
-0.00481456
-0.00450389
-0.00431234
-0.00433337
-0.00453762
-0.00472059
-0.00475905
-0.00473828
-0.00475459
-0.00483948
-0.0050027
-0.00517087
-0.00526242
-0.00532868
-0.00544625
-0.00559637
-0.00572352
-0.00580114
-0.00584672
-0.00591003
-0.00600829
-0.00609941
-0.00615848
-0.00621777
-0.00631039
-0.00642358
-0.00653069
-0.00663484
-0.00675147
-0.00686676
-0.00695519
-0.00703167
-0.00712206
-0.00721313
-0.00728355
-0.00736326
-0.00747845
-0.00760194
-0.00771026
-0.00781913
-0.00794147
-0.0080544
-0.00814339
-0.00823856
-0.00834886
-0.00844755
-0.0085498
-0.00866978
-0.00878985
-0.00890817
-0.00903268
-0.00915623
-0.00927748
-0.00939854
-0.00951255
-0.00962943
-0.00975413
-0.00988643
-0.0100217
-0.0101585
-0.0102915
-0.0104251
-0.010563
-0.0107018
-0.0108416
-0.0109822
-0.0111228
-0.0112668
-0.0114097
-0.0115585
-0.0117041
-0.0118511
-0.0119978
-0.0121458
-0.0122988
-0.0124521
-0.0126039
-0.0127604
-0.0129146
-0.0130743
-0.013239
-0.0134025
-0.013571
-0.0137398
-0.0139112
-0.0140886
-0.0142731
-0.0144686
-0.0146517
-0.0149112
-0.0151801
0.0154864
0.0103628
0.00233014
-0.0037566
-0.00618339
-0.00617144
-0.00573249
-0.00543142
-0.00512705
-0.00478813
-0.00448786
-0.00430431
-0.00432834
-0.00453073
-0.00471122
-0.00475006
-0.00473193
-0.00475048
-0.0048356
-0.00499782
-0.0051656
-0.00525804
-0.00532556
-0.00544371
-0.00559378
-0.00572094
-0.00579893
-0.00584493
-0.00590836
-0.00600657
-0.00609773
-0.00615695
-0.00621639
-0.00630909
-0.00642237
-0.00652963
-0.00663391
-0.00675061
-0.00686596
-0.00695444
-0.00703096
-0.00712138
-0.00721249
-0.00728291
-0.00736264
-0.00747788
-0.00760142
-0.00770977
-0.00781866
-0.00794103
-0.00805399
-0.00814298
-0.00823816
-0.00834848
-0.00844718
-0.00854944
-0.00866945
-0.00878954
-0.00890786
-0.00903239
-0.00915596
-0.00927722
-0.00939829
-0.00951231
-0.00962919
-0.0097539
-0.00988621
-0.0100215
-0.0101583
-0.0102913
-0.0104249
-0.0105628
-0.0107016
-0.0108414
-0.0109821
-0.0111226
-0.0112666
-0.0114096
-0.0115583
-0.011704
-0.011851
-0.0119977
-0.0121457
-0.0122987
-0.012452
-0.0126038
-0.0127603
-0.0129145
-0.0130742
-0.0132389
-0.0134024
-0.013571
-0.0137397
-0.0139111
-0.0140885
-0.0142731
-0.0144685
-0.0146516
-0.0149111
-0.0151802
0.0145994
0.010099
0.00253343
-0.00338948
-0.0059345
-0.00606243
-0.00566573
-0.00537411
-0.00508128
-0.00475548
-0.00446777
-0.00429468
-0.00432296
-0.00452275
-0.00469948
-0.00473856
-0.00472415
-0.00474616
-0.00483178
-0.00499206
-0.00515851
-0.00525195
-0.00532137
-0.00544032
-0.00559009
-0.00571715
-0.00579584
-0.00584271
-0.00590642
-0.00600444
-0.00609554
-0.00615501
-0.00621465
-0.00630737
-0.00642071
-0.0065282
-0.00663272
-0.00674952
-0.00686495
-0.00695354
-0.00703014
-0.00712057
-0.00721168
-0.00728214
-0.00736192
-0.0074772
-0.00760079
-0.00770919
-0.00781812
-0.00794051
-0.0080535
-0.00814251
-0.00823769
-0.00834805
-0.00844676
-0.00854903
-0.00866908
-0.00878918
-0.00890752
-0.00903206
-0.00915565
-0.00927692
-0.00939801
-0.00951203
-0.00962891
-0.00975363
-0.00988596
-0.0100213
-0.0101581
-0.0102911
-0.0104247
-0.0105626
-0.0107015
-0.0108412
-0.0109819
-0.0111225
-0.0112665
-0.0114094
-0.0115582
-0.0117039
-0.0118508
-0.0119975
-0.0121456
-0.0122985
-0.0124519
-0.0126037
-0.0127602
-0.0129144
-0.0130741
-0.0132388
-0.0134023
-0.0135709
-0.0137397
-0.0139111
-0.0140884
-0.014273
-0.0144684
-0.0146515
-0.0149109
-0.0151804
0.0137384
0.00980532
0.00271808
-0.0030251
-0.00567466
-0.00594776
-0.00559829
-0.00531423
-0.00503096
-0.00471844
-0.00444457
-0.00428346
-0.00431682
-0.00451375
-0.00468608
-0.00472534
-0.00471531
-0.00474172
-0.00482819
-0.00498591
-0.00515021
-0.00524458
-0.00531623
-0.00543597
-0.00558507
-0.00571185
-0.00579157
-0.00583986
-0.00590411
-0.00600183
-0.00609282
-0.00615272
-0.00621266
-0.00630523
-0.00641848
-0.00652626
-0.00663113
-0.00674807
-0.00686359
-0.00695241
-0.0070292
-0.00711962
-0.00721068
-0.0072812
-0.00736105
-0.00747635
-0.00759999
-0.00770849
-0.00781749
-0.0079399
-0.00805291
-0.00814196
-0.00823716
-0.00834753
-0.00844625
-0.00854856
-0.00866864
-0.00878876
-0.00890712
-0.00903169
-0.0091553
-0.00927657
-0.00939768
-0.00951171
-0.00962859
-0.00975333
-0.00988567
-0.010021
-0.0101578
-0.0102909
-0.0104244
-0.0105624
-0.0107012
-0.010841
-0.0109817
-0.0111223
-0.0112663
-0.0114092
-0.011558
-0.0117037
-0.0118507
-0.0119974
-0.0121454
-0.0122984
-0.0124517
-0.0126036
-0.0127601
-0.0129143
-0.013074
-0.0132387
-0.0134022
-0.0135708
-0.0137396
-0.013911
-0.0140883
-0.0142729
-0.0144683
-0.0146514
-0.0149107
-0.0151806
0.0129105
0.00948038
0.0028774
-0.00266451
-0.00540071
-0.00582418
-0.00552959
-0.00525281
-0.00497725
-0.00467785
-0.00441867
-0.00427057
-0.00430977
-0.00450397
-0.00467167
-0.00471104
-0.00470572
-0.00473705
-0.00482467
-0.00497961
-0.00514138
-0.00523661
-0.00531057
-0.00543085
-0.00557881
-0.00570504
-0.00578603
-0.00583625
-0.00590127
-0.00599863
-0.00608957
-0.00615015
-0.00621056
-0.00630284
-0.00641576
-0.00652378
-0.00662906
-0.00674611
-0.00686172
-0.00695094
-0.00702809
-0.00711852
-0.0072095
-0.00728011
-0.00736004
-0.00747529
-0.00759893
-0.00770759
-0.00781672
-0.00793915
-0.00805219
-0.00814132
-0.00823656
-0.00834692
-0.00844565
-0.008548
-0.00866812
-0.00878826
-0.00890665
-0.00903126
-0.00915489
-0.00927618
-0.0093973
-0.00951133
-0.00962822
-0.00975297
-0.00988533
-0.0100207
-0.0101575
-0.0102906
-0.0104242
-0.0105621
-0.010701
-0.0108408
-0.0109815
-0.0111221
-0.0112661
-0.011409
-0.0115579
-0.0117035
-0.0118505
-0.0119972
-0.0121453
-0.0122983
-0.0124516
-0.0126034
-0.0127599
-0.0129142
-0.0130738
-0.0132386
-0.0134021
-0.0135707
-0.0137394
-0.0139108
-0.0140882
-0.0142728
-0.0144682
-0.0146512
-0.0149105
-0.0151809
0.0121187
0.00912691
0.00300987
-0.00230666
-0.0051099
-0.00568931
-0.00545969
-0.0051913
-0.0049213
-0.00463421
-0.00439015
-0.00425598
-0.00430185
-0.00449364
-0.00465659
-0.00469599
-0.0046955
-0.00473199
-0.00482098
-0.00497316
-0.00513232
-0.00522843
-0.00530473
-0.00542529
-0.00557165
-0.00569705
-0.00577941
-0.00583186
-0.00589784
-0.00599483
-0.00608576
-0.00614733
-0.00620846
-0.00630041
-0.00641279
-0.00652092
-0.00662654
-0.00674359
-0.00685925
-0.006949
-0.0070267
-0.00711722
-0.00720814
-0.00727892
-0.00735894
-0.00747402
-0.00759759
-0.00770645
-0.00781575
-0.00793818
-0.0080513
-0.00814059
-0.00823588