/*--------------------------------*- C++ -*----------------------------------*\
| =========                 |                                                 |
| \\      /  F ield         | OpenFOAM: The Open Source CFD Toolbox           |
|  \\    /   O peration     | Version:  v1812                                 |
|   \\  /    A nd           | Web:      www.OpenFOAM.com                      |
|    \\/     M anipulation  |                                                 |
\*---------------------------------------------------------------------------*/
FoamFile
{
    version     2.0;
    format      ascii;
    class       volScalarField;
    location    "3.2";
    object      p;
}
// * * * * * * * * * * * * * * * * * * * * * * * * * * * * * * * * * * * * * //

dimensions      [0 2 -2 0 0 0 0];


internalField   nonuniform List<scalar> 
9600
(
-5.81019e-11
0.000977736
0.00185316
-0.000592032
-0.00250104
0.00118551
0.00157259
-5.7089e-05
0.00143115
0.00183025
0.00155653
0.00187333
0.00280752
0.00294555
0.00267073
0.00471794
0.00289668
0.00369892
0.00395481
0.00486776
3.51995e-06
0.000976406
0.0018383
-0.000591114
-0.00248051
0.00116729
0.00155644
-5.80522e-05
0.00142258
0.00182692
0.00156651
0.00186515
0.00282352
0.00293353
0.00268761
0.00457047
0.00291562
0.00365975
0.00396278
0.00469488
7.87692e-06
0.000973695
0.00182929
-0.000588127
-0.00245971
0.00114209
0.00153383
-5.42339e-05
0.00140895
0.00182779
0.00157415
0.00185043
0.00283946
0.00291153
0.00270578
0.00443466
0.00294782
0.00360241
0.0039642
0.00446364
1.33297e-05
0.000973143
0.00181135
-0.000583466
-0.00243634
0.00111517
0.00151215
-4.31649e-05
0.00139111
0.00183128
0.00157953
0.00182911
0.00285486
0.00288084
0.00272679
0.00429341
0.00297478
0.00354991
0.00394437
0.00424081
2.12452e-05
0.000974454
0.00178872
-0.000575789
-0.00240515
0.00108641
0.00149116
-2.59809e-05
0.00137064
0.00183749
0.00158413
0.00180322
0.00287143
0.00284403
0.0027517
0.00414722
0.00299994
0.00350356
0.00389912
0.00404422
3.20045e-05
0.000976194
0.00176218
-0.000563824
-0.00236422
0.0010558
0.00147125
-3.52466e-06
0.00135127
0.00184633
0.00158865
0.00177517
0.0028887
0.00280509
0.00277857
0.0040015
0.00302578
0.00345609
0.00383417
0.00387469
4.5283e-05
0.000977645
0.00173355
-0.00054734
-0.00231392
0.0010249
0.00145423
2.38206e-05
0.00133557
0.00185718
0.00159361
0.0017463
0.00290631
0.00276648
0.00280467
0.00386115
0.00304654
0.0034079
0.00375537
0.00372052
6.04932e-05
0.00097859
0.00170444
-0.00052694
-0.00225547
0.000995633
0.00144101
5.51609e-05
0.00132422
0.00186933
0.0015993
0.00171712
0.00292412
0.00272894
0.00282897
0.00372799
0.00305772
0.00336448
0.0036616
0.00357236
7.70548e-05
0.000979023
0.00167588
-0.000503589
-0.00219029
0.000968896
0.00143115
8.90911e-05
0.00131673
0.00188215
0.00160563
0.00168782
0.00294184
0.00269307
0.00285076
0.00360266
0.0030581
0.003328
0.00355001
0.00342649
9.45605e-05
0.000979071
0.00164825
-0.000478265
-0.0021198
0.000944551
0.00142354
0.000124221
0.00131217
0.001895
0.00161238
0.00165839
0.00295901
0.00265968
0.00286863
0.00348616
0.00304664
0.00329771
0.00342165
0.0032804
0.000112813
0.000978877
0.00162141
-0.000451737
-0.00204526
0.000921962
0.00141713
0.000159559
0.00130957
0.00190737
0.00161927
0.00162882
0.00297513
0.0026295
0.00288091
0.00337959
0.00302161
0.00327258
0.00328025
0.00312974
0.000131756
0.000978519
0.00159507
-0.000424515
-0.00196764
0.000900499
0.00141117
0.000194448
0.00130817
0.00191894
0.00162601
0.00159915
0.00298967
0.00260318
0.00288591
0.00328372
0.00298166
0.00325114
0.00313046
0.00296964
0.0001514
0.000978017
0.001569
-0.000396899
-0.00188767
0.000879786
0.0014052
0.000228461
0.00130752
0.00192966
0.00163229
0.00156955
0.00300204
0.00258148
0.00288202
0.00319881
0.00292649
0.00323057
0.00297781
0.00279707
0.000171768
0.000977366
0.00154306
-0.000369031
-0.00180584
0.000859682
0.0013989
0.000261429
0.00130743
0.00193966
0.00163779
0.0015403
0.00301157
0.00256496
0.00286785
0.00312455
0.00285725
0.00320676
0.00282821
0.00261147
0.000192885
0.000976543
0.00151724
-0.000340965
-0.00172249
0.000840176
0.00139211
0.000293391
0.0013078
0.00194926
0.00164217
0.00151178
0.00301763
0.00255393
0.00284234
0.00305983
0.00277649
0.00317504
0.0026869
0.00241412
0.00021477
0.000975524
0.00149155
-0.000312702
-0.00163786
0.000821324
0.00138477
0.000324484
0.00130859
0.00195883
0.00164507
0.00148427
0.00301974
0.00254865
0.00280489
0.00300255
0.00268745
0.00313101
0.00255782
0.002208
0.000237443
0.000974289
0.00146609
-0.000284222
-0.00155215
0.000803227
0.00137684
0.000354881
0.00130966
0.00196882
0.00164616
0.00145798
0.00301741
0.002549
0.00275574
0.00295001
0.00259342
0.0030712
0.00244303
0.0019973
0.000260924
0.000972816
0.00144094
-0.000255473
-0.00146558
0.000785989
0.00136826
0.000384789
0.00131081
0.00197964
0.00164531
0.00143298
0.0030102
0.00255439
0.0026958
0.00289933
0.00249749
0.00299356
0.00234254
0.00178674
0.000285231
0.000971085
0.00141618
-0.000226372
-0.00137838
0.000769729
0.00135897
0.000414445
0.00131181
0.00199151
0.00164251
0.00140919
0.00299802
0.002564
0.00262555
0.00284763
0.00240209
0.00289788
0.00225485
0.00158139
0.000310375
0.000969093
0.0013919
-0.000196835
-0.00129078
0.000754637
0.00134887
0.000444068
0.00131245
0.00200454
0.00163786
0.00138628
0.00298118
0.00257689
0.00254825
0.00279232
0.00230886
0.00278526
0.00217747
0.00138673
0.000336357
0.000966871
0.00136816
-0.000166778
-0.00120311
0.000740959
0.00133789
0.000473796
0.00131243
0.0020188
0.00163164
0.00136354
0.00296019
0.00259211
0.00247041
0.00273136
0.0022191
0.00265719
0.00210694
0.00120819
0.000363163
0.000964471
0.00134502
-0.000136058
-0.0011157
0.000728927
0.00132597
0.000503748
0.00131148
0.00203413
0.00162461
0.00134014
0.00293535
0.00260872
0.00238831
0.00266361
0.00213409
0.0025151
0.00203892
0.0010506
0.000390762
0.000961987
0.00132249
-0.000104525
-0.00102883
0.000718738
0.00131301
0.000534091
0.00130937
0.00204999
0.00161777
0.00131536
0.00290677
0.00262615
0.00230257
0.00258836
0.00205492
0.00236076
0.00196895
0.000917617
0.000419095
0.00095956
0.00130056
-7.20477e-05
-0.000942793
0.00071059
0.00129897
0.000564852
0.00130619
0.00206571
0.00161197
0.00128858
0.00287438
0.00264436
0.00221361
0.00250452
0.00198245
0.00219698
0.00189296
0.000811221
0.000448071
0.000957394
0.00127923
-3.84861e-05
-0.000857878
0.000704609
0.00128387
0.000595866
0.00130241
0.00208055
0.0016079
0.00125955
0.00283767
0.00266316
0.00212233
0.00241082
0.00191749
0.00202769
0.00180709
0.000731839
0.000477561
0.000955771
0.00125843
-3.7466e-06
-0.00077428
0.000700841
0.00126789
0.000626866
0.00129843
0.00209377
0.00160616
0.00122832
0.00279594
0.00268202
0.0020298
0.0023061
0.00186064
0.00185781
0.00170736
0.000678646
0.00050742
0.000955022
0.00123812
3.21936e-05
-0.000692235
0.000699425
0.00125143
0.000657376
0.0012946
0.00210486
0.00160695
0.00119502
0.00274855
0.00270074
0.0019373
0.00218902
0.00181174
0.00169341
0.00158949
0.00064791
0.000537464
0.000955528
0.00121831
6.93387e-05
-0.000611874
0.000700219
0.00123489
0.00068689
0.00129115
0.00211341
0.00161033
0.00116021
0.00269442
0.00271892
0.00184674
0.0020585
0.00176908
0.00154164
0.00145025
0.00063053
0.000567475
0.000957707
0.00119895
0.000107687
-0.000533127
0.000702689
0.00121892
0.000715189
0.0012881
0.00211898
0.00161617
0.00112454
0.00263252
0.0027356
0.00176026
0.0019142
0.00172894
0.0014102
0.00129085
0.000612107
0.000597224
0.000961971
0.00118006
0.000147088
-0.000455903
0.000706563
0.00120441
0.00074215
0.00128511
0.00212143
0.00162421
0.00108842
0.00256223
0.00274937
0.00168024
0.00175691
0.00168594
0.00130542
0.00111925
0.000575915
0.000626467
0.000968714
0.00116185
0.00018716
-0.000379903
0.000711309
0.00119188
0.000767772
0.00128159
0.00212069
0.00163446
0.00105251
0.00248284
0.00275845
0.00160917
0.00158869
0.00163421
0.00122961
0.000948997
0.000508805
0.000654942
0.000978311
0.00114457
0.000227451
-0.000304583
0.000715772
0.00118149
0.00079273
0.00127663
0.0021162
0.00164679
0.00101758
0.00239383
0.00276144
0.0015486
0.00141238
0.00156864
0.00117968
0.000794113
0.000408589
0.00068242
0.000991076
0.00112858
0.000267426
-0.000229205
0.000719157
0.0011731
0.000818278
0.0012696
0.00210684
0.00166069
0.000984483
0.00229497
0.00275643
0.00149701
0.00123172
0.00148576
0.0011487
0.000665049
0.000285437
0.000708754
0.00100718
0.0011142
0.00030616
-0.000153218
0.000721091
0.00116596
0.000845704
0.00126074
0.00209127
0.00167529
0.000954442
0.00218633
0.002741
0.00145523
0.00105098
0.00138391
0.00112964
0.000565944
0.000154516
0.000733799
0.00102661
0.00109925
0.000342748
-7.66251e-05
0.000702741
0.00115889
0.000875828
0.00125049
0.00206827
0.00168961
0.000928728
0.00206872
0.00271297
0.00143331
0.000874627
0.00126211
0.00111703
0.00049677
2.85219e-05
0.000757414
0.00104903
0.00108918
0.000376889
3.42733e-07
0.000704253
0.00115052
0.000908438
0.00124012
0.0020369
0.00170233
0.000908451
0.00194364
0.00266989
0.00142725
0.000708165
0.00111954
0.00110585
0.000457562
-8.42076e-05
0.000779664
0.00107357
0.00108787
0.000408717
7.67803e-05
0.000709373
0.00113991
0.000942353
0.0012309
0.0019966
0.00171144
0.000894314
0.0018129
0.00260986
0.00143561
0.000558317
0.000956104
0.00108902
0.000448884
-0.00017706
0.000800815
0.00109902
0.00109439
0.000439446
0.000151085
0.000718192
0.00112709
0.000976118
0.0012233
0.00194748
0.00171488
0.000886512
0.00167887
0.00253263
0.0014556
0.000431852
0.000774346
0.00105723
0.000469328
-0.000242274
0.000821157
0.00112431
0.0011088
0.000470881
0.000221587
0.000730456
0.00111228
0.00100783
0.00121753
0.00189111
0.0017114
0.00088516
0.00154474
0.00243598
0.00148171
0.000334734
0.000581206
0.00100094
0.000511971
-0.000271659
0.000841021
0.00114877
0.00113165
0.000504742
0.000287134
0.000745719
0.00109572
0.00103524
0.00121472
0.00183066
0.00170033
0.000889745
0.00141409
0.0023206
0.00150777
0.000269905
0.00038626
0.000913041
0.000564246
-0.000259861
0.000860978
0.00117155
0.00116262
0.000542978
0.000347221
0.000762878
0.00107769
0.0010562
0.00121508
0.00177004
0.00168167
0.000898538
0.00129008
0.00218905
0.00152812
0.000236809
0.000199037
0.000791319
0.000610725
-0.000207642
0.000882186
0.00119186
0.00119974
0.000587504
0.000402536
0.000780884
0.00105829
0.00106827
0.00121834
0.00171323
0.0016578
0.000910168
0.00117475
0.00204446
0.00153791
0.000233217
2.85026e-05
0.000639089
0.000636804
-0.000123166
0.000905604
0.0012093
0.00123859
0.000639676
0.000454245
0.000799784
0.00103714
0.00106807
0.00121808
0.0016622
0.00163323
0.000924657
0.00106976
0.00189002
0.00153279
0.000255414
-0.000116472
0.000464283
0.000631925
-1.99611e-05
0.000931757
0.00122415
0.00127796
0.000700444
0.000502695
0.000817924
0.00101683
0.00105435
0.00121029
0.00161727
0.00160962
0.000941688
0.000976691
0.00172908
0.00150901
0.000296964
-0.000228181
0.00027727
0.000589799
8.50904e-05
0.000961479
0.00123681
0.00131957
0.000769493
0.000547235
0.000828341
0.00100017
0.00103865
0.00119939
0.00157651
0.0015857
0.000959371
0.000896132
0.00156596
0.00146425
0.00034919
-0.000301699
9.05846e-05
0.000509164
0.000175487
0.000995171
0.00124808
0.00135694
0.000842706
0.000588821
0.000834579
0.000991773
0.00102678
0.00118414
0.00153315
0.00155824
0.00097663
0.000828918
0.00140562
0.00139841
0.000402585
-0.000337169
-8.26047e-05
0.000395133
0.000238451
0.00103279
0.00125944
0.0013854
0.000917501
0.000632471
0.000837931
0.000987613
0.00101966
0.00116423
0.0014849
0.00152618
0.000994021
0.000775986
0.00125089
0.00131361
0.000449003
-0.000339817
-0.000231012
0.000258155
0.000267009
0.00107426
0.00127165
0.00140669
0.000992618
0.000680339
0.000837976
0.000984176
0.00101741
0.00114338
0.001433
0.00148941
0.00101045
0.000736412
0.00110619
0.00121453
0.000482918
-0.0003175
-0.00034757
0.000110336
0.000259309
0.00111929
0.00128583
0.00142249
0.00106535
0.000732207
0.000835957
0.000979729
0.00101982
0.00112563
0.00137916
0.00144714
0.00102383
0.000708726
0.000975799
0.00110704
0.000500747
-0.000279112
-0.000429642
-3.60428e-05
0.000217957
0.00116754
0.00130308
0.00143214
0.00113233
0.000788362
0.000834403
0.000972843
0.0010254
0.00111267
0.00132576
0.00139945
0.00103263
0.000691812
0.000861369
0.000995715
0.000501668
-0.000233351
-0.000478008
-0.000168706
0.000150517
0.00121846
0.00132508
0.00143632
0.00119067
0.000848726
0.000836128
0.000962651
0.0010314
0.00110506
0.0012762
0.00134705
0.00103547
0.000685317
0.000763891
0.000884754
0.000488275
-0.000186471
-0.000496947
-0.000278606
6.70477e-05
0.00127127
0.001352
0.00143657
0.00123846
0.000912263
0.000844251
0.000946592
0.00103448
0.00110243
0.00123294
0.00129193
0.00102908
0.000684654
0.000684267
0.000779227
0.000463775
-0.000143306
-0.000494623
-0.000362591
-2.17685e-05
0.0013249
0.00138357
0.00143474
0.00127539
0.00097739
0.000860689
0.000931304
0.00103215
0.00110294
0.00119763
0.00123871
0.00101551
0.00068482
0.000620845
0.000681699
0.000429844
-0.000106653
-0.000478338
-0.000420716
-0.000103918
0.001378
0.00141856
0.00143494
0.00130276
0.00104063
0.000885857
0.000917067
0.0010233
0.00110316
0.00117071
0.00118984
0.000996156
0.000683944
0.000569785
0.000593042
0.000389242
-7.66523e-05
-0.000451156
-0.000454209
-0.000170103
0.00142952
0.00145654
0.00143973
0.00132212
0.00109793
0.000919083
0.000907209
0.00100804
0.00109978
0.00115105
0.00114644
0.000973264
0.000682887
0.00053039
0.000514965
0.000345371
-5.38658e-05
-0.000416703
-0.000467921
-0.000218515
0.00147904
0.0014962
0.00145036
0.00133559
0.00114658
0.000958489
0.000904644
0.000989156
0.00109063
0.00113577
0.00111298
0.000950358
0.000681363
0.000502438
0.000448567
0.000300109
-3.91012e-05
-0.000379266
-0.000466573
-0.000250784
0.00152652
0.00153639
0.00146672
0.0013457
0.0011854
0.0010004
0.000911131
0.00097035
0.00107454
0.00112311
0.00108852
0.000932105
0.000679863
0.000483544
0.000394739
0.000255689
-3.15083e-05
-0.000340876
-0.000451843
-0.000268141
0.00157214
0.00157616
0.00148812
0.001355
0.00121433
0.0010409
0.000926581
0.00095536
0.00105329
0.00110631
0.00106994
0.000919328
0.000680974
0.00047237
0.000353816
0.000215313
-3.01903e-05
-0.00030343
-0.000425517
-0.000272104
0.00161601
0.00161442
0.00151346
0.00136573
0.00123453
0.00107715
0.000949354
0.000946761
0.00103043
0.00108674
0.00105342
0.000910388
0.000685877
0.000469855
0.000325635
0.000182362
-3.33273e-05
-0.000269878
-0.000390773
-0.00026362
0.00165826
0.0016508
0.00154101
0.00137914
0.0012483
0.00110693
0.000976574
0.000946016
0.00101
0.00106501
0.00103802
0.00090429
0.000693082
0.000475592
0.000310022
0.000159004
-3.66286e-05
-0.000241478
-0.000351038
-0.000242586
0.0016989
0.00168512
0.00156888
0.00139532
0.00125851
0.00112956
0.00100489
0.000960054
0.000995844
0.00104275
0.0010229
0.00090145
0.000702409
0.000487496
0.000306652
0.000146023
-3.61173e-05
-0.000216514
-0.000310021
-0.000210506
0.00173769
0.00171724
0.00159573
0.00141371
0.00126752
0.00114573
0.00103099
0.00097481
0.000989538
0.00102409
0.00100824
0.000900684
0.000715385
0.000504536
0.000314437
0.000144254
-2.97846e-05
-0.000191677
-0.000270114
-0.000171227
0.00177428
0.00174718
0.00162082
0.00143323
0.00127673
0.00115699
0.00105298
0.000992902
0.000990674
0.0010125
0.000996541
0.000900454
0.000731398
0.000527411
0.000331788
0.000154154
-1.63751e-05
-0.000164361
-0.000230552
-0.000128293
0.00180819
0.00177499
0.00164374
0.00145244
0.00128668
0.00116539
0.00107051
0.00101171
0.000998198
0.00100828
0.000991106
0.000903637
0.000749302
0.000556144
0.000358581
0.000175618
6.1048e-06
-0.000132686
-0.000188967
-8.3042e-05
0.00183891
0.00180028
0.00166429
0.00147034
0.00129716
0.00117197
0.00108396
0.00102955
0.00101067
0.00101084
0.000992069
0.0009131
0.000771152
0.00058983
0.000395572
0.000209383
4.00949e-05
-9.35507e-05
-0.000142922
-3.38218e-05
0.0018658
0.00182263
0.0016824
0.00148627
0.0013075
0.0011784
0.00109444
0.00104566
0.00102652
0.00102076
0.000999695
0.000929137
0.000800242
0.000629755
0.000442248
0.000256096
8.65431e-05
-4.44933e-05
-9.03063e-05
2.02361e-05
0.0018884
0.00184141
0.00169761
0.00149974
0.0013169
0.00118425
0.00110303
0.0010601
0.00104393
0.00103727
0.00101589
0.000952497
0.000837655
0.000678806
0.000498666
0.00031572
0.000146272
1.65863e-05
-2.84117e-05
8.15043e-05
0.00190635
0.00185627
0.00170912
0.00150986
0.00132439
0.00118905
0.00110996
0.00107324
0.00106225
0.00105815
0.00104089
0.000985498
0.00088373
0.000738865
0.000567183
0.000389116
0.000221277
9.20803e-05
4.64768e-05
0.000153394
0.00191879
0.00186648
0.0017169
0.00151634
0.00132901
0.00119225
0.00111503
0.00108436
0.00108077
0.001082
0.00107272
0.00102995
0.000941967
0.000812864
0.000652631
0.000480054
0.000314868
0.000185307
0.000137376
0.000238608
0.00192513
0.00187081
0.00172016
0.00151843
0.00133013
0.00119295
0.0011179
0.00109326
0.00109773
0.0011071
0.00110854
0.00108308
0.0010153
0.000906308
0.000763602
0.000598721
0.000435195
0.000303362
0.000249361
0.000340453
0.00192522
0.00187065
0.0017168
0.00151494
0.00132684
0.00118964
0.00111689
0.00109921
0.00111213
0.00113126
0.00114674
0.00114002
0.00110043
0.00102384
0.000909272
0.00076447
0.000604376
0.000463993
0.000393608
0.000464586
0.00191548
0.00186123
0.0017095
0.00150811
0.0013185
0.00118131
0.00111061
0.00109959
0.00112224
0.00115275
0.00118565
0.00120057
0.0011916
0.00115839
0.00109329
0.000994762
0.00086618
0.000732056
0.000641373
0.000669727
0.0018961
0.00184441
0.00169571
0.00149388
0.00130389
0.00116763
0.00109783
0.0010894
0.00112193
0.00116954
0.00122672
0.00126954
0.00128318
0.0012821
0.00125789
0.00121068
0.00114644
0.0010768
0.00103217
0.00107015
0.00187305
0.00182239
0.00167013
0.00146811
0.00128212
0.00114974
0.00107847
0.00106372
0.00109054
0.0011502
0.00126075
0.00140317
0.00154548
0.00166716
0.00172279
0.00168266
0.00155411
0.00137991
0.0012251
0.00114422
0.00183611
0.00178494
0.00163484
0.00144122
0.0012644
0.00113181
0.00105414
0.0010266
0.00102588
0.00101784
0.00101204
0.00106085
0.00125696
0.00163764
0.00207029
0.00244112
0.00273292
0.0029693
0.00315563
0.00327453
0.00178026
0.00172824
0.00158785
0.00141073
0.0012554
0.00114035
0.00105943
0.00100561
0.000998242
0.00110091
0.00138308
0.00174689
0.00204499
0.00222524
0.00232247
0.00237983
0.00244518
0.00253821
0.00265141
0.00273059
0.00170801
0.00167252
0.00152988
0.00134883
0.00117859
0.00104607
0.000999319
0.00109115
0.00127557
0.00145214
0.00158507
0.00166873
0.00177628
0.00197145
0.00223752
0.00255662
0.0028904
0.00321967
0.00350273
0.00366709
0.00158053
0.00156827
0.00151693
0.00144141
0.00137469
0.00134283
0.00135195
0.00139901
0.00147708
0.00156931
0.00169567
0.00184761
0.00197723
0.00206444
0.00206996
0.00199925
0.00186227
0.00166341
0.00143528
0.00124173
0.00142929
0.00140809
0.00143774
0.00146184
0.00144762
0.00140039
0.0013576
0.00134451
0.00139431
0.00148454
0.00160351
0.00176195
0.0019309
0.00212456
0.00237796
0.00266419
0.00296216
0.00323851
0.00346003
0.00355697
0.00134006
0.00132739
0.00138012
0.00144857
0.00150082
0.00155215
0.00160556
0.00164363
0.00168949
0.00174565
0.00178767
0.0018684
0.00197936
0.00207325
0.00217397
0.0022839
0.00240636
0.00252878
0.00261581
0.00260845
0.00606322
0.00276867
-0.00319344
-0.00740738
-0.00784851
-0.00626072
-0.00448677
-0.00309211
-0.002052
-0.00132971
-0.000944818
-0.000764972
-0.000533312
-0.000125384
0.000356088
0.000768068
0.00107711
0.00129211
0.00147296
0.00176488
0.00219598
0.00262318
0.00297703
0.00331532
0.00368955
0.00410123
0.00450446
0.00485221
0.00516547
0.00549529
0.00583722
0.00615264
0.00643834
0.00673903
0.00709109
0.00747933
0.00787048
0.00826706
0.00868524
0.0091082
0.00951153
0.0099037
0.0102996
0.0106858
0.011051
0.0114378
0.0118707
0.0123133
0.0127477
0.0132082
0.0137045
0.0141885
0.0146505
0.0151392
0.0156392
0.0161223
0.0166244
0.0171523
0.0176831
0.0182281
0.0187902
0.0193571
0.019932
0.0205143
0.021106
0.0217153
0.0223409
0.0229773
0.0236248
0.0242794
0.0249455
0.0256301
0.0263334
0.0270512
0.0277794
0.0285193
0.0292715
0.030043
0.0308322
0.0316386
0.0324562
0.0332902
0.0341372
0.0350049
0.0358863
0.0367882
0.0377026
0.0386374
0.0395834
0.040552
0.0415329
0.0425366
0.0435509
0.0445861
0.0456306
0.0466881
0.047764
0.0488098
0.0498284
0.0508535
0.00566354
0.00268039
-0.00308589
-0.00727898
-0.00777894
-0.00622647
-0.00446392
-0.00307482
-0.0020383
-0.00131822
-0.000935097
-0.000757203
-0.000527268
-0.000120429
0.000360502
0.000772154
0.00108095
0.00129562
0.0014759
0.00176734
0.00219834
0.00262553
0.00297921
0.00331726
0.00369127
0.00410281
0.00450599
0.00485366
0.00516678
0.0054965
0.00583838
0.00615378
0.0064394
0.00673999
0.00709198
0.0074802
0.00787132
0.00826785
0.00868598
0.00910892
0.00951224
0.00990436
0.0103002
0.0106865
0.0110516
0.0114383
0.0118712
0.0123138
0.0127481
0.0132086
0.0137049
0.014189
0.0146509
0.0151396
0.0156396
0.0161227
0.0166247
0.0171527
0.0176834
0.0182284
0.0187905
0.0193574
0.0199323
0.0205145
0.0211062
0.0217155
0.0223411
0.0229776
0.023625
0.0242796
0.0249457
0.0256303
0.0263336
0.0270513
0.0277796
0.0285194
0.0292717
0.0300431
0.0308324
0.0316387
0.0324563
0.0332904
0.0341374
0.035005
0.0358864
0.0367883
0.0377027
0.0386375
0.0395835
0.0405521
0.041533
0.0425367
0.0435509
0.0445861
0.0456307
0.0466881
0.0477641
0.0488099
0.0498284
0.0508535
0.00519836
0.00257705
-0.00286456
-0.00702331
-0.00765281
-0.00617997
-0.00444124
-0.00305771
-0.00202394
-0.00130641
-0.000925087
-0.00074825
-0.000519374
-0.000113883
0.000365656
0.000776227
0.00108448
0.0012989
0.00147873
0.0017697
0.00220054
0.00262765
0.00298118
0.00331909
0.00369295
0.00410435
0.00450744
0.004855
0.00516797
0.0054976
0.00583945
0.00615478
0.00644031
0.0067408
0.00709274
0.00748096
0.00787206
0.00826854
0.00868664
0.00910957
0.00951287
0.00990496
0.0103008
0.010687
0.0110521
0.0114388
0.0118717
0.0123143
0.0127486
0.013209
0.0137053
0.0141894
0.0146513
0.0151399
0.01564
0.016123
0.016625
0.0171529
0.0176836
0.0182286
0.0187908
0.0193576
0.0199325
0.0205148
0.0211064
0.0217157
0.0223413
0.0229777
0.0236252
0.0242798
0.0249459
0.0256304
0.0263337
0.0270515
0.0277798
0.0285196
0.0292718
0.0300432
0.0308325
0.0316388
0.0324565
0.0332905
0.0341375
0.0350051
0.0358865
0.0367884
0.0377028
0.0386376
0.0395835
0.0405522
0.0415331
0.0425367
0.043551
0.0445862
0.0456308
0.0466882
0.0477642
0.04881
0.0498285
0.0508537
0.00475826
0.00249988
-0.00257144
-0.00668403
-0.00747287
-0.00611407
-0.0044109
-0.00303465
-0.00200449
-0.0012919
-0.00091389
-0.000737255
-0.000507806
-0.000103355
0.000373622
0.00078171
0.00108881
0.00130317
0.00148288
0.00177315
0.00220317
0.0026298
0.00298331
0.00332137
0.00369513
0.00410625
0.00450912
0.00485656
0.00516943
0.00549893
0.00584064
0.00615585
0.00644127
0.00674166
0.00709353
0.00748175
0.00787285
0.00826928
0.00868734
0.00911026
0.00951354
0.0099056
0.0103014
0.0106876
0.0110526
0.0114392
0.0118721
0.0123147
0.012749
0.0132094
0.0137057
0.0141898
0.0146516
0.0151403
0.0156403
0.0161233
0.0166253
0.0171532
0.0176839
0.0182289
0.018791
0.0193579
0.0199327
0.020515
0.0211066
0.0217159
0.0223415
0.0229779
0.0236254
0.02428
0.024946
0.0256306
0.0263339
0.0270516
0.0277799
0.0285197
0.029272
0.0300434
0.0308326
0.0316389
0.0324566
0.0332906
0.0341376
0.0350052
0.0358866
0.0367885
0.0377029
0.0386377
0.0395836
0.0405523
0.0415331
0.0425368
0.0435511
0.0445863
0.0456309
0.0466883
0.0477642
0.0488101
0.0498286
0.0508539
0.00434893
0.00241784
-0.00226691
-0.00631765
-0.00727027
-0.00603929
-0.00437703
-0.00300701
-0.0019799
-0.00127412
-0.000900988
-0.000723633
-0.000491787
-8.80223e-05
0.000385126
0.000789167
0.00109446
0.00130937
0.00148978
0.00177904
0.0022069
0.00263213
0.00298575
0.00332443
0.00369817
0.00410867
0.00451109
0.00485853
0.0051715
0.00550084
0.00584219
0.00615713
0.00644243
0.00674269
0.00709443
0.00748261
0.00787374
0.00827017
0.00868818
0.00911105
0.00951433
0.00990637
0.0103021
0.0106882
0.0110532
0.0114398
0.0118727
0.0123152
0.0127495
0.0132098
0.0137062
0.0141902
0.014652
0.0151406
0.0156407
0.0161237
0.0166256
0.0171536
0.0176842
0.0182291
0.0187913
0.0193581
0.019933
0.0205152
0.0211068
0.0217161
0.0223417
0.0229781
0.0236256
0.0242801
0.0249462
0.0256308
0.0263341
0.0270518
0.0277801
0.0285199
0.0292721
0.0300435
0.0308328
0.0316391
0.0324567
0.0332907
0.0341377
0.0350053
0.0358867
0.0367886
0.037703
0.0386378
0.0395837
0.0405524
0.0415332
0.0425369
0.0435512
0.0445864
0.045631
0.0466884
0.0477643
0.0488102
0.0498288
0.0508543
0.00395371
0.0023038
-0.00197211
-0.00593729
-0.00705181
-0.00595923
-0.00434238
-0.00297716
-0.00195177
-0.00125364
-0.000886456
-0.000707945
-0.000472509
-6.91307e-05
0.000399311
0.000798166
0.00110132
0.00131774
0.00150014
0.00178828
0.00221246
0.00263499
0.00298865
0.00332846
0.00370225
0.00411162
0.00451319
0.00486082
0.00517431
0.00550357
0.00584433
0.00615887
0.00644404
0.0067441
0.00709552
0.00748355
0.00787475
0.0082712
0.00868912
0.00911197
0.00951531
0.00990734
0.0103029
0.0106889
0.0110539
0.0114404
0.0118733
0.0123158
0.01275
0.0132104
0.0137067
0.0141907
0.0146525
0.0151411
0.0156411
0.0161241
0.016626
0.0171539
0.0176846
0.0182295
0.0187916
0.0193584
0.0199333
0.0205155
0.0211071
0.0217164
0.0223419
0.0229784
0.0236258
0.0242804
0.0249464
0.025631
0.0263343
0.027052
0.0277802
0.02852
0.0292723
0.0300436
0.0308329
0.0316392
0.0324568
0.0332908
0.0341378
0.0350055
0.0358868
0.0367887
0.0377031
0.0386379
0.0395838
0.0405525
0.0415333
0.042537
0.0435513
0.0445865
0.0456311
0.0466885
0.0477644
0.0488103
0.049829
0.0508548
0.00356632
0.00215654
-0.00168745
-0.00554126
-0.00681515
-0.00587254
-0.00430707
-0.00294601
-0.00192086
-0.00123055
-0.000870232
-0.000690823
-0.000451438
-4.84242e-05
0.000414708
0.000807714
0.00110877
0.00132786
0.0015137
0.00180092
0.00222021
0.00263886
0.00299233
0.0033336
0.00370743
0.00411509
0.00451527
0.00486319
0.00517766
0.00550705
0.00584715
0.00616125
0.0064464
0.00674618
0.00709698
0.00748465
0.0078759
0.00827238
0.00869012
0.00911293
0.00951648
0.00990858
0.010304
0.0106898
0.0110548
0.0114412
0.011874
0.0123164
0.0127507
0.0132111
0.0137073
0.0141913
0.0146531
0.0151417
0.0156416
0.0161245
0.0166264
0.0171544
0.017685
0.0182299
0.018792
0.0193588
0.0199336
0.0205158
0.0211074
0.0217166
0.0223422
0.0229786
0.0236261
0.0242806
0.0249466
0.0256312
0.0263345
0.0270522
0.0277804
0.0285202
0.0292724
0.0300438
0.0308331
0.0316394
0.032457
0.033291
0.034138
0.0350056
0.035887
0.0367888
0.0377032
0.038638
0.0395839
0.0405526
0.0415334
0.0425371
0.0435514
0.0445866
0.0456312
0.0466886
0.0477646
0.0488105
0.0498293
0.0508555
0.00319492
0.00198618
-0.00141218
-0.00512903
-0.00655829
-0.00577799
-0.00427145
-0.00291453
-0.00188762
-0.00120479
-0.000852254
-0.000672619
-0.000429317
-2.66863e-05
0.000430749
0.000817436
0.00111638
0.00133895
0.00152938
0.00181612
0.00222995
0.00264396
0.002997
0.00333982
0.0037136
0.00411903
0.0045173
0.00486547
0.00518121
0.00551091
0.00585037
0.00616426
0.00644969
0.00674922
0.00709909
0.00748609
0.00787732
0.00827373
0.00869111
0.00911381
0.00951774
0.00991008
0.0103052
0.0106909
0.0110559
0.0114423
0.0118748
0.0123172
0.0127514
0.0132118
0.013708
0.014192
0.0146538
0.0151423
0.0156423
0.0161251
0.016627
0.0171549
0.0176854
0.0182303
0.0187925
0.0193592
0.019934
0.0205162
0.0211078
0.021717
0.0223425
0.022979
0.0236264
0.0242809
0.0249469
0.0256314
0.0263347
0.0270524
0.0277807
0.0285204
0.0292726
0.030044
0.0308333
0.0316395
0.0324572
0.0332912
0.0341381
0.0350057
0.0358871
0.036789
0.0377034
0.0386382
0.0395841
0.0405527
0.0415336
0.0425372
0.0435515
0.0445867
0.0456313
0.0466887
0.0477647
0.0488108
0.0498298
0.0508563
0.00285012
0.00179969
-0.00115221
-0.00470475
-0.00628084
-0.00567468
-0.00423586
-0.00288348
-0.00185234
-0.00117618
-0.000832373
-0.000653414
-0.000406363
-4.04117e-06
0.000447546
0.000827574
0.00112421
0.00135052
0.0015462
0.0018329
0.00224118
0.00265025
0.00300267
0.00334698
0.00372055
0.0041234
0.0045194
0.00486771
0.00518476
0.00551472
0.00585357
0.00616758
0.00645382
0.00675331
0.00710201
0.00748807
0.00787917
0.00827539
0.00869212
0.00911452
0.00951891
0.00991168
0.0103067
0.0106923
0.0110575
0.0114438
0.0118759
0.012318
0.0127524
0.0132127
0.0137088
0.0141928
0.0146547
0.0151432
0.015643
0.0161257
0.0166276
0.0171554
0.017686
0.0182309
0.018793
0.0193598
0.0199345
0.0205167
0.0211082
0.0217174
0.0223429
0.0229793
0.0236267
0.0242812
0.0249472
0.0256317
0.026335
0.0270527
0.0277809
0.0285207
0.0292729
0.0300442
0.0308335
0.0316398
0.0324574
0.0332913
0.0341383
0.0350059
0.0358873
0.0367891
0.0377035
0.0386383
0.0395842
0.0405529
0.0415337
0.0425373
0.0435516
0.0445868
0.0456314
0.0466888
0.0477649
0.0488111
0.0498303
0.0508573
0.00253894
0.00160131
-0.000915798
-0.00427405
-0.00598245
-0.00556069
-0.00419963
-0.00285311
-0.00181516
-0.00114453
-0.000810359
-0.000633145
-0.000382592
1.95735e-05
0.000465311
0.000838428
0.00113243
0.00136239
0.00156362
0.00185068
0.00225353
0.00265753
0.0030092
0.00335491
0.00372811
0.00412815
0.00452168
0.00487002
0.0051883
0.00551834
0.00585647
0.00617087
0.00645847
0.00675831
0.00710579
0.00749067
0.00788153
0.00827747
0.00869328
0.00911509
0.00951989
0.00991318
0.0103082
0.0106938
0.0110594
0.0114458
0.0118774
0.0123191
0.0127535
0.0132138
0.0137095
0.0141936
0.0146556
0.0151441
0.0156438
0.0161266
0.0166284
0.0171561
0.0176866
0.0182315
0.0187936
0.0193604
0.0199351
0.0205172
0.0211087
0.0217179
0.0223434
0.0229798
0.0236272
0.0242816
0.0249476
0.0256321
0.0263353
0.027053
0.0277812
0.028521
0.0292731
0.0300445
0.0308337
0.03164
0.0324576
0.0332916
0.0341385
0.0350061
0.0358875
0.0367893
0.0377037
0.0386385
0.0395844
0.040553
0.0415339
0.0425375
0.0435518
0.044587
0.0456316
0.046689
0.0477651
0.0488115
0.049831
0.0508586
0.00226497
0.00139633
-0.000709712
-0.00384259
-0.00566254
-0.00543317
-0.00416142
-0.00282365
-0.00177664
-0.00110989
-0.000786057
-0.000611728
-0.00035798
4.42217e-05
0.000484176
0.000850168
0.00114119
0.00137459
0.00158153
0.00186929
0.00226682
0.00266566
0.00301647
0.00336348
0.0037362
0.00413327
0.00452418
0.00487247
0.0051919
0.00552184
0.00585907
0.00617397
0.00646335
0.00676394
0.00711029
0.00749386
0.00788438
0.00828
0.00869471
0.00911564
0.00952066
0.00991447
0.0103095
0.0106953
0.0110615