/*--------------------------------*- C++ -*----------------------------------*\
| =========                 |                                                 |
| \\      /  F ield         | OpenFOAM: The Open Source CFD Toolbox           |
|  \\    /   O peration     | Version:  v1812                                 |
|   \\  /    A nd           | Web:      www.OpenFOAM.com                      |
|    \\/     M anipulation  |                                                 |
\*---------------------------------------------------------------------------*/
FoamFile
{
    version     2.0;
    format      ascii;
    class       surfaceScalarField;
    location    "3.2";
    object      phi;
}
// * * * * * * * * * * * * * * * * * * * * * * * * * * * * * * * * * * * * * //

dimensions      [0 3 -1 0 0 0 0];
oriented        oriented;


internalField   nonuniform List<scalar> 
19000
(
1.18693e-06
-1.32617e-07
1.15715e-06
6.13909e-07
1.1157e-06
-2.37492e-08
1.16994e-06
-1.00861e-06
1.25352e-06
-5.91481e-07
1.19559e-06
2.2575e-07
1.14405e-06
6.63316e-07
1.14261e-06
6.27547e-07
1.12137e-06
-1.59287e-07
1.13499e-06
-4.69764e-07
1.16627e-06
-4.72825e-07
1.15229e-06
-6.76998e-07
1.18107e-06
-1.35713e-07
1.16127e-06
-4.4425e-07
1.18325e-06
7.04254e-08
1.15314e-06
3.23734e-08
1.16306e-06
3.01835e-07
1.13754e-06
2.79424e-07
1.12791e-06
2.64329e-07
2.38566e-07
1.10012e-06
1.24226e-06
-1.50611e-07
1.22018e-06
6.3599e-07
1.17232e-06
2.41038e-08
1.22077e-06
-1.05706e-06
1.30866e-06
-6.79366e-07
1.25653e-06
2.77877e-07
1.19533e-06
7.24517e-07
1.20548e-06
6.17393e-07
1.18227e-06
-1.36073e-07
1.19395e-06
-4.81448e-07
1.22073e-06
-4.99599e-07
1.20941e-06
-6.65681e-07
1.23282e-06
-1.59121e-07
1.2194e-06
-4.3083e-07
1.23103e-06
5.87935e-08
1.21811e-06
4.5295e-08
1.20401e-06
3.15938e-07
1.20806e-06
2.75368e-07
1.16488e-06
3.07515e-07
2.20638e-07
1.1828e-06
1.29785e-06
-1.65678e-07
1.28768e-06
6.46156e-07
1.23444e-06
7.73515e-08
1.27361e-06
-1.09623e-06
1.3606e-06
-7.66358e-07
1.32443e-06
3.14047e-07
1.25378e-06
7.95172e-07
1.26833e-06
6.02844e-07
1.2479e-06
-1.15642e-07
1.25672e-06
-4.90271e-07
1.27627e-06
-5.19145e-07
1.27249e-06
-6.61901e-07
1.28846e-06
-1.75091e-07
1.28473e-06
-4.27108e-07
1.28583e-06
5.76917e-08
1.28379e-06
4.73404e-08
1.26283e-06
3.36894e-07
1.26553e-06
2.72667e-07
1.23766e-06
3.3539e-07
2.31676e-07
1.22662e-06
1.35419e-06
-1.75769e-07
1.35591e-06
6.44438e-07
1.30156e-06
1.31707e-07
1.32998e-06
-1.12466e-06
1.40954e-06
-8.45915e-07
1.39262e-06
3.30966e-07
1.32235e-06
8.65437e-07
1.33304e-06
5.92156e-07
1.31819e-06
-1.00792e-07
1.32232e-06
-4.94399e-07
1.33463e-06
-5.3146e-07
1.33688e-06
-6.6415e-07
1.34844e-06
-1.86648e-07
1.35e-06
-4.28664e-07
1.34842e-06
5.92661e-08
1.34751e-06
4.82559e-08
1.33283e-06
3.51577e-07
1.32641e-06
2.7908e-07
1.31314e-06
3.48662e-07
2.51907e-07
1.29291e-06
1.41253e-06
-1.79946e-07
1.4233e-06
6.33667e-07
1.37389e-06
1.81122e-07
1.39037e-06
-1.14114e-06
1.45709e-06
-9.12632e-07
1.45774e-06
3.30311e-07
1.39954e-06
9.2364e-07
1.40274e-06
5.88955e-07
1.39283e-06
-9.08849e-08
1.39152e-06
-4.93084e-07
1.39735e-06
-5.37289e-07
1.40183e-06
-6.68635e-07
1.41158e-06
-1.96398e-07
1.41408e-06
-4.31162e-07
1.41342e-06
5.99247e-08
1.41082e-06
5.08526e-08
1.40273e-06
3.5967e-07
1.3924e-06
2.89408e-07
1.38497e-06
3.56099e-07
2.71734e-07
1.36514e-06
1.47458e-06
-1.7885e-07
1.49052e-06
6.17731e-07
1.45123e-06
2.20407e-07
1.45511e-06
-1.14501e-06
1.50586e-06
-9.63384e-07
1.52017e-06
3.15996e-07
1.48119e-06
9.62627e-07
1.47866e-06
5.91485e-07
1.4709e-06
-8.31336e-08
1.46482e-06
-4.86997e-07
1.46479e-06
-5.37259e-07
1.46824e-06
-6.72089e-07
1.47703e-06
-2.05184e-07
1.47852e-06
-4.32653e-07
1.47863e-06
5.98114e-08
1.47456e-06
5.49272e-08
1.47072e-06
3.63509e-07
1.45995e-06
3.00174e-07
1.45632e-06
3.59731e-07
2.89862e-07
1.43819e-06
1.54171e-06
-1.74341e-07
1.55966e-06
5.99774e-07
1.5327e-06
2.47367e-07
1.52454e-06
-1.13685e-06
1.55853e-06
-9.9737e-07
1.5822e-06
2.92322e-07
1.56341e-06
9.81417e-07
1.55937e-06
5.95523e-07
1.55151e-06
-7.52712e-08
1.54176e-06
-4.7725e-07
1.53664e-06
-5.32133e-07
1.53716e-06
-6.72611e-07
1.54476e-06
-2.12789e-07
1.54466e-06
-4.32546e-07
1.54508e-06
5.93841e-08
1.53992e-06
6.00902e-08
1.53931e-06
3.64117e-07
1.52914e-06
3.10348e-07
1.52948e-06
3.59392e-07
3.05817e-07
1.51352e-06
1.6143e-06
-1.68509e-07
1.63265e-06
5.8142e-07
1.61702e-06
2.63002e-07
1.59895e-06
-1.11878e-06
1.61714e-06
-1.01557e-06
1.6461e-06
2.63367e-07
1.64446e-06
9.83058e-07
1.6425e-06
5.97482e-07
1.63391e-06
-6.66808e-08
1.62166e-06
-4.65005e-07
1.61242e-06
-5.22893e-07
1.60935e-06
-6.6954e-07
1.61525e-06
-2.18688e-07
1.6133e-06
-4.30599e-07
1.61424e-06
5.84453e-08
1.60831e-06
6.60264e-08
1.6109e-06
3.6152e-07
1.60163e-06
3.19622e-07
1.60581e-06
3.55212e-07
3.19059e-07
1.59257e-06
1.69185e-06
-1.6279e-07
1.71016e-06
5.6311e-07
1.70308e-06
2.70083e-07
1.67832e-06
-1.09402e-06
1.6829e-06
-1.02015e-06
1.71351e-06
2.32754e-07
1.72462e-06
9.71951e-07
1.72645e-06
5.95646e-07
1.71762e-06
-5.78448e-08
1.70411e-06
-4.51493e-07
1.69187e-06
-5.10659e-07
1.68532e-06
-6.62986e-07
1.68914e-06
-2.22515e-07
1.68511e-06
-4.26571e-07
1.68707e-06
5.6487e-08
1.68073e-06
7.23736e-08
1.68683e-06
3.55416e-07
1.6787e-06
3.27756e-07
1.68607e-06
3.4784e-07
3.29286e-07
1.67584e-06
1.77365e-06
-1.57718e-07
1.79188e-06
5.44878e-07
1.79047e-06
2.71492e-07
1.76236e-06
-1.0659e-06
1.75613e-06
-1.01391e-06
1.78557e-06
2.03319e-07
1.80522e-06
9.52302e-07
1.811e-06
5.89863e-07
1.80263e-06
-4.94731e-08
1.78899e-06
-4.37855e-07
1.77492e-06
-4.96592e-07
1.76537e-06
-6.53436e-07
1.76707e-06
-2.24208e-07
1.76071e-06
-4.20213e-07
1.76412e-06
5.30739e-08
1.75768e-06
7.88147e-08
1.76748e-06
3.45617e-07
1.76073e-06
3.34511e-07
1.77032e-06
3.38248e-07
3.36432e-07
1.76317e-06
1.85926e-06
-1.53224e-07
1.87729e-06
5.26838e-07
1.87946e-06
2.69328e-07
1.85066e-06
-1.03711e-06
1.8365e-06
-9.99755e-07
1.86299e-06
1.76834e-07
1.88776e-06
9.27529e-07
1.89686e-06
5.80765e-07
1.88944e-06
-4.2059e-08
1.87646e-06
-4.24872e-07
1.86163e-06
-4.81759e-07
1.84972e-06
-6.41527e-07
1.84954e-06
-2.24026e-07
1.84065e-06
-4.11332e-07
1.8457e-06
4.80244e-08
1.8393e-06
8.52192e-08
1.85257e-06
3.32347e-07
1.84737e-06
3.39714e-07
1.85804e-06
3.27578e-07
3.40512e-07
1.85396e-06
1.94866e-06
-1.49043e-07
1.96627e-06
5.09226e-07
1.97075e-06
2.64847e-07
1.94289e-06
-1.00925e-06
1.92328e-06
-9.80146e-07
1.94607e-06
1.54051e-07
1.97348e-06
9.00119e-07
1.98511e-06
5.69135e-07
1.97889e-06
-3.58382e-08
1.96687e-06
-4.12853e-07
1.95209e-06
-4.66984e-07
1.93843e-06
-6.27867e-07
1.93688e-06
-2.22478e-07
1.92541e-06
-3.9986e-07
1.93198e-06
4.14558e-08
1.92552e-06
9.1679e-08
1.94153e-06
3.1634e-07
1.93795e-06
3.43294e-07
1.94851e-06
3.17021e-07
3.41498e-07
1.94752e-06
2.0421e-06
-1.44955e-07
2.05911e-06
4.92218e-07
2.06518e-06
2.58776e-07
2.03891e-06
-9.82981e-07
2.01571e-06
-9.56945e-07
2.03478e-06
1.34979e-07
2.06324e-06
8.71664e-07
2.07678e-06
5.55596e-07
2.07183e-06
-3.08887e-08
2.06069e-06
-4.01717e-07
2.0465e-06
-4.52791e-07
2.03154e-06
-6.12903e-07
2.02924e-06
-2.20182e-07
2.01529e-06
-3.8591e-07
2.02304e-06
3.37022e-08
2.01632e-06
9.84062e-08
2.03395e-06
2.98708e-07
2.03202e-06
3.45225e-07
2.04136e-06
3.07674e-07
3.39324e-07
2.04354e-06
2.13989e-06
-1.40847e-07
2.1563e-06
4.75813e-07
2.16348e-06
2.51596e-07
2.13878e-06
-9.58284e-07
2.11326e-06
-9.31424e-07
2.12905e-06
1.19189e-07
2.15769e-06
8.43027e-07
2.1727e-06
5.40582e-07
2.16902e-06
-2.72073e-08
2.15846e-06
-3.91157e-07
2.1451e-06
-4.39428e-07
2.12908e-06
-5.96883e-07
2.12659e-06
-2.17692e-07
2.11043e-06
-3.69754e-07
2.11895e-06
2.51826e-08
2.11181e-06
1.0555e-07
2.12984e-06
2.80678e-07
2.12962e-06
3.45442e-07
2.13704e-06
3.00252e-07
3.34126e-07
2.14224e-06
2.24233e-06
-1.36685e-07
2.25828e-06
4.59864e-07
2.2662e-06
2.43677e-07
2.24269e-06
-9.34775e-07
2.21569e-06
-9.04428e-07
2.22884e-06
1.06035e-07
2.25732e-06
8.14548e-07
2.27349e-06
5.24416e-07
2.27102e-06
-2.47364e-08
2.26064e-06
-3.80783e-07
2.24816e-06
-4.26946e-07
2.23119e-06
-5.79909e-07
2.22888e-06
-2.15381e-07
2.21089e-06
-3.5177e-07
2.21978e-06
1.62987e-08
2.21227e-06
1.13061e-07
2.22961e-06
2.63336e-07
2.23125e-06
3.438e-07
2.23658e-06
2.94918e-07
3.26414e-07
2.2443e-06
2.34967e-06
-1.32478e-07
2.36537e-06
4.44162e-07
2.37374e-06
2.35311e-07
2.35093e-06
-9.11966e-07
2.32303e-06
-8.76528e-07
2.33423e-06
9.48314e-08
2.36255e-06
7.86228e-07
2.37957e-06
5.07395e-07
2.37821e-06
-2.3376e-08
2.36765e-06
-3.7022e-07
2.35598e-06
-4.15279e-07
2.3381e-06
-5.62025e-07
2.33613e-06
-2.13417e-07
2.31675e-06
-3.32385e-07
2.32564e-06
7.40469e-09
2.31804e-06
1.20661e-07
2.33388e-06
2.47502e-07
2.33757e-06
3.40111e-07
2.34101e-06
2.91473e-07
3.16918e-07
2.35051e-06
2.46216e-06
-1.28246e-07
2.4778e-06
4.28528e-07
2.48641e-06
2.26698e-07
2.46386e-06
-8.89412e-07
2.43546e-06
-8.48129e-07
2.44531e-06
8.49744e-08
2.47365e-06
7.57894e-07
2.49123e-06
4.89814e-07
2.49086e-06
-2.30054e-08
2.47981e-06
-3.59171e-07
2.46883e-06
-4.04297e-07
2.45009e-06
-5.43291e-07
2.44846e-06
-2.11785e-07
2.42813e-06
-3.12052e-07
2.43671e-06
-1.18033e-09
2.42946e-06
1.27916e-07
2.44329e-06
2.33674e-07
2.44912e-06
3.34276e-07
2.45109e-06
2.89506e-07
3.06416e-07
2.46159e-06
2.58006e-06
-1.24016e-07
2.59574e-06
4.1285e-07
2.6045e-06
2.17943e-07
2.58185e-06
-8.66767e-07
2.55325e-06
-8.19524e-07
2.5622e-06
7.60262e-08
2.59078e-06
7.29311e-07
2.60864e-06
4.71956e-07
2.60914e-06
-2.35102e-08
2.59741e-06
-3.47441e-07
2.58695e-06
-3.9384e-07
2.56749e-06
-5.23825e-07
2.56605e-06
-2.10343e-07
2.54522e-06
-2.91226e-07
2.5532e-06
-9.15868e-09
2.54676e-06
1.34355e-07
2.55839e-06
2.22047e-07
2.56626e-06
3.26399e-07
2.56733e-06
2.88444e-07
2.9565e-07
2.57809e-06
2.70363e-06
-1.19817e-07
2.71938e-06
3.97099e-07
2.72826e-06
2.09062e-07
2.70528e-06
-8.43786e-07
2.6767e-06
-7.9094e-07
2.68498e-06
6.77401e-08
2.71403e-06
7.00263e-07
2.73193e-06
4.54062e-07
2.73321e-06
-2.47992e-08
2.72073e-06
-3.34955e-07
2.71061e-06
-3.83724e-07
2.69061e-06
-5.03823e-07
2.68912e-06
-2.08854e-07
2.66825e-06
-2.70357e-07
2.67534e-06
-1.62484e-08
2.67012e-06
1.39577e-07
2.6796e-06
2.12568e-07
2.68922e-06
3.1678e-07
2.68999e-06
2.8767e-07
2.85247e-07
2.70039e-06
2.83313e-06
-1.15679e-07
2.84892e-06
3.8131e-07
2.85798e-06
2.00002e-07
2.83449e-06
-8.20299e-07
2.80612e-06
-7.62569e-07
2.81383e-06
6.0032e-08
2.84349e-06
6.70598e-07
2.86124e-06
4.36319e-07
2.86324e-06
-2.68007e-08
2.85003e-06
-3.21744e-07
2.84005e-06
-3.73747e-07
2.81977e-06
-4.8354e-07
2.81796e-06
-2.07047e-07
2.79744e-06
-2.49837e-07
2.80341e-06
-2.22214e-08
2.79965e-06
1.43346e-07
2.80721e-06
2.05007e-07
2.81817e-06
3.05814e-07
2.81919e-06
2.86653e-07
2.75645e-07
2.82879e-06
2.96885e-06
-1.11631e-07
2.98459e-06
3.65572e-07
2.99393e-06
1.90663e-07
2.9698e-06
-7.96177e-07
2.94182e-06
-7.34589e-07
2.94893e-06
5.29225e-08
2.97929e-06
6.40237e-07
2.99676e-06
4.18851e-07
2.9994e-06
-2.94393e-08
2.9856e-06
-3.07938e-07
2.97553e-06
-3.63684e-07
2.95526e-06
-4.63269e-07
2.95287e-06
-2.0466e-07
2.93301e-06
-2.2997e-07
2.93774e-06
-2.69557e-08
2.93545e-06
1.45632e-07
2.94143e-06
1.99028e-07
2.95334e-06
2.93913e-07
2.95499e-06
2.85003e-07
2.67091e-07
2.96354e-06
3.11108e-06
-1.07705e-07
3.12665e-06
3.50001e-07
3.1364e-06
1.80915e-07
3.11154e-06
-7.71316e-07
3.08412e-06
-7.07171e-07
3.09057e-06
4.64746e-08
3.12163e-06
6.09178e-07
3.13876e-06
4.01714e-07
3.14193e-06
-3.26095e-08
3.12774e-06
-2.93744e-07
3.11734e-06
-3.53288e-07
3.09736e-06
-4.43289e-07
3.09421e-06
-2.01504e-07
3.07515e-06
-2.10918e-07
3.07864e-06
-3.0441e-08
3.07773e-06
1.46546e-07
3.08244e-06
1.94311e-07
3.09495e-06
2.81406e-07
3.09748e-06
2.82476e-07
2.59673e-07
3.10489e-06
3.26014e-06
-1.03933e-07
3.27541e-06
3.34732e-07
3.28571e-06
1.70615e-07
3.26001e-06
-7.45624e-07
3.23331e-06
-6.80464e-07
3.23904e-06
4.07445e-08
3.27073e-06
5.77487e-07
3.28755e-06
3.84897e-07
3.2911e-06
-3.61594e-08
3.27677e-06
-2.79419e-07
3.26581e-06
-3.42324e-07
3.24633e-06
-4.23816e-07
3.24232e-06
-1.97488e-07
3.22411e-06
-1.92712e-07
3.22643e-06
-3.27545e-08
3.22673e-06
1.46244e-07
3.2304e-06
1.90642e-07
3.24326e-06
2.68543e-07
3.24685e-06
2.78889e-07
2.53381e-07
3.25314e-06
3.41634e-06
-1.00342e-07
3.43118e-06
3.19897e-07
3.44216e-06
1.59628e-07
3.41557e-06
-7.19034e-07
3.3897e-06
-6.54587e-07
3.39469e-06
3.57493e-08
3.42689e-06
5.45292e-07
3.44347e-06
3.68316e-07
3.4472e-06
-3.98872e-08
3.43302e-06
-2.65243e-07
3.42129e-06
-3.30594e-07
3.40245e-06
-4.04976e-07
3.39759e-06
-1.92628e-07
3.38014e-06
-1.75264e-07
3.38141e-06
-3.40193e-08
3.38278e-06
1.44868e-07
3.38555e-06
1.87874e-07
3.39851e-06
2.55581e-07
3.40337e-06
2.74033e-07
2.48151e-07
3.4086e-06
3.58003e-06
-9.69592e-08
3.5943e-06
3.05622e-07
3.6061e-06
1.47835e-07
3.57858e-06
-6.9152e-07
3.5536e-06
-6.29603e-07
3.5579e-06
3.14477e-08
3.59041e-06
5.12784e-07
3.6069e-06
3.51826e-07
3.61057e-06
-4.35583e-08
3.59681e-06
-2.51486e-07
3.58418e-06
-3.17966e-07
3.56599e-06
-3.86786e-07
3.5604e-06
-1.87034e-07
3.54356e-06
-1.5842e-07
3.54387e-06
-3.43339e-08
3.54624e-06
1.42496e-07
3.54822e-06
1.85902e-07
3.56098e-06
2.42817e-07
3.56732e-06
2.6769e-07
2.43834e-07
3.57164e-06
3.75155e-06
-9.38051e-08
3.76516e-06
2.92015e-07
3.77784e-06
1.35154e-07
3.74943e-06
-6.63107e-07
3.72533e-06
-6.05511e-07
3.72905e-06
2.77307e-08
3.76162e-06
4.80218e-07
3.77821e-06
3.35232e-07
3.78159e-06
-4.69383e-08
3.76847e-06
-2.38362e-07
3.75491e-06
-3.04404e-07
3.73728e-06
-3.69161e-07
3.73113e-06
-1.80887e-07
3.71473e-06
-1.42022e-07
3.71415e-06
-3.37527e-08
3.71749e-06
1.39159e-07
3.71885e-06
1.84539e-07
3.73099e-06
2.30676e-07
3.73898e-06
2.59706e-07
2.40126e-07
3.74269e-06
3.93128e-06
-9.08955e-08
3.94414e-06
2.79156e-07
3.95773e-06
1.2156e-07
3.92852e-06
-6.33893e-07
3.90524e-06
-5.82238e-07
3.90855e-06
2.44258e-08
3.94087e-06
4.47899e-07
3.95779e-06
3.18309e-07
3.96066e-06
-4.98066e-08
3.94831e-06
-2.26014e-07
3.93389e-06
-2.89978e-07
3.91666e-06
-3.51934e-07
3.91016e-06
-1.74383e-07
3.89409e-06
-1.2596e-07
3.89262e-06
-3.22799e-08
3.8969e-06
1.34875e-07
3.8979e-06
1.83543e-07
3.90897e-06
2.19603e-07
3.91856e-06
2.5012e-07
2.36536e-07
3.92215e-06
4.11959e-06
-8.82388e-08
4.13166e-06
2.67086e-07
4.14612e-06
1.07103e-07
4.11628e-06
-6.04055e-07
4.09368e-06
-5.59637e-07
4.09682e-06
2.12878e-08
4.12854e-06
4.16178e-07
4.14601e-06
3.00843e-07
4.14822e-06
-5.20144e-08
4.13668e-06
-2.14474e-07
4.12155e-06
-2.7485e-07
4.10452e-06
-3.34911e-07
4.09784e-06
-1.67695e-07
4.0821e-06
-1.10222e-07
4.07967e-06
-2.98468e-08
4.08484e-06
1.29705e-07
4.08578e-06
1.82597e-07
4.09546e-06
2.09921e-07
4.1063e-06
2.39282e-07
2.32424e-07
4.11041e-06
4.3169e-06
-8.58355e-08
4.32818e-06
2.55805e-07
4.34337e-06
9.1913e-08
4.31316e-06
-5.73847e-07
4.29103e-06
-5.37502e-07
4.2943e-06
1.80146e-08
4.32504e-06
3.85433e-07
4.34323e-06
2.82656e-07
4.34473e-06
-5.35117e-08
4.33391e-06
-2.03661e-07
4.31829e-06
-2.59221e-07
4.30131e-06
-3.17939e-07
4.29455e-06
-1.60935e-07
4.2792e-06
-9.48702e-08
4.27576e-06
-2.64034e-08
4.28166e-06
1.23805e-07
4.28288e-06
1.81375e-07
4.29105e-06
2.01753e-07
4.30254e-06
2.27791e-07
2.27184e-07
4.30778e-06
4.52361e-06
-8.3676e-08
4.53414e-06
2.45281e-07
4.54986e-06
7.61956e-08
4.51961e-06
-5.43602e-07
4.49768e-06
-5.15568e-07
4.50142e-06
1.42706e-08
4.53084e-06
3.56016e-07
4.5498e-06
2.63691e-07
4.55069e-06
-5.43952e-08
4.54043e-06
-1.93406e-07
4.52452e-06
-2.43307e-07
4.50748e-06
-3.00902e-07
4.5007e-06
-1.54157e-07
4.48587e-06
-8.00349e-08
4.48135e-06
-2.18906e-08
4.48781e-06
1.17346e-07
4.48958e-06
1.79605e-07
4.4963e-06
1.95037e-07
4.50778e-06
2.1631e-07
2.20465e-07
4.5145e-06
4.74018e-06
-8.17377e-08
4.75002e-06
2.35434e-07
4.76598e-06
6.0243e-08
4.7361e-06
-5.13725e-07
4.71405e-06
-4.93521e-07
4.71863e-06
9.69568e-09
4.74642e-06
3.28219e-07
4.76605e-06
2.44067e-07
4.76657e-06
-5.49178e-08
4.75669e-06
-1.83526e-07
4.74065e-06
-2.2727e-07
4.72348e-06
-2.83729e-07
4.71673e-06
-1.47406e-07
4.70253e-06
-6.58343e-08
4.69695e-06
-1.63147e-08
4.70376e-06
1.10541e-07
4.70626e-06
1.77104e-07
4.71175e-06
1.89542e-07
4.72263e-06
2.05428e-07
2.12285e-07
4.73081e-06
4.96704e-06
-7.99821e-08
4.97634e-06
2.2614e-07
4.99214e-06
4.44372e-08
4.96312e-06
-4.84704e-07
4.94061e-06
-4.71009e-07
4.94636e-06
3.94856e-09
4.97237e-06
3.02203e-07
4.99231e-06
2.24128e-07
4.99284e-06
-5.54417e-08
4.98321e-06
-1.73897e-07
4.96715e-06
-2.11208e-07
4.94979e-06
-2.6637e-07
4.9431e-06
-1.40716e-07
4.9296e-06
-5.23414e-08
4.92309e-06
-9.80408e-09
4.92995e-06
1.03683e-07
4.93332e-06
1.73734e-07
4.93789e-06
1.84976e-07
4.94782e-06
1.95497e-07
2.03053e-07
4.95705e-06
5.20469e-06
-7.83523e-08
5.21361e-06
2.17217e-07
5.22878e-06
2.92698e-08
5.20116e-06
-4.57082e-07
5.17786e-06
-4.47716e-07
5.18501e-06
-3.19661e-09
5.20935e-06
2.77858e-07
5.22906e-06
2.04425e-07
5.22991e-06
-5.62927e-08
5.22052e-06
-1.64508e-07
5.20447e-06
-1.95161e-07
5.1869e-06
-2.48805e-07
5.18026e-06
-1.34071e-07
5.16759e-06
-3.96764e-08
5.16021e-06
-2.42136e-09
5.16691e-06
9.69814e-08
5.17124e-06
1.69411e-07
5.17515e-06
1.81058e-07
5.18399e-06
1.86659e-07
1.93352e-07
5.19369e-06
5.45361e-06
-7.67742e-08
5.4624e-06
2.08431e-07
5.47631e-06
1.53607e-08
5.45069e-06
-4.31471e-07
5.4264e-06
-4.23417e-07
5.43494e-06
-1.17375e-08
5.45809e-06
2.54705e-07
5.47694e-06
1.85581e-07
5.47821e-06
-5.7567e-08
5.46915e-06
-1.55447e-07
5.45314e-06
-1.79151e-07
5.43534e-06
-2.31007e-07
5.42869e-06
-1.27423e-07
5.41699e-06
-2.7973e-08
5.40879e-06
5.77702e-09
5.41514e-06
9.06358e-08
5.42052e-06
1.64033e-07
5.424e-06
1.77577e-07
5.43177e-06
1.78888e-07
1.83725e-07
5.44139e-06
5.71434e-06
-7.51567e-08
5.72327e-06
1.99504e-07
5.73517e-06
3.46186e-09
5.71217e-06
-4.08472e-07
5.68694e-06
-3.98192e-07
5.69643e-06
-2.12268e-08
5.71922e-06
2.31917e-07
5.73675e-06
1.68053e-07
5.73824e-06
-5.90591e-08
5.72963e-06
-1.46841e-07
5.71367e-06
-1.6319e-07
5.69561e-06
-2.12944e-07
5.68887e-06
-1.20687e-07
5.67827e-06
-1.73669e-08
5.66943e-06
1.46078e-08
5.67514e-06
8.49267e-08
5.68166e-06
1.5752e-07
5.68495e-06
1.74283e-07
5.69168e-06
1.72156e-07
1.74516e-07
5.70089e-06
5.98744e-06
-7.34024e-08
5.9968e-06
1.9014e-07
6.00578e-06
-5.51393e-09
5.98597e-06
-3.88669e-07
5.96036e-06
-3.72572e-07
5.96989e-06
-3.07584e-08
5.99312e-06
2.08685e-07
6.00932e-06
1.51849e-07
6.01055e-06
-6.0284e-08
6.00241e-06
-1.38704e-07
5.98652e-06
-1.473e-07
5.96818e-06
-1.94605e-07
5.96124e-06
-1.13746e-07
5.9519e-06
-8.02502e-09
5.94274e-06
2.37655e-08
5.94753e-06
8.01408e-08
5.95515e-06
1.499e-07
5.95858e-06
1.70849e-07
5.9643e-06
1.66438e-07
1.65908e-07
5.97291e-06
6.2735e-06
-7.14185e-08
6.28359e-06
1.8006e-07
6.28921e-06
-1.11431e-08
6.27247e-06
-3.71925e-07
6.24738e-06
-3.47477e-07
6.25594e-06
-3.93222e-08
6.27995e-06
1.84673e-07
6.29509e-06
1.3671e-07
6.29543e-06
-6.06211e-08
6.28756e-06
-1.30836e-07
6.272e-06
-1.31736e-07
6.25344e-06
-1.76051e-07
6.24631e-06
-1.06614e-07
6.23841e-06
-1.2176e-10
6.22932e-06
3.28524e-08
6.23296e-06
7.64982e-08
6.24148e-06
1.41388e-07
6.24545e-06
1.66876e-07
6.25022e-06
1.6167e-07
1.58027e-07
6.2581e-06
6.57318e-06
-6.91312e-08
6.58423e-06
1.69013e-07
6.58714e-06
-1.40583e-08
6.57209e-06
-3.56868e-07
6.54859e-06
-3.23978e-07
6.55536e-06
-4.60976e-08
6.57957e-06
1.60469e-07
6.59351e-06
1.22763e-07
6.59244e-06
-5.9549e-08
6.58495e-06
-1.23346e-07
6.57037e-06
-1.17158e-07
6.55191e-06
-1.57588e-07
6.54466e-06
-9.93604e-08
6.5384e-06
6.13507e-09
6.52976e-06
4.14951e-08
6.53216e-06
7.4096e-08
6.54122e-06
1.32325e-07
6.54607e-06
1.62029e-07
6.55008e-06
1.57659e-07
1.5102e-07
6.55709e-06
6.88715e-06
-6.64916e-08
6.89938e-06
1.56785e-07
6.90014e-06
-1.48215e-08
6.88554e-06
-3.42268e-07
6.86438e-06
-3.02819e-07
6.86919e-06
-5.09034e-08
6.8924e-06
1.37254e-07
6.90517e-06
1.1e-07
6.90294e-06
-5.73234e-08
6.89584e-06
-1.16244e-07
6.8826e-06
-1.03916e-07
6.86447e-06
-1.39458e-07
6.85707e-06
-9.19591e-08
6.85249e-06
1.07062e-08
6.84469e-06
4.93015e-08
6.84582e-06
7.29632e-08
6.85501e-06
1.23135e-07
6.86094e-06
1.56103e-07
6.86452e-06
1.54075e-07
1.44999e-07
6.87054e-06
7.21611e-06
-6.34695e-08
7.22981e-06
1.43086e-07
7.22869e-06
-1.37029e-08
7.21374e-06
-3.27313e-07
7.19522e-06
-2.84297e-07
7.19836e-06
-5.40451e-08
7.22031e-06
1.15301e-07
7.23255e-06
9.77651e-08
7.22897e-06
-5.37469e-08
7.22173e-06
-1.09002e-07
7.20971e-06
-9.19005e-08
7.19213e-06
-1.21876e-07
7.18441e-06
-8.42388e-08
7.18136e-06
1.37526e-08
7.17471e-06
5.59538e-08
7.1747e-06
7.29774e-08
7.18351e-06
1.14319e-07
7.19057e-06
1.49041e-07
7.19414e-06
1.50511e-07
1.39967e-07
7.19917e-06
7.56082e-06
-6.0062e-08
7.57644e-06
1.27461e-07
7.57352e-06
-1.07842e-08
7.55772e-06
-3.11504e-07
7.54171e-06
-2.68295e-07
7.54407e-06
-5.64005e-08
7.56432e-06
9.50476e-08
7.57638e-06
8.57026e-08
7.5715e-06
-4.88632e-08
7.56338e-06
-1.00881e-07
7.55255e-06
-8.10723e-08
7.53579e-06
-1.05112e-07
7.52762e-06
-7.60723e-08
7.52579e-06
1.5588e-08
7.52049e-06
6.12516e-08
7.51953e-06
7.39353e-08
7.52755e-06
1.06303e-07
7.53558e-06
1.41008e-07
7.53952e-06
1.46568e-07
1.35762e-07
7.54373e-06
7.92207e-06
-5.63204e-08
7.93934e-06
1.10191e-07
7.93567e-06
-7.11107e-09
7.91849e-06
-2.94326e-07
7.90515e-06
-2.54951e-07
7.9074e-06
-5.86591e-08
7.92693e-06
7.5525e-08
7.93867e-06
7.39617e-08
7.93101e-06
-4.12067e-08
7.92164e-06
-9.15134e-08
7.91191e-06
-7.13401e-08
7.89626e-06
-8.94554e-08
7.88761e-06
-6.74263e-08
7.88656e-06
1.66414e-08
7.88271e-06
6.50941e-08
7.88111e-06
7.55422e-08
7.888e-06
9.94141e-08
7.89668e-06
1.32325e-07
7.9013e-06
1.41944e-07
1.32086e-07
7.90498e-06
8.30069e-06
-5.23288e-08
8.31874e-06
9.21446e-08
8.31629e-06
-4.66087e-09
8.2978e-06
-2.75838e-07
8.28649e-06
-2.43646e-07
8.28848e-06
-6.06526e-08
8.30694e-06
5.70685e-08
8.31629e-06
6.4612e-08
8.3073e-06
-3.22187e-08
8.29755e-06
-8.17579e-08
8.2887e-06
-6.24907e-08
8.27415e-06
-7.49098e-08
8.26519e-06
-5.84599e-08
8.26451e-06
1.73172e-08
8.26212e-06
6.74848e-08
8.26021e-06
7.74509e-08
8.26577e-06
9.38569e-08
8.2747e-06
1.23389e-07
8.28015e-06
1.36501e-07
1.28575e-07
8.28366e-06
8.69752e-06
-4.81907e-08
8.71581e-06
7.38625e-08
8.71493e-06
-3.78213e-09
8.69624e-06
-2.57156e-07
8.68471e-06
-2.3211e-07
8.68142e-06
-5.73667e-08
8.69203e-06
4.64655e-08
8.70439e-06
5.22484e-08
8.70103e-06
-2.88559e-08
8.69209e-06
-7.2824e-08
8.68367e-06
-5.40634e-08
8.67015e-06
-6.13903e-08
8.66107e-06
-4.93878e-08
8.66052e-06
1.78731e-08
8.65947e-06
6.85311e-08
8.65766e-06
7.92611e-08
8.66185e-06
8.96655e-08
8.67063e-06
1.14614e-07
8.67689e-06
1.30236e-07
1.24925e-07
8.68054e-06
9.11347e-06
-4.4044e-08
9.13141e-06
5.593e-08
9.13164e-06
-4.02175e-09
9.10897e-06
-2.34477e-07
9.09412e-06
-2.17266e-07
9.09345e-06
-5.66993e-08
9.104e-06
3.59185e-08
9.11612e-06
4.01318e-08
9.11419e-06
-2.69277e-08
9.10585e-06
-6.44878e-08
9.09771e-06
-4.5922e-08
9.08521e-06
-4.88912e-08
9.07614e-06
-4.03153e-08
9.07555e-06
1.84638e-08
9.07563e-06
6.84467e-08
9.07425e-06
8.06433e-08
9.0772e-06
8.67202e-08
9.0854e-06
1.06415e-07
9.09236e-06
1.23277e-07
1.20924e-07
9.09636e-06
9.54945e-06
-4.00378e-08
9.56605e-06
3.93346e-08
9.56769e-06
-5.66199e-09
9.54391e-06
-2.10693e-07
9.53024e-06
-2.03605e-07
9.53014e-06
-5.65949e-08
9.53848e-06
2.75797e-08
9.54845e-06
3.01573e-08
9.54727e-06
-2.57484e-08
9.53956e-06
-5.67735e-08
9.53185e-06
-3.82126e-08
9.52033e-06
-3.73687e-08
9.51132e-06
-3.13037e-08
9.51055e-06
1.92268e-08
9.51153e-06
6.74712e-08
9.5108e-06
8.13682e-08
9.51276e-06
8.47596e-08
9.52003e-06
9.9145e-08
9.52745e-06
1.15866e-07
1.16433e-07
9.53194e-06
1.00064e-05
-3.62862e-08
1.00211e-05
2.46343e-08
1.00247e-05
-9.29984e-09
1.00014e-05
-1.87353e-07
9.98713e-06
-1.89355e-07
9.98749e-06
-5.69497e-08
9.99422e-06
2.08421e-08
1.00021e-05
2.23239e-08
1.00011e-05
-2.4768e-08
9.99411e-06
-4.98087e-08
9.98697e-06
-3.10696e-08
9.9764e-06
-2.68026e-08
9.96755e-06
-2.2447e-08
9.96653e-06
2.02451e-08
9.96814e-06
6.58543e-08
9.96819e-06
8.13277e-08
9.96951e-06
8.34315e-08
9.97564e-06
9.3018e-08
9.98316e-06
1.08347e-07
1.11389e-07
9.9882e-06
1.04853e-05
-3.29068e-08
1.0498e-05
1.18888e-08
1.05032e-05
-1.45261e-08
1.04811e-05
-1.65191e-07
1.04659e-05
-1.74155e-07
1.04664e-05
-5.74501e-08
1.04721e-05
1.50656e-08
1.04779e-05
1.654e-08
1.04767e-05
-2.35047e-08
1.04705e-05
-4.35923e-08
1.0464e-05
-2.46193e-08
1.04544e-05
-1.72305e-08
1.04458e-05
-1.38628e-08
1.04445e-05
2.15729e-08
1.04465e-05
6.38512e-08
1.04473e-05
8.05005e-08
1.04484e-05
8.2377e-08
1.04534e-05
8.80529e-08
1.04606e-05
1.0108e-07
1.05844e-07
1.04662e-05
1.09871e-05
-2.99889e-08
1.09978e-05
1.23432e-09
1.10042e-05
-2.09579e-08
1.09836e-05
-1.44572e-07
1.09674e-05
-1.57986e-07
1.09677e-05
-5.77865e-08
1.09731e-05
9.74029e-09
1.09771e-05
1.24529e-08
1.09753e-05
-2.16435e-08
1.09696e-05
-3.79545e-08
1.0964e-05
-1.89378e-08
1.09554e-05
-8.71222e-09
1.09473e-05
-5.66697e-09
1.09456e-05
2.32122e-08
1.09478e-05
6.17031e-08
1.09493e-05
7.89751e-08
1.09504e-05
8.12779e-08
1.09543e-05
8.4101e-08
1.0961e-05
9.43791e-08
9.99437e-08
1.09669e-05
1.1513e-05
-2.75899e-08
1.15214e-05
-7.23015e-09
1.15285e-05
-2.80269e-08
1.15096e-05
-1.25629e-07
1.14927e-05
-1.41083e-07
1.14927e-05
-5.78007e-08
1.14979e-05
4.47165e-09
1.15008e-05
9.58352e-09
1.14982e-05
-1.90298e-08
1.14928e-05
-3.25915e-08
1.14879e-05
-1.39748e-08
1.14805e-05
-1.34501e-09
1.14728e-05
2.01748e-09
1.14709e-05
2.51305e-08
1.14731e-05
5.95462e-08
1.14751e-05
7.6913e-08
1.14765e-05
7.99313e-08
1.14797e-05
8.09013e-08
1.14856e-05
8.84529e-08
9.39265e-08
1.14916e-05
1.20639e-05
-2.56814e-08
1.20701e-05
-1.3446e-08
1.2077e-05
-3.48559e-08
1.206e-05
-1.08669e-07
1.2043e-05
-1.2407e-07
1.20424e-05
-5.72442e-08
1.20478e-05
-8.61183e-10
1.20499e-05
7.39969e-09
1.20466e-05
-1.56949e-08
1.20412e-05
-2.72076e-08
1.20369e-05
-9.6373e-09
1.20307e-05
4.82902e-09
1.20237e-05
9.05122e-09
1.20215e-05
2.72678e-08
1.20236e-05
5.74899e-08
1.2026e-05
7.4503e-08
1.20277e-05
7.82738e-08
1.20304e-05
7.81572e-08
1.20355e-05
8.33516e-08
8.80689e-08
1.20414e-05
1.26411e-05
-2.41908e-08
1.26448e-05
-1.71856e-08
1.26503e-05
-4.03129e-08
1.26363e-05
-9.47091e-08
1.262e-05
-1.07703e-07
1.26184e-05
-5.56602e-08
1.26236e-05
-6.11988e-09
1.26256e-05
5.43435e-09
1.26218e-05
-1.18528e-08
1.26162e-05
-2.16477e-08
1.26123e-05
-5.70464e-09
1.26072e-05
9.90617e-09
1.2601e-05
1.52706e-08
1.25987e-05
2.956e-08
1.26006e-05
5.56028e-08
1.26032e-05
7.18576e-08
1.26052e-05
7.6323e-08
1.26077e-05
7.56166e-08
1.26121e-05
7.89564e-08
8.26088e-08
1.26176e-05
1.32458e-05
-2.30168e-08
1.32468e-05
-1.82158e-08
1.32508e-05
-4.43595e-08
1.32403e-05
-8.41526e-08
1.3225e-05
-9.24504e-08
1.32221e-05
-5.27135e-08
1.32268e-05
-1.08167e-08
1.32289e-05
3.34655e-09
1.32249e-05
-7.86688e-09
1.32191e-05
-1.58706e-08
1.32153e-05
-1.9515e-09
1.32112e-05
1.40211e-08
1.32059e-05
2.06035e-08
1.32036e-05
3.18639e-08
1.32053e-05
5.39343e-08
1.32081e-05
6.90549e-08
1.32103e-05
7.41035e-08
1.32127e-05
7.31769e-08
1.32166e-05
7.50768e-08
7.77097e-08
1.32215e-05
1.38792e-05
-2.20663e-08
1.3879e-05
-1.79543e-08
1.38811e-05
-4.65047e-08
1.38731e-05
-7.62028e-08
1.38594e-05
-7.86666e-08
1.3855e-05
-4.83291e-08
1.38586e-05
-1.44178e-08
1.38608e-05
1.0889e-09
1.38572e-05
-4.17888e-09
1.38513e-05
-9.97585e-09
1.38475e-05
1.85049e-09
1.38442e-05
1.72935e-08
1.38397e-05
2.50499e-08
1.38376e-05
3.40385e-08
1.3839e-05
5.24873e-08
1.38418e-05
6.62246e-08
1.38443e-05
7.16455e-08
1.38467e-05
7.08126e-08
1.38502e-05
7.15375e-08
7.33309e-08
1.38546e-05
1.45428e-05
-2.12122e-08
1.45417e-05
-1.68312e-08
1.45421e-05
-4.68976e-08
1.45361e-05
-7.0191e-08
1.45241e-05
-6.67438e-08
1.45186e-05
-4.27499e-08
1.45206e-05
-1.64766e-08
1.45228e-05
-1.12818e-09
1.45198e-05
-1.11778e-09
1.4514e-05
-4.21764e-09
1.45101e-05
5.7649e-09
1.45074e-05
1.99945e-08
1.45038e-05
2.86269e-08
1.45019e-05
3.6018e-08
1.45031e-05
5.12145e-08
1.45059e-05
6.34464e-08
1.45086e-05
6.89931e-08
1.45109e-05
6.84582e-08
1.45142e-05
6.82671e-08
6.93069e-08
1.45182e-05
1.5238e-05
-2.03431e-08
1.52369e-05
-1.56727e-08
1.52354e-05
-4.54874e-08
1.52304e-05
-6.5187e-08
1.52205e-05
-5.68455e-08
1.52143e-05
-3.64622e-08
1.52146e-05
-1.68315e-08
1.52164e-05
-2.90017e-09
1.5214e-05
1.23248e-09
1.52088e-05
1.05786e-09
1.52048e-05
9.74488e-09
1.52024e-05
2.23862e-08
1.51996e-05
3.14045e-08
1.51979e-05
3.77208e-08
1.5199e-05
5.00897e-08
1.52017e-05
6.07256e-08
1.52045e-05
6.62101e-08
1.5207e-05
6.60357e-08
1.521e-05
6.52577e-08
6.55324e-08
1.52137e-05
1.59664e-05
-1.93685e-08
1.59655e-05
-1.47848e-08
1.59626e-05
-4.25786e-08
1.59578e-05
-6.04291e-08
1.59499e-05
-4.89199e-08
1.59435e-05
-3.00473e-08
1.59422e-05
-1.55404e-08
1.59431e-05
-3.84618e-09
1.59414e-05
2.96654e-09
1.59368e-05
5.60542e-09
1.59329e-05
1.36726e-08
1.59307e-05
2.45873e-08
1.59286e-05
3.35398e-08
1.59272e-05
3.90674e-08
1.59282e-05
4.91038e-08
1.59308e-05
5.80971e-08
1.59337e-05
6.33341e-08
1.59362e-05
6.35165e-08
1.5939e-05
6.24572e-08
6.19923e-08
1.59426e-05
1.67295e-05
-1.82353e-08
1.67287e-05
-1.39802e-08
1.67248e-05
-3.8719e-08
1.67199e-05
-5.55001e-08
1.67136e-05
-4.26595e-08
1.67076e-05
-2.40526e-08
1.6705e-05
-1.28742e-08
1.67048e-05
-3.71209e-09
1.67034e-05
4.35061e-09
1.66997e-05
9.35672e-09
1.6696e-05
1.73289e-08
1.6694e-05
2.66345e-08
1.66923e-05
3.51752e-08
1.66914e-05
4.00615e-08
1.66923e-05
4.81771e-08
1.66947e-05
5.56386e-08
1.66977e-05
6.03939e-08
1.67003e-05
6.08916e-08
1.6703e-05
5.97878e-08
5.86876e-08
1.67063e-05
1.75291e-05
-1.6949e-08
1.75285e-05
-1.33859e-08
1.7524e-05
-3.423e-08
1.75185e-05
-5.00172e-08
1.75134e-05
-3.75571e-08
1.75082e-05
-1.88031e-08
1.75046e-05
-9.31132e-09
1.75033e-05
-2.43258e-09
1.75019e-05
5.7336e-09
1.74989e-05
1.23511e-08
1.74957e-05
2.05325e-08
1.74938e-05
2.85513e-08
1.74926e-05
3.63852e-08
1.74919e-05
4.07725e-08
1.74928e-05
4.72321e-08
1.74951e-05
5.33403e-08
1.74981e-05
5.74766e-08
1.75008e-05
5.81178e-08
1.75034e-05
5.7186e-08
5.55953e-08
1.75065e-05
1.83669e-05
-1.55412e-08
1.83663e-05
-1.27553e-08
1.83617e-05
-2.95883e-08
1.83556e-05
-4.39452e-08
1.83511e-05
-3.30149e-08
1.83467e-05
-1.44201e-08
1.83427e-05
-5.35011e-09
1.83404e-05
-1.35331e-10
1.83387e-05
7.44343e-09
1.83363e-05
1.47455e-08
1.83337e-05
2.31666e-08
1.83319e-05
3.02838e-08
1.83311e-05
3.72535e-08
1.83306e-05
4.12059e-08
1.83316e-05
4.63026e-08
1.83338e-05
5.11257e-08
1.83366e-05
5.46775e-08
1.83395e-05
5.52139e-08
1.83421e-05
5.45642e-08