/*--------------------------------*- C++ -*----------------------------------*\
| =========                 |                                                 |
| \\      /  F ield         | OpenFOAM: The Open Source CFD Toolbox           |
|  \\    /   O peration     | Version:  v1812                                 |
|   \\  /    A nd           | Web:      www.OpenFOAM.com                      |
|    \\/     M anipulation  |                                                 |
\*---------------------------------------------------------------------------*/
FoamFile
{
    version     2.0;
    format      ascii;
    class       volVectorField;
    location    "3.2";
    object      U;
}
// * * * * * * * * * * * * * * * * * * * * * * * * * * * * * * * * * * * * * //

dimensions      [0 1 -1 0 0 0 0];


internalField   nonuniform List<vector> 
9600
(
(0.824 -0.00118609 0)
(1.19247 0.00651772 0)
(0.804978 -0.000676484 0)
(1.09147 -0.0125525 0)
(0.917938 -0.00740778 0)
(1.21833 0.00286259 0)
(0.840973 0.0105116 0)
(1.10337 0.0113687 0)
(0.865792 -0.00347735 0)
(1.04614 -0.00992772 0)
(0.900868 -0.0105171 0)
(1.08892 -0.0174977 0)
(0.891119 -0.00314226 0)
(1.12067 -0.0137907 0)
(0.876254 0.00285481 0)
(1.1388 0.000252976 0)
(0.846974 0.0118454 0)
(1.13034 0.0114443 0)
(0.822211 0.0113898 0)
(1.09931 0.0119657 0)
(0.834685 -0.00143116 0)
(1.18031 0.00678061 0)
(0.828542 4.44406e-06 0)
(1.07479 -0.0133713 0)
(0.924858 -0.00899344 0)
(1.20464 0.00371531 0)
(0.861212 0.011461 0)
(1.07992 0.0113057 0)
(0.899688 -0.00290319 0)
(1.02617 -0.0101982 0)
(0.926724 -0.0114762 0)
(1.06321 -0.0170627 0)
(0.918679 -0.00416869 0)
(1.08777 -0.0131657 0)
(0.911072 0.00205496 0)
(1.09298 0.00146281 0)
(0.904373 0.0120424 0)
(1.05603 0.0114628 0)
(0.921409 0.0136502 0)
(0.979593 0.0102687 0)
(0.855488 -0.00161522 0)
(1.15554 0.00704718 0)
(0.864987 0.000620241 0)
(1.05038 -0.0140188 0)
(0.93908 -0.0102966 0)
(1.17574 0.00460042 0)
(0.899412 0.0126921 0)
(1.04678 0.0111054 0)
(0.93796 -0.00245695 0)
(1.00467 -0.0105075 0)
(0.954887 -0.0120062 0)
(1.03323 -0.0169121 0)
(0.954132 -0.00472857 0)
(1.05011 -0.0129213 0)
(0.956414 0.00176857 0)
(1.04492 0.00170365 0)
(0.960168 0.0126246 0)
(1.00598 0.0115654 0)
(0.968252 0.0150509 0)
(0.960729 0.010919 0)
(0.883329 -0.00173442 0)
(1.12183 0.00710508 0)
(0.905414 0.00125331 0)
(1.02482 -0.0144545 0)
(0.956174 -0.0114327 0)
(1.13706 0.00505789 0)
(0.941831 0.0139038 0)
(1.02019 0.0108579 0)
(0.968211 -0.00213185 0)
(0.992103 -0.0106556 0)
(0.974231 -0.0123459 0)
(1.01176 -0.0169404 0)
(0.97901 -0.00503653 0)
(1.02476 -0.0129843 0)
(0.985452 0.00191463 0)
(1.01945 0.00167597 0)
(0.987451 0.0134648 0)
(0.994001 0.0117577 0)
(0.980996 0.015725 0)
(0.971146 0.012257 0)
(0.913457 -0.00180018 0)
(1.08545 0.00701994 0)
(0.942267 0.00188247 0)
(1.00476 -0.0147369 0)
(0.970332 -0.012452 0)
(1.09703 0.00513742 0)
(0.976559 0.0149957 0)
(1.00741 0.0107261 0)
(0.988043 -0.00189481 0)
(0.989767 -0.0106751 0)
(0.984476 -0.01256 0)
(1.00091 -0.0170356 0)
(0.990489 -0.00531915 0)
(1.01216 -0.0130445 0)
(0.996713 0.00201562 0)
(1.00936 0.00171863 0)
(0.995825 0.0140105 0)
(0.994037 0.0120189 0)
(0.985601 0.0162575 0)
(0.978406 0.0133833 0)
(0.94105 -0.00180979 0)
(1.05299 0.00686369 0)
(0.970917 0.00242191 0)
(0.993653 -0.0148614 0)
(0.97837 -0.0132748 0)
(1.06246 0.0049947 0)
(0.998814 0.015833 0)
(1.00625 0.0107417 0)
(1.00054 -0.00171905 0)
(0.99326 -0.0105859 0)
(0.990051 -0.0126253 0)
(0.996635 -0.0171335 0)
(0.993741 -0.00558532 0)
(1.00626 -0.0130735 0)
(0.998394 0.00199435 0)
(1.00422 0.00187163 0)
(0.996416 0.0141886 0)
(0.993951 0.0124484 0)
(0.988041 0.0165926 0)
(0.982289 0.014275 0)
(0.962801 -0.00177558 0)
(1.02885 0.00667148 0)
(0.990375 0.00281814 0)
(0.990846 -0.0148161 0)
(0.980879 -0.01386 0)
(1.03613 0.00470024 0)
(1.00973 0.016328 0)
(1.01054 0.0108241 0)
(1.00896 -0.00155897 0)
(0.99833 -0.0104032 0)
(0.99398 -0.0125565 0)
(0.995284 -0.0171808 0)
(0.993533 -0.00581576 0)
(1.00258 -0.0130857 0)
(0.99653 0.00197637 0)
(1.0001 0.00205006 0)
(0.994565 0.0142264 0)
(0.992783 0.0129452 0)
(0.989329 0.0166361 0)
(0.985194 0.0150781 0)
(0.977681 -0.00171993 0)
(1.01387 0.0064677 0)
(1.00215 0.00306875 0)
(0.993178 -0.0146222 0)
(0.980635 -0.0142198 0)
(1.01747 0.00428951 0)
(1.01292 0.0164913 0)
(1.01524 0.010884 0)
(1.01469 -0.00138963 0)
(1.00282 -0.0101544 0)
(0.99722 -0.0123798 0)
(0.995033 -0.0171418 0)
(0.992381 -0.00600271 0)
(0.999342 -0.0130564 0)
(0.993791 0.0019657 0)
(0.996442 0.00224449 0)
(0.992474 0.0141877 0)
(0.99168 0.013389 0)
(0.990397 0.0164719 0)
(0.98802 0.0158179 0)
(0.986617 -0.00166104 0)
(1.00611 0.00626428 0)
(1.00855 0.00319948 0)
(0.997289 -0.0143278 0)
(0.980269 -0.0143736 0)
(1.00467 0.0038211 0)
(1.01189 0.016392 0)
(1.0181 0.0108814 0)
(1.01809 -0.00121195 0)
(1.00602 -0.00986838 0)
(0.999905 -0.0121194 0)
(0.995184 -0.0170125 0)
(0.991307 -0.00613658 0)
(0.996223 -0.0129704 0)
(0.991123 0.00192452 0)
(0.993361 0.00246787 0)
(0.990975 0.0140213 0)
(0.991299 0.0137686 0)
(0.991835 0.0161739 0)
(0.99098 0.0164287 0)
(0.99148 -0.00160759 0)
(1.00265 0.00606247 0)
(1.01156 0.00324383 0)
(1.00105 -0.013978 0)
(0.981012 -0.0143556 0)
(0.996103 0.00334958 0)
(1.00909 0.016112 0)
(1.01885 0.0108079 0)
(1.01946 -0.00103991 0)
(1.00786 -0.00957086 0)
(1.00201 -0.0118038 0)
(0.995513 -0.0168027 0)
(0.990637 -0.00620925 0)
(0.993416 -0.0128177 0)
(0.98885 0.0018362 0)
(0.990939 0.00270999 0)
(0.990201 0.0136963 0)
(0.991664 0.0140981 0)
(0.993658 0.0157636 0)
(0.993926 0.0168655 0)
(0.994065 -0.00156056 0)
(1.00112 0.00586182 0)
(1.01258 0.00323328 0)
(1.0037 -0.013608 0)
(0.98283 -0.0142083 0)
(0.990645 0.00291027 0)
(1.00592 0.0157233 0)
(1.01806 0.0106636 0)
(1.01934 -0.000886787 0)
(1.00856 -0.00928344 0)
(1.0035 -0.0114601 0)
(0.99594 -0.0165253 0)
(0.9904 -0.00622577 0)
(0.991171 -0.0125885 0)
(0.987083 0.00169343 0)
(0.989144 0.00295185 0)
(0.989924 0.0132217 0)
(0.992392 0.0143662 0)
(0.995474 0.015276 0)
(0.996471 0.017129 0)
(0.995573 -0.00151786 0)
(1.00026 0.00566497 0)
(1.0125 0.00318876 0)
(1.0053 -0.0132439 0)
(0.985141 -0.0139675 0)
(0.987419 0.00252586 0)
(1.003 0.0152745 0)
(1.01644 0.0104644 0)
(1.01836 -0.000755169 0)
(1.0085 -0.00901699 0)
(1.00441 -0.0111093 0)
(0.996407 -0.0161978 0)
(0.990481 -0.00619766 0)
(0.989631 -0.0122799 0)
(0.985834 0.00149245 0)
(0.987867 0.0031885 0)
(0.989819 0.0126213 0)
(0.992992 0.0145623 0)
(0.996806 0.0147717 0)
(0.998225 0.017226 0)
(0.996592 -0.00147674 0)
(0.999589 0.00547443 0)
(1.01191 0.00312194 0)
(1.00614 -0.0128971 0)
(0.987393 -0.0136642 0)
(0.985696 0.00220161 0)
(1.00056 0.0147993 0)
(1.01452 0.0102271 0)
(1.01704 -0.000646908 0)
(1.00803 -0.00877128 0)
(1.00485 -0.0107678 0)
(0.996857 -0.0158338 0)
(0.990717 -0.00614047 0)
(0.988776 -0.0118914 0)
(0.985064 0.00124075 0)
(0.986983 0.00343 0)
(0.989657 0.0119355 0)
(0.993151 0.0146831 0)
(0.997392 0.0143119 0)
(0.999029 0.0171587 0)
(0.99734 -0.00143565 0)
(0.99905 0.00529111 0)
(1.01118 0.00304031 0)
(1.00652 -0.0125703 0)
(0.98927 -0.0133192 0)
(0.984913 0.00193475 0)
(0.998622 0.0143182 0)
(1.01265 0.00996243 0)
(1.01571 -0.000563215 0)
(1.00742 -0.00854025 0)
(1.00497 -0.0104453 0)
(0.997252 -0.0154389 0)
(0.990977 -0.00607476 0)
(0.988444 -0.0114265 0)
(0.984698 0.000956929 0)
(0.986386 0.0036867 0)
(0.989388 0.0112182 0)
(0.992841 0.0147187 0)
(0.997292 0.0139391 0)
(0.999035 0.0169389 0)
(0.997885 -0.00139411 0)
(0.998656 0.00511413 0)
(1.01051 0.00294887 0)
(1.00661 -0.0122606 0)
(0.990683 -0.0129472 0)
(0.984689 0.00171545 0)
(0.997197 0.0138408 0)
(1.01103 0.00967608 0)
(1.01457 -0.000503419 0)
(1.00683 -0.00831617 0)
(1.00491 -0.0101446 0)
(0.99757 -0.0150162 0)
(0.9912 -0.00601108 0)
(0.988428 -0.0109018 0)
(0.984645 0.000657234 0)
(0.986006 0.00395746 0)
(0.989088 0.010521 0)
(0.992249 0.0146646 0)
(0.996776 0.0136708 0)
(0.998587 0.0165882 0)
(0.998271 -0.00135199 0)
(0.998404 0.00494108 0)
(1.00997 0.00285123 0)
(1.00654 -0.0119625 0)
(0.99168 -0.0125576 0)
(0.984788 0.00153113 0)
(0.996253 0.0133679 0)
(1.00975 0.00937211 0)
(1.01365 -0.000466027 0)
(1.00633 -0.00809154 0)
(1.00476 -0.00986465 0)
(0.997815 -0.0145682 0)
(0.991382 -0.00595385 0)
(0.988561 -0.0103316 0)
(0.984822 0.000352916 0)
(0.985808 0.00423066 0)
(0.988867 0.00988029 0)
(0.991619 0.0145246 0)
(0.996144 0.0135025 0)
(0.998027 0.0161394 0)
(0.998536 -0.00130945 0)
(0.998269 0.00476956 0)
(1.00954 0.00274986 0)
(1.00636 -0.0116703 0)
(0.992366 -0.0121578 0)
(0.985076 0.00137112 0)
(0.995723 0.0128957 0)
(1.0088 0.00905594 0)
(1.01294 -0.00045007 0)
(1.00592 -0.00785673 0)
(1.00458 -0.00960572 0)
(0.998 -0.0140947 0)
(0.991535 -0.00591064 0)
(0.988747 -0.00972177 0)
(0.985158 6.10951e-05 0)
(0.985775 0.00449409 0)
(0.988799 0.00931477 0)
(0.991139 0.0142997 0)
(0.995604 0.0134115 0)
(0.997585 0.0156348 0)
(0.998716 -0.00126677 0)
(0.998218 0.00459801 0)
(1.0092 0.00264679 0)
(1.00614 -0.011379 0)
(0.992846 -0.0117538 0)
(0.985473 0.00122735 0)
(0.995506 0.0124218 0)
(1.00814 0.00873283 0)
(1.01239 -0.000453093 0)
(1.00559 -0.00760758 0)
(1.00439 -0.00936092 0)
(0.998148 -0.0136023 0)
(0.991677 -0.00587464 0)
(0.98895 -0.00909179 0)
(0.985602 -0.000208818 0)
(0.985896 0.00473144 0)
(0.988903 0.00883397 0)
(0.990894 0.0139927 0)
(0.995245 0.0133637 0)
(0.997354 0.0151073 0)
(0.998833 -0.00122425 0)
(0.99823 0.00442552 0)
(1.00889 0.00254302 0)
(1.00591 -0.0110845 0)
(0.993202 -0.0113492 0)
(0.985939 0.00109555 0)
(0.995485 0.0119417 0)
(1.00768 0.00840879 0)
(1.01192 -0.000474126 0)
(1.00532 -0.00734404 0)
(1.00421 -0.0091224 0)
(0.99828 -0.0130956 0)
(0.991817 -0.00583821 0)
(0.989163 -0.00845911 0)
(0.986113 -0.000448831 0)
(0.98615 0.00492521 0)
(0.989153 0.0084381 0)
(0.990883 0.0136143 0)
(0.995065 0.0133281 0)
(0.997322 0.0145814 0)
(0.9989 -0.00118214 0)
(0.99829 0.00425223 0)
(1.00858 0.00243684 0)
(1.0057 -0.0107837 0)
(0.993484 -0.0109463 0)
(0.986452 0.00097331 0)
(0.995562 0.0114509 0)
(1.00734 0.00808742 0)
(1.01148 -0.00051084 0)
(1.00508 -0.00706367 0)
(1.00401 -0.00889067 0)
(0.998414 -0.0125751 0)
(0.991956 -0.00579434 0)
(0.98939 -0.00783682 0)
(0.986661 -0.000654457 0)
(0.986511 0.00506828 0)
(0.989498 0.00811787 0)
(0.991057 0.0131793 0)
(0.995015 0.0132857 0)
(0.997427 0.0140808 0)
(0.998924 -0.00114085 0)
(0.998393 0.00407914 0)
(1.00826 0.00232749 0)
(1.00551 -0.0104758 0)
(0.99372 -0.0105485 0)
(0.987003 0.000861589 0)
(0.995673 0.0109471 0)
(1.00706 0.00776953 0)
(1.01103 -0.000559129 0)
(1.00487 -0.00676866 0)
(1.0038 -0.00866039 0)
(0.998559 -0.0120532 0)
(0.992096 -0.00573375 0)
(0.989634 -0.00723253 0)
(0.987226 -0.000819954 0)
(0.986949 0.00516697 0)
(0.989891 0.00785814 0)
(0.991356 0.0126998 0)
(0.995037 0.0132257 0)
(0.9976 0.0136289 0)
(0.998911 -0.00110047 0)
(0.998529 0.00390683 0)
(1.00792 0.00221457 0)
(1.00535 -0.0101586 0)
(0.993925 -0.0101592 0)
(0.987584 0.00076107 0)
(0.995784 0.0104311 0)
(1.00681 0.0074569 0)
(1.01057 -0.000621127 0)
(1.00466 -0.00646209 0)
(1.00356 -0.00842234 0)
(0.998718 -0.0115429 0)
(0.992236 -0.00565364 0)
(0.989894 -0.00665109 0)
(0.987794 -0.000944407 0)
(0.987439 0.0052244 0)
(0.990293 0.00764295 0)
(0.991728 0.012186 0)
(0.995092 0.0131378 0)
(0.997786 0.0132375 0)
(0.998871 -0.00106162 0)
(0.998691 0.00373721 0)
(1.00755 0.00209559 0)
(1.00521 -0.00982977 0)
(0.994109 -0.00977903 0)
(0.988187 0.00066881 0)
(0.995886 0.00990507 0)
(1.00658 0.00715043 0)
(1.01008 -0.000694314 0)
(1.00447 -0.00615053 0)
(1.00332 -0.00817143 0)
(0.998887 -0.0110471 0)
(0.99238 -0.00554827 0)
(0.990163 -0.0060963 0)
(0.988361 -0.00103755 0)
(0.98796 0.00523858 0)
(0.990684 0.00746622 0)
(0.99214 0.0116468 0)
(0.99516 0.0130056 0)
(0.997951 0.0128982 0)
(0.998817 -0.00102443 0)
(0.998863 0.00357161 0)
(1.00717 0.00196971 0)
(1.00508 -0.00949079 0)
(0.994282 -0.00940931 0)
(0.988798 0.000588335 0)
(0.995985 0.00936886 0)
(1.00634 0.00684982 0)
(1.00959 -0.000769679 0)
(1.00427 -0.00584471 0)
(1.00306 -0.0079015 0)
(0.99906 -0.010565 0)
(0.992536 -0.00541744 0)
(0.990433 -0.00556072 0)
(0.988926 -0.00110212 0)
(0.988503 0.00521302 0)
(0.991058 0.00733141 0)
(0.99257 0.0110936 0)
(0.995242 0.0128186 0)
(0.998081 0.012605 0)
(0.998763 -0.000989335 0)
(0.999032 0.00341211 0)
(1.0068 0.00183381 0)
(1.00495 -0.00913848 0)
(0.994456 -0.00905247 0)
(0.989404 0.000518453 0)
(0.996087 0.00882776 0)
(1.0061 0.00655241 0)
(1.0091 -0.000841403 0)
(1.00408 -0.00554763 0)
(1.0028 -0.00760659 0)
(0.999232 -0.0101004 0)
(0.992709 -0.005267 0)
(0.990697 -0.00504085 0)
(0.98949 -0.00112906 0)
(0.989059 0.00515144 0)
(0.991414 0.00724014 0)
(0.993006 0.0105406 0)
(0.995344 0.0125717 0)
(0.99817 0.0123578 0)
(0.998722 -0.000957045 0)
(0.999186 0.00325982 0)
(1.00644 0.00168636 0)
(1.00481 -0.00877252 0)
(0.994642 -0.00870871 0)
(0.989994 0.000458145 0)
(0.9962 0.00828179 0)
(1.00585 0.00625345 0)
(1.00861 -0.000908857 0)
(1.00387 -0.0052615 0)
(1.00256 -0.00729289 0)
(0.999397 -0.00964746 0)
(0.99291 -0.00510189 0)
(0.990951 -0.00453806 0)
(0.990053 -0.00112286 0)
(0.989626 0.00505391 0)
(0.991756 0.00718432 0)
(0.993436 0.00999925 0)
(0.995476 0.0122535 0)
(0.99822 0.012155 0)
(0.998704 -0.000926365 0)
(0.999315 0.00311489 0)
(1.0061 0.00152856 0)
(1.00465 -0.00839863 0)
(0.994845 -0.00837447 0)
(0.990561 0.000408974 0)
(0.996328 0.00773248 0)
(1.00559 0.00594748 0)
(1.00815 -0.000965131 0)
(1.00366 -0.00499365 0)
(1.00232 -0.00696304 0)
(0.99955 -0.00920171 0)
(0.99314 -0.00492553 0)
(0.991194 -0.00404896 0)
(0.990614 -0.00109545 0)
(0.990204 0.00491884 0)
(0.992086 0.00715045 0)
(0.993851 0.00948635 0)
(0.995649 0.0118514 0)
(0.998238 0.0119957 0)
(0.998709 -0.000898034 0)
(0.999419 0.00297953 0)
(1.00578 0.00135944 0)
(1.00448 -0.00801409 0)
(0.995068 -0.00805221 0)
(0.991103 0.000359478 0)
(0.996468 0.00719691 0)
(1.00531 0.00563431 0)
(1.00769 -0.0010057 0)
(1.00344 -0.00474082 0)
(1.00209 -0.00661131 0)
(0.999689 -0.00876413 0)
(0.993403 -0.00474454 0)
(0.991428 -0.00356405 0)
(0.991166 -0.00103576 0)
(0.990793 0.0047516 0)
(0.992408 0.00712996 0)
(0.994242 0.00902961 0)
(0.995869 0.0113651 0)
(0.99824 0.0118535 0)
(0.998736 -0.000872839 0)
(0.999499 0.00285311 0)
(1.00548 0.00118041 0)
(1.00429 -0.00762036 0)
(0.995307 -0.00774191 0)
(0.991624 0.000313404 0)
(0.99662 0.00667781 0)
(1.00502 0.00530419 0)
(1.00725 -0.00103732 0)
(1.00321 -0.00450238 0)
(1.00187 -0.0062497 0)
(0.999812 -0.00832683 0)
(0.993694 -0.0045574 0)
(0.991658 -0.00309327 0)
(0.991704 -0.000942223 0)
(0.991395 0.00455275 0)
(0.992729 0.00711018 0)
(0.994599 0.00864781 0)
(0.996132 0.0108127 0)
(0.998251 0.0116689 0)
(0.99878 -0.000850124 0)
(0.999561 0.00273547 0)
(1.00519 0.000994703 0)
(1.00408 -0.00722551 0)
(0.995558 -0.0074337 0)
(0.992128 0.000264311 0)
(0.996779 0.00617662 0)
(1.00473 0.00495713 0)
(1.00682 -0.00105778 0)
(1.00298 -0.00427603 0)
(1.00166 -0.00588511 0)
(0.99992 -0.00789237 0)
(0.994008 -0.00436939 0)
(0.99189 -0.00264018 0)
(0.992221 -0.000807697 0)
(0.992009 0.00432463 0)
(0.993054 0.00707301 0)
(0.994916 0.00834685 0)
(0.996426 0.0102335 0)
(0.998297 0.0113856 0)
(0.998835 -0.000829762 0)
(0.999609 0.0026263 0)
(1.00491 0.000805151 0)
(1.00387 -0.00683468 0)
(0.995813 -0.0071215 0)
(0.992618 0.000199417 0)
(0.996942 0.00570477 0)
(1.00443 0.00460237 0)
(1.00641 -0.00106811 0)
(1.00274 -0.00405256 0)
(1.00145 -0.0055131 0)
(1.00001 -0.007458 0)
(0.994341 -0.00418312 0)
(0.992128 -0.00220057 0)
(0.992712 -0.000642256 0)
(0.992633 0.00407871 0)
(0.993392 0.00700074 0)
(0.99519 0.00811515 0)
(0.996729 0.00967674 0)
(0.998396 0.010981 0)
(0.998895 -0.000812181 0)
(0.999647 0.00252524 0)
(1.00464 0.000613458 0)
(1.00366 -0.0064502 0)
(0.996067 -0.00680917 0)
(0.993095 0.000115479 0)
(0.997106 0.00526421 0)
(1.00413 0.00423802 0)
(1.006 -0.00108304 0)
(1.00251 -0.00383378 0)
(1.00124 -0.00513707 0)
(1.00009 -0.00701779 0)
(0.994687 -0.00399359 0)
(0.992373 -0.0017793 0)
(0.993172 -0.000448436 0)
(0.993261 0.00382865 0)
(0.99375 0.00688708 0)
(0.995429 0.0079333 0)
(0.99702 0.00918767 0)
(0.998551 0.0104886 0)
(0.998959 -0.000795659 0)
(0.999677 0.00242838 0)
(1.00437 0.000427082 0)
(1.00345 -0.00608059 0)
(0.996315 -0.00648742 0)
(0.993561 6.02845e-06 0)
(0.997268 0.00485002 0)
(1.00384 0.00387617 0)
(1.00561 -0.00110955 0)
(1.00229 -0.00362686 0)
(1.00104 -0.00475959 0)
(1.00015 -0.00657492 0)
(0.995045 -0.00380929 0)
(0.992629 -0.00138036 0)
(0.993598 -0.000220352 0)
(0.993887 0.00358213 0)
(0.994132 0.00673189 0)
(0.995642 0.00777622 0)
(0.997282 0.00877615 0)
(0.998745 0.0099678 0)
(0.999022 -0.000779597 0)
(0.999702 0.00233159 0)
(1.0041 0.000250674 0)
(1.00324 -0.00573563 0)
(0.996556 -0.00614191 0)
(0.994015 -0.000118397 0)
(0.997427 0.00445635 0)
(1.00354 0.00353085 0)
(1.00522 -0.00114187 0)
(1.00208 -0.00343303 0)
(1.00084 -0.00438108 0)
(1.0002 -0.00612645 0)
(0.995413 -0.00362951 0)
(0.992897 -0.00100835 0)
(0.993987 3.2848e-05 0)
(0.994502 0.00334247 0)
(0.994539 0.0065385 0)
(0.995838 0.00762612 0)
(0.997509 0.00842068 0)
(0.998956 0.00946601 0)
(0.999085 -0.000764388 0)
(0.999721 0.0022378 0)
(1.00383 9.29046e-05 0)
(1.00303 -0.00542924 0)
(0.996788 -0.00578758 0)
(0.994457 -0.000259621 0)
(0.997583 0.0040765 0)
(1.00325 0.00320771 0)
(1.00484 -0.0011728 0)
(1.00188 -0.00324354 0)
(1.00064 -0.00400043 0)
(1.00023 -0.00566968 0)
(0.995789 -0.00344768 0)
(0.993182 -0.00067035 0)
(0.994337 0.000311887 0)
(0.995099 0.00311921 0)
(0.994972 0.00631034 0)
(0.996026 0.007487 0)
(0.997701 0.0081006 0)
(0.999166 0.0090012 0)
(0.999146 -0.000748643 0)
(0.999735 0.00214224 0)
(1.00357 -3.31726e-05 0)
(1.00283 -0.00516489 0)
(0.997008 -0.00542364 0)
(0.994885 -0.000410201 0)
(0.997736 0.00368557 0)
(1.00296 0.00290928 0)
(1.00447 -0.00119685 0)
(1.0017 -0.00306804 0)
(1.00045 -0.00362211 0)
(1.00025 -0.00520424 0)
(0.99617 -0.00326142 0)
(0.993486 -0.00036897 0)
(0.994649 0.000613951 0)
(0.995667 0.00292334 0)
(0.995433 0.00603725 0)
(0.99621 0.00735602 0)
(0.997856 0.00781164 0)
(0.999366 0.00856283 0)
(0.999205 -0.000730385 0)
(0.999746 0.00203554 0)
(1.0033 -0.000115856 0)
(1.00263 -0.00493465 0)
(0.997219 -0.00505662 0)
(0.995296 -0.000548825 0)
(0.997888 0.00328009 0)
(1.00268 0.00262648 0)
(1.00411 -0.00121292 0)
(1.00153 -0.00290939 0)
(1.00027 -0.00325473 0)
(1.00024 -0.00473288 0)
(0.99655 -0.00306814 0)
(0.993814 -0.000103691 0)
(0.994924 0.000922821 0)
(0.996195 0.00276307 0)
(0.995921 0.00571525 0)
(0.996402 0.007219 0)
(0.997974 0.00756764 0)
(0.999546 0.0081429 0)
(0.999262 -0.000708472 0)
(0.999754 0.00191679 0)
(1.00303 -0.000155744 0)
(1.00244 -0.00473313 0)
(0.997422 -0.00471556 0)
(0.995688 -0.00066253 0)
(0.998037 0.00287674 0)
(1.0024 0.00235827 0)
(1.00375 -0.00121207 0)
(1.00137 -0.00275589 0)
(1.00011 -0.00290683 0)
(1.00022 -0.00425623 0)
(0.996925 -0.00286841 0)
(0.994167 0.000117146 0)
(0.99517 0.00122818 0)
(0.996673 0.00265412 0)
(0.996432 0.00535837 0)
(0.996617 0.00705081 0)
(0.998056 0.00737624 0)
(0.999697 0.00775088 0)
(0.999317 -0.00068401 0)
(0.99976 0.00178783 0)
(1.00276 -0.000169517 0)
(1.00226 -0.00454257 0)
(0.997619 -0.00440788 0)
(0.996059 -0.000748161 0)
(0.998181 0.00248086 0)
(1.00213 0.00211295 0)
(1.0034 -0.00117728 0)
(1.00123 -0.00259936 0)
(0.999955 -0.00258076 0)
(1.00018 -0.00378372 0)
(0.997288 -0.00266579 0)
(0.994545 0.000281173 0)
(0.995396 0.00151387 0)
(0.997093 0.00259887 0)
(0.996954 0.00498365 0)
(0.996868 0.00682442 0)
(0.998109 0.00722363 0)
(0.999806 0.00740858 0)
(0.999369 -0.000655593 0)
(0.999766 0.00164737 0)
(1.00249 -0.000163435 0)
(1.00208 -0.00435224 0)
(0.997809 -0.00413386 0)
(0.996408 -0.000805411 0)
(0.998322 0.00210039 0)
(1.00188 0.00188637 0)
(1.00306 -0.00110996 0)
(1.0011 -0.00244662 0)
(0.999824 -0.00228861 0)
(1.00012 -0.00332423 0)
(0.997634 -0.00245408 0)
(0.994947 0.000392033 0)
(0.995609 0.00175717 0)
(0.997448 0.00258614 0)
(0.99747 0.00461444 0)
(0.997163 0.00653629 0)
(0.998149 0.00708258 0)
(0.999862 0.00713027 0)
(0.999419 -0.000625762 0)
(0.999772 0.00148662 0)
(1.00222 -0.000134909 0)
(1.0019 -0.00415095 0)
(0.997994 -0.00389564 0)
(0.996736 -0.000846894 0)
(0.998458 0.00174483 0)
(1.00164 0.00167114 0)
(1.00273 -0.00100589 0)
(1.00098 -0.00228717 0)
(0.999715 -0.0020362 0)
(1.00006 -0.00288684 0)
(0.997959 -0.00223219 0)
(0.995369 0.000459106 0)
(0.995822 0.00195149 0)
(0.997742 0.00260438 0)
(0.997963 0.00426913 0)
(0.997504 0.00619664 0)
(0.998198 0.00692536 0)
(0.999866 0.00691704 0)
(0.999465 -0.000584875 0)
(0.999781 0.00129534 0)
(1.00197 -9.18924e-05 0)
(1.00173 -0.00393504 0)
(0.998172 -0.00368231 0)
(0.997045 -0.000889442 0)
(0.99859 0.00141241 0)
(1.00143 0.00145386 0)
(1.00241 -0.000870597 0)
(1.00087 -0.00208601 0)
(0.999628 -0.00179724 0)
(1 -0.00247614 0)
(0.99826 -0.00199679 0)
(0.995804 0.000501019 0)
(0.996041 0.00210555 0)
(0.997979 0.00265462 0)
(0.998422 0.00396653 0)
(0.997887 0.00582244 0)
(0.998278 0.00673019 0)
(0.999829 0.00674375 0)
(0.999508 -0.000547312 0)
(0.999795 0.00110103 0)
(1.00172 -5.73866e-05 0)
(1.00155 -0.00369731 0)
(0.998346 -0.00350332 0)
(0.997336 -0.000920813 0)
(0.998717 0.00107295 0)
(1.00124 0.00125166 0)
(1.00212 -0.0007197 0)
(1.00076 -0.00185449 0)
(0.999555 -0.00155943 0)
(0.999937 -0.00208506 0)
(0.998535 -0.00174866 0)
(0.996249 0.000526736 0)
(0.996276 0.00221749 0)
(0.998168 0.00273231 0)
(0.998834 0.00372049 0)
(0.998301 0.00543335 0)
(0.998402 0.0064934 0)
(0.999772 0.0065886 0)
(0.99955 -0.000506738 0)
(0.999812 0.000902523 0)
(1.00148 -3.95012e-05 0)
(1.00138 -0.00343844 0)
(0.998516 -0.00335898 0)
(0.997606 -0.000913662 0)
(0.998845 0.000832538 0)
(1.00109 0.0010475 0)
(1.00184 -0.000591495 0)
(1.00065 -0.00163204 0)
(0.999488 -0.00134597 0)
(0.999866 -0.00172388 0)
(0.998774 -0.00149748 0)
(0.99669 0.000539911 0)
(0.99653 0.00227748 0)
(0.99832 0.00281805 0)
(0.999192 0.00353152 0)
(0.998737 0.00503929 0)
(0.998588 0.00621364 0)
(0.999724 0.00642832 0)
(0.999588 -0.000461162 0)
(0.999834 0.000696896 0)
(1.00126 -2.94414e-05 0)
(1.00121 -0.00317534 0)
(0.998678 -0.00318467 0)
(0.997877 -0.000875857 0)
(0.998968 0.000687145 0)
(1.00096 0.000829467 0)
(1.0016 -0.000536249 0)
(1.00054 -0.00145298 0)
(0.999437 -0.00116245 0)
(0.999801 -0.00139746 0)
(0.998989 -0.00124352 0)
(0.997129 0.000548259 0)
(0.996811 0.00228648 0)
(0.998451 0.00288901 0)
(0.999487 0.00340046 0)
(0.999173 0.00465714 0)
(0.998832 0.00588981 0)
(0.999703 0.00624031 0)
(0.999623 -0.000421421 0)
(0.999862 0.000510873 0)
(1.00106 -4.99788e-05 0)
(1.00105 -0.00287948 0)
(0.998838 -0.00297559 0)
(0.998137 -0.000859139 0)
(0.999078 0.000532658 0)
(1.00083 0.000627289 0)
(1.00138 -0.000531612 0)
(1.00046 -0.00130242 0)
(0.99941 -0.00098191 0)
(0.999753 -0.00109169 0)
(0.999183 -0.000992733 0)
(0.997558 0.000556021 0)
(0.997117 0.00225766 0)
(0.998575 0.00293367 0)
(0.99972 0.0033216 0)
(0.999586 0.00431866 0)
(0.999127 0.00553782 0)
(0.999723 0.00602238 0)
(0.999656 -0.000380186 0)
(0.99989 0.000339598 0)
(1.00089 -9.28817e-05 0)
(1.00089 -0.00255923 0)
(0.998987 -0.0027709 0)
(0.998386 -0.000871504 0)
(0.999179 0.000404493 0)
(1.00072 0.000462339 0)
(1.00119 -0.000517656 0)
(1.00039 -0.00114711 0)
(0.999407 -0.000802564 0)
(0.999714 -0.000805175 0)
(0.999351 -0.000744884 0)
(0.997972 0.000577111 0)
(0.997447 0.00220873 0)
(0.998705 0.00295264 0)
(0.999901 0.0032791 0)
(0.999959 0.00404028 0)
(0.999456 0.00517906 0)
(0.999793 0.00577581 0)
(0.999686 -0.000345806 0)
(0.999922 0.000189829 0)
(1.00074 -0.000142143 0)
(1.00075 -0.00226404 0)
(0.999121 -0.0025664 0)
(0.998628 -0.00088444 0)
(0.999283 0.000300886 0)
(1.00062 0.000345667 0)
(1.00102 -0.00049116 0)
(1.00034 -0.00100935 0)
(0.999422 -0.000646192 0)
(0.999688 -0.000549268 0)
(0.999497 -0.000499606 0)
(0.998364 0.000616358 0)
(0.997794 0.00214227 0)
(0.99885 0.00293542 0)
(1.00004 0.00324799 0)
(1.00029 0.00381451 0)
(0.999806 0.004828 0)
(0.999919 0.00550174 0)
(0.999714 -0.000312744 0)
(0.999954 6.34224e-05 0)
(1.00062 -0.000215178 0)
(1.00062 -0.00199004 0)
(0.999244 -0.00234205 0)
(0.998859 -0.000888161 0)
(0.999386 0.000207146 0)
(1.00054 0.000258809 0)
(1.00087 -0.000458046 0)
(1.00031 -0.000885959 0)
(0.999461 -0.000503586 0)
(0.99968 -0.000319528 0)
(0.999625 -0.000264924 0)
(0.998729 0.00066406 0)
(0.998149 0.00206402 0)
(0.999016 0.0028829 0)
(1.00016 0.00321373 0)
(1.00056 0.00363514 0)
(1.00016 0.00449696 0)
(1.0001 0.00520055 0)
(0.99974 -0.000286509 0)
(0.999984 -4.14038e-05 0)
(1.00052 -0.000299028 0)
(1.00051 -0.00173348 0)
(0.999353 -0.00210692 0)
(0.999079 -0.000894948 0)
(0.999494 0.000118984 0)
(1.00047 0.00019982 0)
(1.00075 -0.000405804 0)
(1.0003 -0.000764807 0)
(0.999518 -0.000380151 0)
(0.999689 -0.000117051 0)
(0.999737 -4.17953e-05 0)
(0.999064 0.0007207 0)
(0.998506 0.00199337 0)
(0.999204 0.0028154 0)
(1.00027 0.00317633 0)
(1.00079 0.00350169 0)
(1.00049 0.0042056 0)
(1.00032 0.00488995 0)
(0.999765 -0.00026501 0)
(1.00001 -0.000119536 0)
(1.00045 -0.000387177 0)
(1.00042 -0.0015085 0)
(0.999449 -0.00186208 0)
(0.999284 -0.000888665 0)
(0.999608 2.93578e-05 0)
(1.00041 0.000154241 0)
(1.00064 -0.000342203 0)
(1.00029 -0.000651377 0)
(0.999595 -0.000277946 0)
(0.999722 5.70396e-05 0)
(0.999839 0.000171012 0)
(0.999371 0.000790948 0)
(0.998861 0.00192831 0)
(0.999412 0.00273284 0)
(1.00038 0.00311591 0)
(1.00098 0.00338587 0)
(1.0008 0.00395087 0)
(1.00057 0.0045784 0)
(0.999788 -0.00024802 0)
(1.00003 -0.000172144 0)
(1.00039 -0.000464175 0)
(1.00036 -0.00131167 0)
(0.999534 -0.00161999 0)
(0.999469 -0.000870937 0)
(0.999725 -6.27005e-05 0)
(1.00038 0.000117388 0)
(1.00055 -0.000265617 0)
(1.0003 -0.000528437 0)
(0.999687 -0.000179245 0)
(0.999778 0.000199166 0)
(0.999935 0.000361044 0)
(0.999646 0.000866621 0)
(0.999203 0.00186024 0)
(0.999633 0.00263453 0)
(1.0005 0.00303611 0)
(1.00113 0.00327751 0)
(1.00107 0.00374041 0)
(1.00084 0.00428898 0)
(0.999809 -0.00023485 0)
(1.00005 -0.00019771 0)
(1.00035 -0.000521255 0)
(1.00031 -0.00115399 0)
(0.999607 -0.00139396 0)
(0.999632 -0.000836635 0)
(0.999845 -0.000148144 0)
(1.00037 8.02042e-05 0)
(1.00048 -0.000185668 0)
(1.0003 -0.000401632 0)
(0.999787 -8.9559e-05 0)
(0.999855 0.000305085 0)
(1.00003 0.000513385 0)
(0.999892 0.000939014 0)
(0.99953 0.00180465 0)
(0.999866 0.00253788 0)
(1.00062 0.00295881 0)
(1.00128 0.00318063 0)
(1.00131 0.00356656 0)
(1.00109 0.00403137 0)
(0.999829 -0.000225705 0)
(1.00006 -0.000198185 0)
(1.00032 -0.000554855 0)
(1.00029 -0.00103812 0)
(0.999674 -0.00119077 0)
(0.999772 -0.000776729 0)
(0.999961 -0.000218681 0)
(1.00038 3.82747e-05 0)
(1.00043 -0.000111037 0)
(1.00032 -0.000274223 0)
(0.999889 -3.85368e-06 0)
(0.999946 0.000395537 0)
(1.00013 0.000643028 0)
(1.00012 0.00100686 0)
(0.999839 0.00176098 0)
(1.00011 0.00243899 0)
(1.00076 0.00287007 0)
(1.0014 0.00308119 0)
(1.00151 0.00339982 0)
(1.00133 0.00379846 0)
(0.999847 -0.000217548 0)
(1.00007 -0.000187567 0)
(1.0003 -0.00056575 0)
(1.00028 -0.000952084 0)
(0.999739 -0.00101296 0)
(0.99989 -0.000695104 0)
(1.00007 -0.000267532 0)
(1.00041 -2.74556e-06 0)
(1.0004 -4.59325e-05 0)
(1.00033 -0.000147825 0)
(0.999991 8.4503e-05 0)
(1.00005 0.00047045 0)
(1.00023 0.000754019 0)
(1.00032 0.00106683 0)
(1.00013 0.00171459 0)
(1.00035 0.00233548 0)
(1.0009 0.00276491 0)
(1.00151 0.00298078 0)
(1.00169 0.00324393 0)
(1.00154 0.00359491 0)
(0.999864 -0.000209708 0)
(1.00007 -0.000174244 0)
(1.00027 -0.000555127 0)
(1.00029 -0.000883277 0)
(0.999804 -0.000862241 0)
(0.999987 -0.000600923 0)
(1.00016 -0.000287655 0)
(1.00045 -4.16014e-05 0)
(1.0004 4.83631e-06 0)
(1.00035 -2.63237e-05 0)
(1.00009 0.000184926 0)
(1.00016 0.000533098 0)
(1.00034 0.000837598 0)
(1.0005 0.00112178 0)
(1.00039 0.00167018 0)
(1.00059 0.00223491 0)
(1.00105 0.00265556 0)
(1.00162 0.00287962 0)
(1.00185 0.0031029 0)
(1.00174 0.00340589 0)
(0.999879 -0.000200566 0)
(1.00008 -0.000163221 0)
(1.00025 -0.000525498 0)
(1.0003 -0.000821255 0)
(0.999872 -0.000740791 0)
(1.00007 -0.000503746 0)
(1.00025 -0.00027444 0)
(1.0005 -6.73962e-05 0)
(1.00041 4.1383e-05 0)
(1.00039 8.11216e-05 0)
(1.00018 0.000286601 0)
(1.00028 0.000597681 0)
(1.00044 0.000899982 0)
(1.00066 0.00116874 0)
(1.00063 0.00163624 0)
(1.00082 0.00213712 0)
(1.0012 0.00254582 0)
(1.00173 0.00277404 0)
(1.00198 0.00297081 0)
(1.00191 0.00322223 0)
(0.999892 -0.00018994 0)
(1.00008 -0.000155025 0)
(1.00022 -0.000482074 0)
(1.00032 -0.000757855 0)
(0.999944 -0.000644373 0)
(1.00014 -0.000408931 0)
(1.00031 -0.000238568 0)
(1.00056 -7.45673e-05 0)
(1.00045 6.94458e-05 0)
(1.00043 0.00016882 0)
(1.00027 0.0003756 0)
(1.00038 0.000661598 0)
(1.00055 0.000954476 0)
(1.0008 0.00120061 0)
(1.00084 0.00160526 0)
(1.00104 0.00204081 0)
(1.00137 0.00242829 0)
(1.00183 0.00266355 0)
(1.0021 0.00284384 0)
(1.00207 0.00305028 0)
(0.999902 -0.000177851 0)
(1.00008 -0.000148607 0)
(1.0002 -0.000429344 0)
(1.00034 -0.000688219 0)
(1.00002 -0.000567199 0)
(1.00021 -0.000323102 0)
(1.00037 -0.000185409 0)
(1.00061 -6.12559e-05 0)
(1.0005 9.42687e-05 0)
(1.00049 0.000236821 0)
(1.00035 0.000454102 0)
(1.00049 0.000715328 0)
(1.00065 0.00100334 0)
(1.00093 0.00122821 0)
(1.00103 0.00157463 0)
(1.00124 0.00195528 0)
(1.00153 0.00230728 0)
(1.00194 0.00254743 0)
(1.0022 0.00272242 0)
(1.00221 0.00289068 0)
(0.999911 -0.000163822 0)
(1.00008 -0.00014343 0)
(1.00018 -0.000374746 0)
(1.00035 -0.000610609 0)
(1.00009 -0.000501238 0)
(1.00028 -0.00025153 0)
(1.00041 -0.000120612 0)
(1.00065 -2.66021e-05 0)
(1.00055 0.000123608 0)
(1.00055 0.000288452 0)
(1.00044 0.000520543 0)
(1.00059 0.000759037 0)
(1.00075 0.00103418 0)
(1.00105 0.0012521 0)
(1.00119 0.00154529 0)
(1.00142 0.00187783 0)
(1.00169 0.00219394 0)
(1.00205 0.00242297 0)
(1.00229 0.00260408 0)
(1.00233 0.00274065 0)
(0.999919 -0.000148904 0)
(1.00009 -0.000136652 0)
(1.00016 -0.000321419 0)
(1.00037 -0.00052586 0)
(1.00016 -0.000437239 0)
(1.00035 -0.000191984 0)
(1.00045 -5.42473e-05 0)
(1.00069 2.57593e-05 0)
(1.00061 0.000163262 0)
(1.00063 0.000333203 0)
(1.00053 0.000572522 0)
(1.00069 0.000801113 0)
(1.00085 0.00105247 0)
(1.00116 0.00126213 0)
(1.00134 0.00151853 0)
(1.00158 0.0017992 0)
(1.00183 0.00208779 0)
(1.00217 0.00229352 0)
(1.00237 0.00247895 0)