/*--------------------------------*- C++ -*----------------------------------*\
| =========                 |                                                 |
| \\      /  F ield         | OpenFOAM: The Open Source CFD Toolbox           |
|  \\    /   O peration     | Version:  v1906                                 |
|   \\  /    A nd           | Web:      www.OpenFOAM.com                      |
|    \\/     M anipulation  |                                                 |
\*---------------------------------------------------------------------------*/
FoamFile
{
    version     2.0;
    format      ascii;
    class       volVectorField;
    location    "1.7";
    object      U;
}
// * * * * * * * * * * * * * * * * * * * * * * * * * * * * * * * * * * * * * //

dimensions      [0 1 -1 0 0 0 0];


internalField   nonuniform List<vector> 
9600
(
(0.863223 -0.00205738 0)
(1.13673 0.000225996 0)
(0.862952 -3.88756e-05 0)
(1.11797 -0.00306748 0)
(0.91539 0.00155096 0)
(1.15261 0.000595311 0)
(0.843652 0.0051946 0)
(1.11201 0.00606444 0)
(0.889857 -0.00366191 0)
(1.07686 -0.00838119 0)
(0.924215 -0.00439239 0)
(1.10387 -0.0133189 0)
(0.915015 0.00328779 0)
(1.13354 -0.0106421 0)
(0.883986 0.00756599 0)
(1.1449 0.00242127 0)
(0.85503 0.0120962 0)
(1.13598 0.0110925 0)
(0.840203 0.010053 0)
(1.1129 0.00920879 0)
(0.87403 -0.00213199 0)
(1.12608 0.000388386 0)
(0.876876 -4.77348e-05 0)
(1.10656 -0.00333115 0)
(0.92675 0.000952215 0)
(1.1383 0.00169776 0)
(0.864557 0.00556019 0)
(1.09084 0.00574786 0)
(0.916575 -0.00339018 0)
(1.05533 -0.00862437 0)
(0.944625 -0.00509092 0)
(1.07855 -0.0128846 0)
(0.938795 0.00231978 0)
(1.10103 -0.00962097 0)
(0.918591 0.00696414 0)
(1.09687 0.0034332 0)
(0.914936 0.0123288 0)
(1.05894 0.0109394 0)
(0.941067 0.0120963 0)
(0.993831 0.00769185 0)
(0.893652 -0.00219283 0)
(1.10544 0.000494952 0)
(0.901454 -5.33515e-05 0)
(1.08573 -0.00363269 0)
(0.947563 0.00057374 0)
(1.11213 0.00240348 0)
(0.90189 0.00587002 0)
(1.05993 0.00532713 0)
(0.950194 -0.00311414 0)
(1.02809 -0.00891053 0)
(0.96962 -0.00552135 0)
(1.04704 -0.0127208 0)
(0.971145 0.00173533 0)
(1.06385 -0.00912607 0)
(0.964267 0.00679864 0)
(1.04926 0.00368344 0)
(0.970561 0.0129048 0)
(1.01194 0.0107645 0)
(0.985141 0.0131072 0)
(0.979363 0.00839539 0)
(0.918497 -0.00222263 0)
(1.0784 0.000520402 0)
(0.930217 -2.06971e-05 0)
(1.06013 -0.00390286 0)
(0.970934 0.000306057 0)
(1.08087 0.00284054 0)
(0.942127 0.00628567 0)
(1.03295 0.00494334 0)
(0.977274 -0.0028462 0)
(1.00741 -0.00907091 0)
(0.986561 -0.00580366 0)
(1.02277 -0.0127494 0)
(0.993777 0.00137962 0)
(1.03863 -0.00901182 0)
(0.994622 0.00709976 0)
(1.02653 0.00364114 0)
(0.997643 0.0136161 0)
(1.00409 0.0107376 0)
(0.997461 0.0134743 0)
(0.991203 0.00959791 0)
(0.943936 -0.00222005 0)
(1.05064 0.000488346 0)
(0.956513 3.96862e-05 0)
(1.0358 -0.00416259 0)
(0.989732 8.61961e-05 0)
(1.05182 0.00309881 0)
(0.973961 0.0067188 0)
(1.0167 0.00468009 0)
(0.993253 -0.00259523 0)
(0.996992 -0.00910948 0)
(0.993675 -0.00603616 0)
(1.00837 -0.0128567 0)
(1.00303 0.000993885 0)
(1.02481 -0.00896417 0)
(1.00752 0.00728374 0)
(1.01951 0.00369954 0)
(1.00756 0.0140215 0)
(1.00747 0.0108573 0)
(1.00364 0.0137815 0)
(0.999241 0.0105919 0)
(0.965814 -0.00218808 0)
(1.02744 0.000428751 0)
(0.976226 9.93532e-05 0)
(1.01723 -0.0043922 0)
(1.0005 -7.024e-05 0)
(1.02938 0.0032275 0)
(0.993359 0.00702765 0)
(1.00995 0.00456742 0)
(1.00075 -0.00237097 0)
(0.993828 -0.00905832 0)
(0.995547 -0.00619041 0)
(1.00039 -0.0129883 0)
(1.00377 0.00058012 0)
(1.01633 -0.00896775 0)
(1.01021 0.00721835 0)
(1.01687 0.00385516 0)
(1.01092 0.0140613 0)
(1.01052 0.0111397 0)
(1.00818 0.0139301 0)
(1.00402 0.0113999 0)
(0.98182 -0.00213816 0)
(1.01154 0.000366474 0)
(0.988601 0.000144018 0)
(1.00569 -0.00455934 0)
(1.00396 -0.00017047 0)
(1.01419 0.00325637 0)
(1.00219 0.00717833 0)
(1.00813 0.00455227 0)
(1.004 -0.00216622 0)
(0.994109 -0.00894732 0)
(0.996134 -0.00625349 0)
(0.995837 -0.0130887 0)
(1.00111 0.000179482 0)
(1.00943 -0.00902695 0)
(1.00836 0.00702445 0)
(1.01417 0.00396739 0)
(1.01172 0.0139158 0)
(1.01192 0.0114872 0)
(1.01096 0.013869 0)
(1.00714 0.0121959 0)
(0.991814 -0.00208394 0)
(1.00269 0.000316764 0)
(0.995192 0.000171085 0)
(0.999874 -0.00465628 0)
(1.00305 -0.0002289 0)
(1.00476 0.00321962 0)
(1.00449 0.00719819 0)
(1.00777 0.00456605 0)
(1.00565 -0.00197592 0)
(0.995654 -0.00880568 0)
(0.996942 -0.00623388 0)
(0.993371 -0.013115 0)
(0.997914 -0.000179602 0)
(1.00311 -0.00908313 0)
(1.00466 0.0067242 0)
(1.01047 0.00401343 0)
(1.01077 0.0136495 0)
(1.01171 0.0118174 0)
(1.01178 0.0136942 0)
(1.00856 0.0130178 0)
(0.997127 -0.00203394 0)
(0.998828 0.000281623 0)
(0.998204 0.000185565 0)
(0.997574 -0.00469319 0)
(1.00056 -0.000249537 0)
(0.999266 0.00314515 0)
(1.00379 0.00712827 0)
(1.00744 0.00456251 0)
(1.0067 -0.00180919 0)
(0.997477 -0.00865238 0)
(0.998053 -0.00614768 0)
(0.992394 -0.0130541 0)
(0.995264 -0.000468237 0)
(0.997696 -0.00908585 0)
(1.00027 0.00632375 0)
(1.00591 0.00403708 0)
(1.00813 0.0132395 0)
(1.00977 0.0121271 0)
(1.01064 0.0134649 0)
(1.00813 0.013793 0)
(0.999516 -0.00199056 0)
(0.997663 0.000255235 0)
(0.999391 0.000195994 0)
(0.996999 -0.0046839 0)
(0.998148 -0.00023832 0)
(0.996364 0.00305045 0)
(1.00226 0.00700404 0)
(1.00691 0.00452148 0)
(1.00738 -0.0016746 0)
(0.999085 -0.00849556 0)
(0.999133 -0.00601768 0)
(0.992438 -0.0129085 0)
(0.993323 -0.000676925 0)
(0.993665 -0.00900412 0)
(0.995859 0.00586953 0)
(1.00102 0.00407454 0)
(1.00416 0.0126968 0)
(1.00634 0.0124274 0)
(1.00789 0.0131918 0)
(1.00617 0.0144477 0)
(1.00041 -0.00195238 0)
(0.997585 0.000231541 0)
(0.999773 0.000205778 0)
(0.997099 -0.0046417 0)
(0.996395 -0.000205607 0)
(0.995093 0.00294507 0)
(1.00087 0.00685233 0)
(1.00631 0.00444204 0)
(1.00773 -0.00157148 0)
(1.00024 -0.00833644 0)
(0.999906 -0.00586695 0)
(0.993035 -0.0126874 0)
(0.991974 -0.000819278 0)
(0.991109 -0.00881916 0)
(0.991966 0.00540649 0)
(0.996427 0.00415569 0)
(0.999646 0.0120672 0)
(1.00215 0.0127131 0)
(1.00433 0.0128882 0)
(1.00339 0.0149311 0)
(1.00069 -0.00191682 0)
(0.997773 0.000206978 0)
(0.999836 0.000216291 0)
(0.997384 -0.0045778 0)
(0.995316 -0.000161526 0)
(0.994745 0.0028344 0)
(0.999892 0.00669072 0)
(1.00573 0.0043332 0)
(1.0078 -0.00149336 0)
(1.00093 -0.00817279 0)
(1.00029 -0.00571265 0)
(0.993785 -0.0124073 0)
(0.991084 -0.000913946 0)
(0.989776 -0.00852974 0)
(0.988999 0.00496262 0)
(0.992681 0.00430319 0)
(0.995513 0.011397 0)
(0.998072 0.0129707 0)
(1.00085 0.0125822 0)
(1.0006 0.0152143 0)
(1.00077 -0.00188159 0)
(0.997936 0.00018001 0)
(0.999787 0.000227463 0)
(0.99766 -0.00450036 0)
(0.994747 -0.000112763 0)
(0.994822 0.00272155 0)
(0.999303 0.00652832 0)
(1.0052 0.00420552 0)
(1.00768 -0.0014333 0)
(1.00123 -0.00800036 0)
(1.00037 -0.00556658 0)
(0.994437 -0.0120807 0)
(0.990553 -0.000987917 0)
(0.989265 -0.00814615 0)
(0.98711 0.00454153 0)
(0.990048 0.0045255 0)
(0.992408 0.0107248 0)
(0.994814 0.0131765 0)
(0.998091 0.0123122 0)
(0.998391 0.0152951 0)
(1.0008 -0.00184513 0)
(0.99802 0.000149953 0)
(0.99971 0.000239568 0)
(0.997864 -0.00441522 0)
(0.994522 -6.25081e-05 0)
(0.995026 0.00260795 0)
(0.998997 0.00636809 0)
(1.00476 0.0040677 0)
(1.00746 -0.0013862 0)
(1.00129 -0.00781435 0)
(1.00027 -0.00543554 0)
(0.994895 -0.0117137 0)
(0.990293 -0.00106685 0)
(0.989202 -0.00768559 0)
(0.986191 0.00413903 0)
(0.988497 0.00481103 0)
(0.990522 0.0100775 0)
(0.99265 0.0133059 0)
(0.996295 0.0121137 0)
(0.996996 0.0151933 0)
(1.00083 -0.00180656 0)
(0.998047 0.000116569 0)
(0.99964 0.000253145 0)
(0.997988 -0.00432621 0)
(0.994507 -1.17472e-05 0)
(0.995224 0.00249415 0)
(0.99887 0.00620886 0)
(1.00442 0.00392736 0)
(1.0072 -0.00134844 0)
(1.00122 -0.00761209 0)
(1.00011 -0.00531958 0)
(0.995178 -0.0113154 0)
(0.990224 -0.00115833 0)
(0.989331 -0.00717423 0)
(0.98598 0.00375265 0)
(0.987788 0.00513081 0)
(0.989678 0.00947512 0)
(0.991491 0.0133465 0)
(0.995354 0.0120042 0)
(0.996344 0.0149406 0)
(1.00086 -0.00176531 0)
(0.998046 7.94272e-05 0)
(0.999583 0.000268998 0)
(0.998052 -0.0042356 0)
(0.994605 3.92394e-05 0)
(0.995379 0.00238058 0)
(0.998844 0.00604852 0)
(1.00415 0.00378678 0)
(1.00694 -0.00131888 0)
(1.0011 -0.00739328 0)
(0.999963 -0.00521727 0)
(0.995348 -0.0108909 0)
(0.990274 -0.00126639 0)
(0.989518 -0.00662634 0)
(0.986195 0.0033682 0)
(0.987621 0.00545373 0)
(0.989533 0.0089408 0)
(0.991055 0.0132931 0)
(0.995002 0.0119767 0)
(0.996214 0.0145797 0)
(1.00089 -0.00172104 0)
(0.998039 3.80323e-05 0)
(0.999536 0.000287876 0)
(0.998079 -0.00414461 0)
(0.994753 9.01336e-05 0)
(0.995498 0.00226796 0)
(0.998865 0.00588457 0)
(1.00393 0.00364799 0)
(1.00668 -0.00129864 0)
(1.00097 -0.00715497 0)
(0.999841 -0.00513023 0)
(0.995466 -0.010441 0)
(0.990392 -0.00139284 0)
(0.989709 -0.00605166 0)
(0.986622 0.00298711 0)
(0.987746 0.0057545 0)
(0.989765 0.00848705 0)
(0.991044 0.0131445 0)
(0.994972 0.0120142 0)
(0.996372 0.0141644 0)
(1.00091 -0.00167365 0)
(0.998043 -8.07716e-06 0)
(0.999491 0.000310385 0)
(0.998092 -0.00405391 0)
(0.994912 0.000140817 0)
(0.9956 0.00215699 0)
(0.998903 0.00571411 0)
(1.00375 0.00351585 0)
(1.00644 -0.00128993 0)
(1.00084 -0.00689408 0)
(0.999742 -0.00505716 0)
(0.99557 -0.00997285 0)
(0.990546 -0.00152991 0)
(0.989894 -0.00546931 0)
(0.987132 0.00262469 0)
(0.988 0.00600992 0)
(0.99015 0.00811567 0)
(0.99124 0.0129088 0)
(0.995072 0.0120892 0)
(0.99665 0.013735 0)
(1.00091 -0.00162306 0)
(0.998066 -5.90478e-05 0)
(0.99944 0.000337202 0)
(0.998107 -0.00396389 0)
(0.995063 0.000191377 0)
(0.995701 0.00204807 0)
(0.998942 0.00553565 0)
(1.00358 0.00339146 0)
(1.00619 -0.00129282 0)
(1.00072 -0.00661537 0)
(0.999657 -0.00499094 0)
(0.99568 -0.00949186 0)
(0.990719 -0.00167079 0)
(0.990079 -0.00489695 0)
(0.987663 0.00229449 0)
(0.9883 0.00620399 0)
(0.990567 0.00782361 0)
(0.991521 0.0126043 0)
(0.995198 0.01217 0)
(0.996952 0.0133147 0)
(1.00089 -0.0015692 0)
(0.998112 -0.000114989 0)
(0.99938 0.000368513 0)
(0.99813 -0.00387418 0)
(0.995201 0.000240845 0)
(0.995811 0.00194303 0)
(0.998975 0.00534746 0)
(1.00342 0.00327553 0)
(1.00594 -0.00130793 0)
(1.00062 -0.00631945 0)
(0.999576 -0.00493234 0)
(0.995805 -0.00900391 0)
(0.990902 -0.00180011 0)
(0.990269 -0.004341 0)
(0.988191 0.00200599 0)
(0.988618 0.00633806 0)
(0.990965 0.00760594 0)
(0.991834 0.0122492 0)
(0.995308 0.0122345 0)
(0.997234 0.012922 0)
(1.00085 -0.00151217 0)
(0.998182 -0.000176103 0)
(0.999312 0.000404007 0)
(0.998166 -0.00378379 0)
(0.995327 0.000287482 0)
(0.995934 0.00184325 0)
(0.999002 0.0051484 0)
(1.00326 0.00317208 0)
(1.00568 -0.00133775 0)
(1.00053 -0.00600681 0)
(0.999493 -0.00487713 0)
(0.995945 -0.00851669 0)
(0.991089 -0.00191835 0)
(0.99047 -0.00381121 0)
(0.988709 0.00176565 0)
(0.988947 0.00641714 0)
(0.99133 0.00744621 0)
(0.992165 0.0118574 0)
(0.995393 0.0122759 0)
(0.997485 0.0125742 0)
(1.00079 -0.00145194 0)
(0.998267 -0.000242654 0)
(0.999238 0.000444025 0)
(0.998214 -0.00369318 0)
(0.995444 0.000331746 0)
(0.996069 0.00174898 0)
(0.999025 0.00493466 0)
(1.00311 0.00308272 0)
(1.00542 -0.00138015 0)
(1.00044 -0.00568362 0)
(0.999405 -0.00481584 0)
(0.996099 -0.0080402 0)
(0.991279 -0.00201185 0)
(0.990682 -0.00331775 0)
(0.989217 0.00156931 0)
(0.989292 0.00645102 0)
(0.991663 0.00732877 0)
(0.992513 0.0114346 0)
(0.995463 0.0122834 0)
(0.997701 0.0122784 0)
(1.00072 -0.00138859 0)
(0.998361 -0.000314439 0)
(0.999162 0.00048775 0)
(0.998271 -0.00360105 0)
(0.995557 0.000371124 0)
(0.996215 0.00166339 0)
(0.999045 0.00470468 0)
(1.00296 0.00300589 0)
(1.00515 -0.00143247 0)
(1.00037 -0.00535253 0)
(0.999313 -0.00474327 0)
(0.996268 -0.00758502 0)
(0.991474 -0.0020638 0)
(0.990904 -0.00285942 0)
(0.989717 0.00140916 0)
(0.989656 0.00644752 0)
(0.991968 0.00725057 0)
(0.992881 0.0109887 0)
(0.995532 0.0122423 0)
(0.997884 0.012031 0)
(1.00066 -0.00132205 0)
(0.998455 -0.000391004 0)
(0.999089 0.000534031 0)
(0.998332 -0.00350539 0)
(0.995673 0.000402711 0)
(0.996366 0.00158915 0)
(0.999065 0.00446131 0)
(1.00281 0.00293958 0)
(1.00487 -0.00148975 0)
(1.00032 -0.00502386 0)
(0.999221 -0.00464817 0)
(0.996447 -0.00715831 0)
(0.991677 -0.00208657 0)
(0.991133 -0.00242532 0)
(0.990213 0.00129086 0)
(0.990041 0.00640573 0)
(0.992252 0.00720796 0)
(0.993265 0.0105325 0)
(0.995612 0.0121456 0)
(0.998031 0.0118301 0)
(1.00059 -0.00125243 0)
(0.99854 -0.000472211 0)
(0.999022 0.000582365 0)
(0.998391 -0.00340532 0)
(0.995795 0.000426566 0)
(0.99652 0.00152695 0)
(0.999089 0.00420429 0)
(1.00266 0.00288311 0)
(1.0046 -0.00154945 0)
(1.00026 -0.00470489 0)
(0.999131 -0.00452658 0)
(0.996634 -0.00676367 0)
(0.991896 -0.00207294 0)
(0.991364 -0.0020218 0)
(0.990706 0.00120435 0)
(0.990447 0.00633056 0)
(0.992518 0.00720232 0)
(0.993659 0.0100796 0)
(0.995714 0.011984 0)
(0.998143 0.0116706 0)
(1.00054 -0.00117983 0)
(0.998615 -0.00055707 0)
(0.998961 0.00063018 0)
(0.998446 -0.00329881 0)
(0.995925 0.000439607 0)
(0.996672 0.00147847 0)
(0.999118 0.00393353 0)
(1.00251 0.00283425 0)
(1.00433 -0.00160425 0)
(1.00021 -0.00440189 0)
(0.999048 -0.00437577 0)
(0.996823 -0.0063941 0)
(0.992136 -0.00203662 0)
(0.991595 -0.00164175 0)
(0.991199 0.00114205 0)
(0.990874 0.00622386 0)
(0.992773 0.00722428 0)
(0.994053 0.00963943 0)
(0.995847 0.0117508 0)
(0.998222 0.0115441 0)
(1.0005 -0.00110442 0)
(0.998679 -0.000644448 0)
(0.998909 0.000675777 0)
(0.998494 -0.0031837 0)
(0.996064 0.000437963 0)
(0.996819 0.00144529 0)
(0.999153 0.00365305 0)
(1.00236 0.00278439 0)
(1.00407 -0.00164791 0)
(1.00016 -0.00412292 0)
(0.998972 -0.00418798 0)
(0.997009 -0.00604904 0)
(0.992399 -0.00197932 0)
(0.991824 -0.00126332 0)
(0.991692 0.00111037 0)
(0.991322 0.00608608 0)
(0.993019 0.00725956 0)
(0.994438 0.00922043 0)
(0.996016 0.0114384 0)
(0.998272 0.0114407 0)
(1.00047 -0.00102665 0)
(0.998738 -0.000733199 0)
(0.998863 0.000716831 0)
(0.998535 -0.00305774 0)
(0.99621 0.000423267 0)
(0.99696 0.00142536 0)
(0.999196 0.0033661 0)
(1.0022 0.00273391 0)
(1.00381 -0.00167717 0)
(1.00011 -0.00386935 0)
(0.998904 -0.00396929 0)
(0.99719 -0.00571617 0)
(0.992689 -0.00190376 0)
(0.99205 -0.000896841 0)
(0.99218 0.00110672 0)
(0.991792 0.00591899 0)
(0.993261 0.00730368 0)
(0.994805 0.00884471 0)
(0.996227 0.0110457 0)
(0.998306 0.0113442 0)
(1.00045 -0.000946712 0)
(0.998796 -0.000821991 0)
(0.998823 0.00075123 0)
(0.998571 -0.00292113 0)
(0.996362 0.000396519 0)
(0.997093 0.0014152 0)
(0.999245 0.00307733 0)
(1.00204 0.00267688 0)
(1.00356 -0.0016832 0)
(1.00006 -0.00364683 0)
(0.998843 -0.00372548 0)
(0.997362 -0.00538775 0)
(0.993003 -0.00183041 0)
(0.992277 -0.000535625 0)
(0.99266 0.00113715 0)
(0.992284 0.00571966 0)
(0.993506 0.00734276 0)
(0.995145 0.00853378 0)
(0.99648 0.0105869 0)
(0.998342 0.0112155 0)
(1.00043 -0.000865419 0)
(0.998856 -0.00090855 0)
(0.998789 0.000777556 0)
(0.998603 -0.00277323 0)
(0.996518 0.000357268 0)
(0.997219 0.00141201 0)
(0.999299 0.0027927 0)
(1.00188 0.00260414 0)
(1.00331 -0.00166448 0)
(1.00002 -0.00345176 0)
(0.998787 -0.00345944 0)
(0.997523 -0.00506423 0)
(0.993339 -0.00175626 0)
(0.99251 -0.000175615 0)
(0.993124 0.00120745 0)
(0.992798 0.005489 0)
(0.993762 0.00735382 0)
(0.995452 0.00829023 0)
(0.996765 0.0100935 0)
(0.998402 0.0110104 0)
(1.00041 -0.000783646 0)
(0.998922 -0.000990991 0)
(0.998761 0.000793494 0)
(0.998633 -0.00261342 0)
(0.996677 0.000307411 0)
(0.997339 0.00141507 0)
(0.999358 0.00251553 0)
(1.00172 0.00251243 0)
(1.00307 -0.00161989 0)
(0.999972 -0.00328044 0)
(0.998736 -0.00318482 0)
(0.997672 -0.00473063 0)
(0.993695 -0.00167905 0)
(0.992751 0.000168906 0)
(0.993567 0.0013169 0)
(0.993327 0.00523916 0)
(0.994037 0.00732178 0)
(0.995725 0.00810397 0)
(0.997067 0.00960688 0)
(0.998504 0.010708 0)
(1.00039 -0.000700909 0)
(0.998993 -0.00106961 0)
(0.998741 0.00079845 0)
(0.998661 -0.0024435 0)
(0.996838 0.00025095 0)
(0.997452 0.00141768 0)
(0.999418 0.00225447 0)
(1.00157 0.00240382 0)
(1.00283 -0.00155523 0)
(0.999934 -0.00312804 0)
(0.998691 -0.0029092 0)
(0.99781 -0.00437773 0)
(0.994066 -0.00160335 0)
(0.993005 0.00049075 0)
(0.993984 0.0014643 0)
(0.993866 0.00498422 0)
(0.994335 0.00723751 0)
(0.995968 0.00795528 0)
(0.997369 0.00916005 0)
(0.998654 0.0103188 0)
(1.00037 -0.000619132 0)
(0.999068 -0.00114099 0)
(0.998729 0.000791575 0)
(0.998688 -0.002268 0)
(0.997 0.000194906 0)
(0.997561 0.00141539 0)
(0.999479 0.00200857 0)
(1.00142 0.00227911 0)
(1.00259 -0.00146852 0)
(0.999905 -0.0029899 0)
(0.998655 -0.00263315 0)
(0.997937 -0.00400214 0)
(0.994449 -0.00152426 0)
(0.993275 0.000784641 0)
(0.994372 0.00164596 0)
(0.994405 0.0047371 0)
(0.994659 0.00710164 0)
(0.996187 0.00782367 0)
(0.997655 0.00876969 0)
(0.998847 0.00988081 0)
(1.00035 -0.000538076 0)
(0.999146 -0.00120473 0)
(0.998724 0.000774432 0)
(0.998715 -0.00209006 0)
(0.997164 0.00013527 0)
(0.997664 0.00141394 0)
(0.999539 0.00177839 0)
(1.00129 0.00213418 0)
(1.00236 -0.00135614 0)
(0.999883 -0.00286263 0)
(0.998631 -0.00236352 0)
(0.998054 -0.00360131 0)
(0.99484 -0.00143011 0)
(0.993565 0.00103397 0)
(0.994732 0.00184654 0)
(0.994936 0.00450664 0)
(0.995009 0.00692119 0)
(0.996393 0.0076944 0)
(0.997916 0.00843514 0)
(0.999067 0.00943565 0)
(1.00032 -0.000459567 0)
(0.999226 -0.00125858 0)
(0.998728 0.000747096 0)
(0.998742 -0.00191064 0)
(0.99733 7.34519e-05 0)
(0.997765 0.00141094 0)
(0.999594 0.00156857 0)
(1.00116 0.00197218 0)
(1.00212 -0.00122527 0)
(0.999868 -0.00273664 0)
(0.998624 -0.00210935 0)
(0.998162 -0.00317868 0)
(0.995233 -0.0013144 0)
(0.993874 0.00123339 0)
(0.995067 0.00205508 0)
(0.995451 0.00430071 0)
(0.995385 0.00670036 0)
(0.996592 0.00755657 0)
(0.998148 0.00814188 0)
(0.999297 0.00901142 0)
(1.0003 -0.000382501 0)
(0.999308 -0.00130484 0)
(0.99874 0.000710596 0)
(0.998769 -0.00173451 0)
(0.997497 1.21068e-05 0)
(0.997863 0.00140685 0)
(0.999643 0.00137836 0)
(1.00105 0.00180036 0)
(1.0019 -0.00107895 0)
(0.999858 -0.00259391 0)
(0.998635 -0.00187777 0)
(0.998263 -0.00274287 0)
(0.995623 -0.00118655 0)
(0.994205 0.00138246 0)
(0.995379 0.00225506 0)
(0.995943 0.00412117 0)
(0.995781 0.00644761 0)
(0.996794 0.00740906 0)
(0.998355 0.00787545 0)
(0.999522 0.00861992 0)
(1.00028 -0.000308255 0)
(0.999389 -0.00134307 0)
(0.99876 0.000667543 0)
(0.998794 -0.0015611 0)
(0.997666 -5.60826e-05 0)
(0.997961 0.0014059 0)
(0.999687 0.00121057 0)
(1.00095 0.00162023 0)
(1.00168 -0.000912933 0)
(0.999852 -0.00242708 0)
(0.998666 -0.00166623 0)
(0.998358 -0.0023132 0)
(0.996003 -0.00103898 0)
(0.994555 0.00148877 0)
(0.995674 0.00243218 0)
(0.996408 0.00396881 0)
(0.996198 0.00617378 0)
(0.997003 0.00725039 0)
(0.998537 0.0076253 0)
(0.999735 0.0082545 0)
(1.00026 -0.000238914 0)
(0.99947 -0.0013681 0)
(0.998789 0.000613618 0)
(0.998819 -0.00138762 0)
(0.997836 -0.000127968 0)
(0.99806 0.00140489 0)
(0.999723 0.00107092 0)
(1.00086 0.00142936 0)
(1.00147 -0.000737469 0)
(0.999846 -0.00223226 0)
(0.998716 -0.00147553 0)
(0.998451 -0.00190913 0)
(0.996372 -0.000862355 0)
(0.994922 0.00156696 0)
(0.995957 0.00258632 0)
(0.996843 0.00384548 0)
(0.996629 0.00588336 0)
(0.997223 0.00707547 0)
(0.998697 0.00739529 0)
(0.999932 0.00791035 0)
(1.00023 -0.000172831 0)
(0.99955 -0.00138456 0)
(0.998827 0.000551643 0)
(0.998844 -0.0012142 0)
(0.998006 -0.000207152 0)
(0.99816 0.00139683 0)
(0.999751 0.000972744 0)
(1.00079 0.00123769 0)
(1.00127 -0.000562407 0)
(0.999839 -0.00199765 0)
(0.998782 -0.00131018 0)
(0.998548 -0.0015444 0)
(0.996726 -0.000678513 0)
(0.995302 0.00161681 0)
(0.996231 0.00271421 0)
(0.997244 0.00375358 0)
(0.99707 0.00558315 0)
(0.997462 0.00687574 0)
(0.998838 0.00718855 0)
(1.00011 0.0075811 0)
(1.00021 -0.000113126 0)
(0.999629 -0.00138649 0)
(0.998876 0.000477351 0)
(0.998867 -0.00103797 0)
(0.998176 -0.000290913 0)
(0.998266 0.00137019 0)
(0.999771 0.000919372 0)
(1.00074 0.00105397 0)
(1.0011 -0.000397705 0)
(0.999829 -0.00172783 0)
(0.998858 -0.00115085 0)
(0.998649 -0.0012202 0)
(0.997065 -0.000481423 0)
(0.995692 0.00165328 0)
(0.996503 0.0028142 0)
(0.99761 0.00369261 0)
(0.997512 0.00528806 0)
(0.997725 0.00664354 0)
(0.998965 0.00700141 0)
(1.00027 0.00726902 0)
(1.00019 -5.96898e-05 0)
(0.999704 -0.0013724 0)
(0.998934 0.000388714 0)
(0.998891 -0.000859385 0)
(0.998342 -0.000374124 0)
(0.99838 0.00131979 0)
(0.999783 0.000908441 0)
(1.00069 0.000889971 0)
(1.00095 -0.000256225 0)
(0.999818 -0.00143967 0)
(0.99894 -0.000984132 0)
(0.998757 -0.000934125 0)
(0.997391 -0.000279371 0)
(0.996086 0.00168642 0)
(0.996775 0.00288897 0)
(0.997942 0.00365512 0)
(0.997947 0.00501385 0)
(0.998017 0.00637767 0)
(0.999086 0.00682115 0)
(1.0004 0.00698807 0)
(1.00017 -1.41005e-05 0)
(0.999776 -0.00134359 0)
(0.999003 0.000289022 0)
(0.998913 -0.000679021 0)
(0.998504 -0.000451802 0)
(0.998505 0.00123129 0)
(0.999791 0.000931645 0)
(1.00065 0.000760095 0)
(1.00082 -0.000138823 0)
(0.999808 -0.00114772 0)
(0.999022 -0.000807298 0)
(0.998871 -0.000676954 0)
(0.997704 -9.108e-05 0)
(0.996485 0.00171432 0)
(0.997052 0.00294449 0)
(0.998244 0.00363296 0)
(0.998363 0.0047688 0)
(0.998334 0.00608727 0)
(0.999213 0.00662715 0)
(1.00051 0.00674431 0)
(1.00015 2.39878e-05 0)
(0.999843 -0.00129769 0)
(0.999082 0.000176296 0)
(0.998937 -0.000505079 0)
(0.998656 -0.000511513 0)
(0.998643 0.00110174 0)
(0.999799 0.000973792 0)
(1.00062 0.000676108 0)
(1.00072 -3.70367e-05 0)
(0.999804 -0.000861488 0)
(0.999105 -0.000612787 0)
(0.998989 -0.000440099 0)
(0.998005 8.51343e-05 0)
(0.996885 0.00173221 0)
(0.997336 0.00297487 0)
(0.998519 0.00361848 0)
(0.998756 0.0045549 0)
(0.998672 0.00579199 0)
(0.999359 0.00641029 0)
(1.00059 0.00653033 0)
(1.00014 5.28144e-05 0)
(0.999905 -0.00123252 0)
(0.99917 5.61087e-05 0)
(0.998964 -0.00033882 0)
(0.998797 -0.000547025 0)
(0.998795 0.000939789 0)
(0.999814 0.00101912 0)
(1.0006 0.000649819 0)
(1.00065 5.28836e-05 0)
(0.999807 -0.000594787 0)
(0.999186 -0.000404709 0)
(0.999108 -0.000220575 0)
(0.998294 0.000252807 0)
(0.997284 0.00174257 0)
(0.99763 0.00297714 0)
(0.998774 0.00360972 0)
(0.999122 0.00437425 0)
(0.999022 0.00550444 0)
(0.999529 0.00617149 0)
(1.00066 0.00632487 0)
(1.00012 7.29551e-05 0)
(0.999958 -0.00114883 0)
(0.999267 -6.95085e-05 0)
(0.998996 -0.000189048 0)
(0.998923 -0.000533174 0)
(0.998958 0.000753636 0)
(0.999843 0.00105104 0)
(1.00057 0.000674624 0)
(1.00059 0.00012021 0)
(0.999823 -0.000363936 0)
(0.999266 -0.000198341 0)
(0.999225 -3.47584e-06 0)
(0.998569 0.00041728 0)
(0.997678 0.00174976 0)
(0.997935 0.00295095 0)
(0.999017 0.00359313 0)
(0.999458 0.00422044 0)
(0.999375 0.00522739 0)
(0.999725 0.00592041 0)
(1.00074 0.00611923 0)
(1.00011 8.42119e-05 0)
(1 -0.00105004 0)
(0.999369 -0.000194258 0)
(0.999036 -6.29021e-05 0)
(0.999032 -0.000463381 0)
(0.999129 0.000578025 0)
(0.999891 0.00106159 0)
(1.00055 0.000725032 0)
(1.00055 0.000170283 0)
(0.999852 -0.000183869 0)
(0.99935 2.77007e-06 0)
(0.999344 0.000216931 0)
(0.998828 0.000581644 0)
(0.998062 0.00176029 0)
(0.99825 0.00290611 0)
(0.999253 0.00356133 0)
(0.999767 0.0040871 0)
(0.999726 0.00496384 0)
(0.999945 0.00566056 0)
(1.00081 0.00590878 0)
(1.0001 8.61192e-05 0)
(1.00004 -0.00093705 0)
(0.999476 -0.000312236 0)
(0.999088 4.19324e-05 0)
(0.999124 -0.000340515 0)
(0.9993 0.000438572 0)
(0.999958 0.00102878 0)
(1.00053 0.000779306 0)
(1.00052 0.000224789 0)
(0.9999 -3.70107e-05 0)
(0.999447 0.000187974 0)
(0.999464 0.000428919 0)
(0.999072 0.00075073 0)
(0.998433 0.00177763 0)
(0.998572 0.00284436 0)
(0.999488 0.00350866 0)
(1.00005 0.0039661 0)
(1.00006 0.00472002 0)
(1.00019 0.00539587 0)
(1.00091 0.00569057 0)
(1.00008 8.04986e-05 0)
(1.00007 -0.000815303 0)
(0.999584 -0.000413185 0)
(0.999157 0.000110856 0)
(0.999202 -0.00018244 0)
(0.999463 0.000339607 0)
(1.00004 0.000947569 0)
(1.00052 0.00082911 0)
(1.00049 0.000304966 0)
(0.999961 8.87386e-05 0)
(0.999557 0.000332903 0)
(0.99959 0.000617868 0)
(0.999302 0.000920274 0)
(0.998785 0.00180968 0)
(0.998896 0.00277516 0)
(0.999726 0.00343744 0)
(1.00031 0.0038525 0)
(1.00039 0.00449842 0)
(1.00044 0.00513475 0)
(1.00102 0.00546253 0)
(1.00008 6.84771e-05 0)
(1.00008 -0.000690054 0)
(0.999689 -0.000491475 0)
(0.999241 0.000139152 0)
(0.999271 -7.37485e-06 0)
(0.999609 0.000288359 0)
(1.00014 0.000837729 0)
(1.00053 0.000866959 0)
(1.00047 0.000414061 0)
(1.00003 0.0002028 0)
(0.99968 0.000447442 0)
(0.999728 0.000778973 0)
(0.999522 0.00107724 0)
(0.999116 0.0018587 0)
(0.999215 0.0027152 0)
(0.999966 0.00335377 0)
(1.00056 0.0037415 0)
(1.0007 0.00429327 0)
(1.0007 0.00488194 0)
(1.00115 0.00522752 0)
(1.00007 5.17393e-05 0)
(1.00009 -0.000565757 0)
(0.999788 -0.000542311 0)
(0.999343 0.000130403 0)
(0.999335 0.000170862 0)
(0.999733 0.000293293 0)
(1.00025 0.000720922 0)
(1.00056 0.00087242 0)
(1.00046 0.000535952 0)
(1.00009 0.000333529 0)
(0.999812 0.000550196 0)
(0.999876 0.000907391 0)
(0.999738 0.00121168 0)
(0.999427 0.00190784 0)
(0.999523 0.00266655 0)
(1.00021 0.00326476 0)
(1.00079 0.00363192 0)
(1.00099 0.00410375 0)
(1.00097 0.0046395 0)
(1.0013 0.00499793 0)
(1.00006 3.31134e-05 0)
(1.00009 -0.000448583 0)
(0.999876 -0.000561241 0)
(0.99946 9.24956e-05 0)
(0.999402 0.000324637 0)
(0.999833 0.000346972 0)
(1.00036 0.000622333 0)
(1.00061 0.000843273 0)
(1.00046 0.000654236 0)
(1.00016 0.000485467 0)
(0.999944 0.000650175 0)
(1.00003 0.00100713 0)
(0.99995 0.00132342 0)
(0.999723 0.00195124 0)
(0.99982 0.00262826 0)
(1.00045 0.00318331 0)
(1.00102 0.0035287 0)
(1.00126 0.00393326 0)
(1.00124 0.00440388 0)
(1.00147 0.00477598 0)
(1.00006 1.4759e-05 0)
(1.00008 -0.000342263 0)
(0.99995 -0.000546018 0)
(0.999589 3.38442e-05 0)
(0.999477 0.000445856 0)
(0.99991 0.000435751 0)
(1.00045 0.000556048 0)
(1.00068 0.00078873 0)
(1.00048 0.000752104 0)
(1.00022 0.00065012 0)
(1.00007 0.000757263 0)
(1.0002 0.00109029 0)
(1.00016 0.00140718 0)
(1.00001 0.00198669 0)
(1.00011 0.00259135 0)
(1.00068 0.00310294 0)
(1.00123 0.00342622 0)
(1.00151 0.00377936 0)
(1.00151 0.00417637 0)
(1.00164 0.00455495 0)
(1.00005 -1.21972e-06 0)
(1.00007 -0.000251239 0)
(1.00001 -0.000495388 0)
(0.999723 -3.49045e-05 0)
(0.999564 0.00052162 0)
(0.99997 0.000545048 0)
(1.00053 0.000535696 0)
(1.00077 0.000723556 0)
(1.00053 0.000807482 0)
(1.00028 0.00080529 0)
(1.00019 0.000880315 0)
(1.00035 0.00116991 0)
(1.00037 0.00146642 0)
(1.00028 0.0020087 0)
(1.00038 0.00255516 0)
(1.00091 0.00301962 0)
(1.00144 0.00331985 0)
(1.00174 0.00363857 0)
(1.00177 0.00396472 0)
(1.00183 0.00432503 0)
(1.00005 -1.30107e-05 0)
(1.00006 -0.000177605 0)
(1.00005 -0.000415061 0)
(0.999857 -9.63689e-05 0)
(0.999667 0.000547135 0)
(1.00002 0.000654593 0)
(1.00059 0.000561034 0)
(1.00086 0.000671703 0)
(1.0006 0.000824077 0)
(1.00035 0.00093664 0)
(1.00029 0.00101299 0)
(1.0005 0.00125378 0)
(1.00058 0.0015133 0)
(1.00054 0.00200785 0)
(1.00064 0.00251552 0)
(1.00113 0.00294074 0)
(1.00164 0.00321136 0)
(1.00195 0.00350723 0)
(1.00201 0.00377912 0)
(1.00204 0.00409096 0)
(1.00004 -1.82188e-05 0)
(1.00005 -0.000122072 0)
(1.00008 -0.000312463 0)
(0.999982 -0.000133878 0)
(0.999785 0.000530355 0)
(1.00007 0.000747892 0)
(1.00062 0.00061917 0)
(1.00094 0.00064249 0)
(1.00069 0.000817466 0)
(1.00044 0.00103521 0)
(1.00039 0.0011384 0)
(1.00064 0.00134621 0)
(1.00076 0.00156279 0)
(1.00079 0.00199276 0)
(1.0009 0.00246013 0)
(1.00134 0.00286457 0)
(1.00183 0.00310206 0)
(1.00215 0.00337257 0)
(1.00223 0.00361635 0)
(1.00225 0.00386612 0)
(1.00004 -1.75859e-05 0)
(1.00004 -8.02677e-05 0)
(1.0001 -0.000202806 0)
(1.00009 -0.000137159 0)
(0.999913 0.000484515 0)
(1.00013 0.000811841 0)
(1.00064 0.000699698 0)
(1.00101 0.000647293 0)
(1.0008 0.000800664 0)
(1.00055 0.00109247 0)
(1.00049 0.00124557 0)
(1.00076 0.00143863 0)
(1.00093 0.00161672 0)
(1.00103 0.00198362 0)
(1.00114 0.0023907 0)
(1.00154 0.00278039 0)
(1.00201 0.00299875 0)
(1.00234 0.00323182 0)
(1.00242 0.00346545 0)
(1.00244 0.00366736 0)
(1.00004 -1.16932e-05 0)
(1.00004 -4.85741e-05 0)
(1.00011 -9.71501e-05 0)
(1.00019 -0.000105622 0)
(1.00005 0.000429678 0)
(1.0002 0.000837497 0)
(1.00065 0.000785373 0)
(1.00106 0.000690515 0)
(1.00091 0.000792336 0)
(1.00068 0.00111503 0)
(1.0006 0.00132623 0)
(1.00087 0.00152133 0)
(1.00108 0.00166751 0)
(1.00123 0.00198137 0)
(1.00138 0.00232411 0)
(1.00174 0.00268211 0)
(1.00217 0.00289922 0)
(1.00252 0.00309356 0)
(1.0026 0.00331125 0)
(1.00261 0.00349762 0)
(1.00003 -1.58279e-06 0)
(1.00004 -2.3479e-05 0)
(1.00011 -5.42973e-07 0)
(1.00026 -4.85145e-05 0)
(1.00018 0.000381971 0)
(1.00028 0.000829302 0)
(1.00066 0.000862141 0)
(1.0011 0.000757897 0)
(1.00101 0.000803708 0)
(1.00081 0.00112069 0)
(1.00072 0.00137294 0)
(1.00097 0.00159263 0)
(1.00122 0.00171776 0)
(1.00142 0.00197964 0)
(1.00159 0.0022702 0)
(1.00193 0.00258088 0)
(1.00233 0.0027915 0)
(1.00268 0.00296339 0)
(1.00278 0.00314507 0)
(1.00275 0.00333907 0)
(1.00003 1.04396e-05 0)
(1.00005 -8.63303e-07 0)
(1.00012 8.2583e-05 0)
(1.00032 2.7317e-05 0)
(1.0003 0.000352717 0)
(1.00038 0.000801943 0)
(1.00068 0.000921023 0)
(1.00111 0.000838013 0)
(1.00109 0.000838035 0)
(1.00095 0.00112512 0)
(1.00085 0.00138788 0)
(1.00108 0.00163809 0)
(1.00133 0.00176314 0)
(1.00158 0.00197838 0)
(1.00177 0.00221928 0)
(1.00211 0.00249005 0)
(1.00248 0.00267628 0)
(1.00282 0.00284058 0)
(1.00294 0.00297914 0)
(1.00289 0.00317534 0)
(1.00002 2.33434e-05 0)
(1.00006 2.02613e-05 0)
(1.00013 0.000149241 0)
(1.00037 0.000115058 0)
(1.0004 0.000349628 0)
(1.00048 0.000765749 0)
(1.00071 0.000955083 0)
(1.00113 0.000920228 0)
(1.00117 0.000892991 0)
(1.00108 0.001136 0)
(1.00099 0.00139073 0)
(1.0012 0.00165229 0)
(1.00144 0.00179149 0)
(1.00171 0.00198151 0)
(1.00194 0.00216905 0)
(1.00227 0.00240614 0)
(1.00262 0.00256374 0)
(1.00295 0.0027168 0)
(1.0031 0.00282341 0)
(1.00303 0.00299914 0)
(1.00002 3.57941e-05 0)
(1.00007 4.38862e-05 0)
(1.00014 0.000199908 0)
(1.0004 0.000200676 0)
(1.0005 0.000372148 0)
(1.00059 0.000733487 0)
(1.00076 0.000966826 0)
(1.00114 0.000991263 0)
(1.00122 0.000962445 0)
(1.0012 0.00115636 0)
(1.00112 0.0013918 0)
(1.00132 0.00165011 0)
(1.00155 0.00179468 0)
(1.00183 0.00197917 0)
(1.00208 0.00212759 0)
(1.00241 0.00232371 0)
(1.00274 0.00245872 0)