/*--------------------------------*- C++ -*----------------------------------*\
| =========                 |                                                 |
| \\      /  F ield         | OpenFOAM: The Open Source CFD Toolbox           |
|  \\    /   O peration     | Version:  v1812                                 |
|   \\  /    A nd           | Web:      www.OpenFOAM.com                      |
|    \\/     M anipulation  |                                                 |
\*---------------------------------------------------------------------------*/
FoamFile
{
    version     2.0;
    format      ascii;
    class       volScalarField;
    location    "5.9";
    object      p;
}
// * * * * * * * * * * * * * * * * * * * * * * * * * * * * * * * * * * * * * //

dimensions      [0 2 -2 0 0 0 0];


internalField   nonuniform List<scalar> 
9600
(
-1.89213e-10
-0.00238157
-0.000775989
-0.00426377
-0.00310111
-0.00386289
-0.00276013
0.000221212
0.000272528
-0.00368029
-0.00563373
-0.00928015
-0.0105717
-0.00894967
-0.00843129
-0.00638674
-0.00683815
-0.00463058
-0.00288137
0.00277687
2.47054e-06
-0.00238893
-0.000774883
-0.00426601
-0.00310683
-0.00384136
-0.00275216
0.00019259
0.000280669
-0.00374305
-0.00562827
-0.00929393
-0.0105712
-0.00892826
-0.0084297
-0.00639326
-0.0068151
-0.00464496
-0.00285147
0.00216615
4.64207e-06
-0.00239804
-0.000770686
-0.00426981
-0.00311091
-0.00381688
-0.00275023
0.000154391
0.000300137
-0.00381563
-0.00561881
-0.00928609
-0.0105671
-0.00888632
-0.00842106
-0.00641887
-0.00678785
-0.00467492
-0.00285217
0.00159899
5.25589e-06
-0.00241003
-0.000769594
-0.00427431
-0.00311302
-0.00379782
-0.00275183
0.000107434
0.000301206
-0.00390293
-0.00561649
-0.00924802
-0.0105668
-0.00883453
-0.00841335
-0.00646316
-0.00675931
-0.00471897
-0.00288031
0.0010698
4.19598e-06
-0.002426
-0.00077364
-0.00427851
-0.00311415
-0.00378102
-0.00275308
4.75024e-05
0.000277414
-0.00400344
-0.00561942
-0.00918754
-0.0105674
-0.00878004
-0.00840719
-0.00651733
-0.00673175
-0.0047744
-0.0029277
0.000559995
1.21212e-06
-0.00244713
-0.000780994
-0.00428082
-0.0031149
-0.00376534
-0.00275406
-2.68332e-05
0.00023716
-0.00411329
-0.00562106
-0.00910779
-0.0105637
-0.00872598
-0.00839839
-0.0065764
-0.00670685
-0.00483671
-0.00299407
5.48516e-05
-4.02225e-06
-0.00247407
-0.00078912
-0.0042799
-0.00311574
-0.00375035
-0.00275601
-0.000114388
0.000188819
-0.00422813
-0.00561894
-0.00901232
-0.0105528
-0.00867281
-0.0083843
-0.00663882
-0.00668611
-0.00490274
-0.00308235
-0.000447707
-1.16591e-05
-0.00250699
-0.000796377
-0.00427481
-0.00311703
-0.00373589
-0.00276011
-0.00021365
0.000138013
-0.00434416
-0.00561384
-0.00890447
-0.0105335
-0.00861983
-0.00836548
-0.00670317
-0.00667038
-0.00497237
-0.00319402
-0.000939803
-2.16256e-05
-0.00254577
-0.000801946
-0.00426515
-0.00311903
-0.00372178
-0.00276748
-0.000323401
8.88337e-05
-0.00445869
-0.00560721
-0.00878652
-0.0105056
-0.00856663
-0.00834371
-0.00676713
-0.00666134
-0.0050479
-0.00332533
-0.00142334
-3.36536e-05
-0.00259
-0.00080565
-0.0042511
-0.0031219
-0.00370793
-0.00277886
-0.000442433
4.34987e-05
-0.00457009
-0.00560042
-0.00865992
-0.0104697
-0.008513
-0.00832017
-0.00682933
-0.00666126
-0.00513058
-0.00347145
-0.00189944
-4.73446e-05
-0.002639
-0.000807918
-0.00423323
-0.00312578
-0.00369426
-0.00279438
-0.000569547
2.0156e-06
-0.00467756
-0.00559473
-0.00852589
-0.0104272
-0.00845866
-0.00829595
-0.00688971
-0.00667055
-0.0052206
-0.0036297
-0.00237034
-6.22715e-05
-0.00269186
-0.000809574
-0.00421244
-0.00313079
-0.00368064
-0.00281365
-0.000703661
-3.71762e-05
-0.00478052
-0.00559161
-0.008386
-0.0103793
-0.00840348
-0.00827285
-0.00694794
-0.00668811
-0.00531976
-0.00379832
-0.0028363
-7.8083e-05
-0.00274757
-0.000811525
-0.00418976
-0.00313702
-0.00366688
-0.00283611
-0.000843634
-7.64337e-05
-0.00487841
-0.00559271
-0.00824197
-0.0103276
-0.00834753
-0.00825243
-0.0070038
-0.00671294
-0.00543177
-0.00397455
-0.00329391
-9.45704e-05
-0.00280514
-0.000814534
-0.00416616
-0.00314459
-0.00365273
-0.00286131
-0.00098807
-0.0001183
-0.00497087
-0.00559954
-0.00809526
-0.0102738
-0.00829095
-0.00823496
-0.00705866
-0.00674355
-0.00556025
-0.0041566
-0.00373891
-0.000111677
-0.00286376
-0.000819183
-0.00414232
-0.00315365
-0.00363801
-0.00288902
-0.0011355
-0.000165188
-0.00505784
-0.00561326
-0.00794701
-0.0102193
-0.00823381
-0.00822027
-0.0071149
-0.00677675
-0.00570778
-0.00434544
-0.00416742
-0.000129464
-0.0029229
-0.000825903
-0.00411857
-0.00316439
-0.00362255
-0.00291945
-0.00128464
-0.000219083
-0.00513931
-0.00563447
-0.00779797
-0.010165
-0.00817619
-0.00820778
-0.00717576
-0.00680858
-0.00587558
-0.00454402
-0.0045747
-0.000148063
-0.00298228
-0.000835024
-0.00409495
-0.00317706
-0.00360621
-0.00295312
-0.00143438
-0.000281333
-0.00521508
-0.00566367
-0.00764847
-0.0101115
-0.00811877
-0.00819531
-0.00724541
-0.00683636
-0.00606244
-0.00475655
-0.00495501
-0.000167637
-0.00304176
-0.000846825
-0.00407134
-0.00319195
-0.00358888
-0.00299061
-0.00158383
-0.0003527
-0.00528493
-0.00570163
-0.00749867
-0.0100591
-0.00806283
-0.00817989
-0.00732787
-0.00685921
-0.00626455
-0.00498856
-0.00530394
-0.000188368
-0.00310127
-0.000861561
-0.00404756
-0.00320942
-0.00357035
-0.00303247
-0.00173223
-0.000433571
-0.00534885
-0.00574902
-0.0073489
-0.0100075
-0.00801027
-0.00815792
-0.0074267
-0.00687857
-0.00647586
-0.0052467
-0.00561932
-0.000210453
-0.00316074
-0.000879481
-0.00402337
-0.00322985
-0.00355047
-0.0030792
-0.00187899
-0.000524174
-0.00540685
-0.00580631
-0.00719981
-0.00995597
-0.00796424
-0.00812581
-0.0075442
-0.00689804
-0.00668774
-0.00553715
-0.00590341
-0.000234098
-0.00322016
-0.000900871
-0.00399845
-0.00325364
-0.00352918
-0.00313118
-0.00202378
-0.000624888
-0.00545881
-0.00587365
-0.00705249
-0.00990263
-0.00792853
-0.00808133
-0.0076801
-0.00692358
-0.00689
-0.00586164
-0.00616452
-0.000259499
-0.00327953
-0.000926057
-0.00397248
-0.00328118
-0.00350643
-0.0031888
-0.00216645
-0.00073619
-0.00550487
-0.00595063
-0.00690834
-0.00984546
-0.00790633
-0.00802323
-0.00783222
-0.00696415
-0.0070737
-0.00621647
-0.0064159
-0.000286843
-0.00333882
-0.000955411
-0.00394518
-0.00331288
-0.00348207
-0.00325244
-0.00230375
-0.000858074
-0.00554519
-0.00603667
-0.00676903
-0.00978252
-0.00790047
-0.00795146
-0.00799614
-0.00702956
-0.00723266
-0.00659422
-0.00667251
-0.000316304
-0.00339796
-0.000989366
-0.00391623
-0.00334921
-0.00345613
-0.00332226
-0.00244302
-0.000990308
-0.00558021
-0.00613043
-0.00663684
-0.00971206
-0.00791326
-0.0078678
-0.00816515
-0.00712839
-0.00736394
-0.00698438
-0.00689979
-0.000348053
-0.00345689
-0.00102841
-0.00388533
-0.00339059
-0.00342876
-0.00339836
-0.00258133
-0.0011324
-0.00561106
-0.00622992
-0.00651401
-0.00963257
-0.00794588
-0.00777566
-0.00833253
-0.00726709
-0.00746825
-0.00737507
-0.00720048
-0.000382243
-0.00351551
-0.00107309
-0.00385219
-0.00343746
-0.00340002
-0.00348067
-0.0027193
-0.00128312
-0.00563931
-0.0063335
-0.00640192
-0.00954323
-0.00799933
-0.00767921
-0.00849108
-0.00745026
-0.00755215
-0.00774852
-0.00754877
-0.000419026
-0.00357369
-0.00112395
-0.00381655
-0.00349027
-0.00336998
-0.0035686
-0.00285843
-0.001441
-0.00566656
-0.00643977
-0.00630153
-0.00944408
-0.00807383
-0.00758313
-0.00863311
-0.00767973
-0.00762876
-0.00808535
-0.00794227
-0.00045858
-0.00363128
-0.00118159
-0.0037781
-0.00354934
-0.00333944
-0.00366112
-0.00300043
-0.00160437
-0.00569393
-0.00654784
-0.00621396
-0.00933483
-0.00816868
-0.00749349
-0.00875108
-0.00795316
-0.00771509
-0.0083706
-0.00836874
-0.000501097
-0.00368808
-0.00124671
-0.00373654
-0.00361477
-0.00330932
-0.00375692
-0.0031469
-0.001771
-0.00572235
-0.00665758
-0.00613994
-0.00921549
-0.00828287
-0.00741753
-0.00883766
-0.00826385
-0.00782929
-0.00859554
-0.00880955
-0.000546758
-0.00374391
-0.00132003
-0.00369168
-0.00368661
-0.00328062
-0.0038543
-0.00329964
-0.00193862
-0.00575239
-0.00676948
-0.00607966
-0.00908707
-0.00841534
-0.00736246
-0.0088875
-0.00860085
-0.00798777
-0.00876062
-0.00923888
-0.000595767
-0.0037985
-0.00140221
-0.00364341
-0.00376489
-0.0032545
-0.00395113
-0.00346049
-0.00210568
-0.00578355
-0.0068847
-0.00603373
-0.00894946
-0.00856425
-0.00733594
-0.00889842
-0.00894956
-0.00820326
-0.00887925
-0.00961798
-0.000648364
-0.00385152
-0.001494
-0.00359166
-0.00384925
-0.00323288
-0.00404455
-0.00363111
-0.00227197
-0.00581411
-0.00700538
-0.00600357
-0.00880113
-0.00872578
-0.00734752
-0.00887225
-0.0092919
-0.00848175
-0.00897401
-0.00991873
-0.000704817
-0.00390256
-0.00159621
-0.00353651
-0.00393873
-0.00321825
-0.00413157
-0.00381259
-0.00243834
-0.00584199
-0.00713343
-0.00599159
-0.00864129
-0.00889523
-0.00740492
-0.00881427
-0.00960921
-0.00882016
-0.00907123
-0.0101292
-0.000765439
-0.00395117
-0.00170951
-0.00347831
-0.00403221
-0.00321304
-0.00420936
-0.00400533
-0.00260655
-0.00586436
-0.00726929
-0.00600142
-0.00846948
-0.00906729
-0.00751363
-0.00873251
-0.00988421
-0.00920705
-0.00920116
-0.0102575
-0.000830573
-0.00399685
-0.00183446
-0.00341748
-0.00412815
-0.00322012
-0.00427523
-0.00420882
-0.00277947
-0.00587813
-0.00741214
-0.00603817
-0.00828563
-0.0092338
-0.00767837
-0.00864119
-0.0101016
-0.00962571
-0.00938803
-0.0103249
-0.000900581
-0.00403904
-0.00197148
-0.00335513
-0.0042245
-0.00324263
-0.00432762
-0.00442082
-0.00296101
-0.00588151
-0.00755988
-0.00610784
-0.00809194
-0.00938333
-0.00789948
-0.00855961
-0.0102524
-0.0100541
-0.00963662
-0.0103657
-0.000975846
-0.00407716
-0.00212087
-0.00329325
-0.00431852
-0.00328378
-0.00436621
-0.00463752
-0.00315525
-0.00587381
-0.00770904
-0.00621602
-0.00789204
-0.00950414
-0.00817361
-0.00850787
-0.0103346
-0.0104662
-0.00995327
-0.0104248
-0.00105685
-0.00411071
-0.00228255
-0.00323327
-0.00440728
-0.00334633
-0.0043915
-0.00485426
-0.00336626
-0.00585587
-0.00785445
-0.0063656
-0.00769991
-0.0095871
-0.00849265
-0.00850438
-0.0103533
-0.0108384
-0.0103188
-0.0105339
-0.00114403
-0.00413933
-0.00245607
-0.00317744
-0.00448758
-0.00343247
-0.00440553
-0.00506507
-0.00359797
-0.0058314
-0.00798816
-0.00655708
-0.00752727
-0.00962354
-0.0088413
-0.00856678
-0.0103228
-0.0111521
-0.0107123
-0.0107026
-0.00123781
-0.00416266
-0.00264064
-0.00312859
-0.0045562
-0.00354339
-0.00441182
-0.00526335
-0.00385282
-0.00580598
-0.008102
-0.00678915
-0.00738908
-0.00960832
-0.00919884
-0.00870647
-0.0102646
-0.0113928
-0.011115
-0.0109281
-0.00133869
-0.00418042
-0.00283481
-0.00309022
-0.00461055
-0.00367883
-0.00441547
-0.00544303
-0.00413046
-0.00578709
-0.00819004
-0.0070564
-0.00730125
-0.00954488
-0.00954248
-0.00892492
-0.0102041
-0.0115528
-0.0115073
-0.0112044
-0.00144712
-0.00419242
-0.00303663
-0.00306624
-0.00464839
-0.00383726
-0.00442384
-0.00559777
-0.00442753
-0.00578487
-0.00824832
-0.00734915
-0.00727681
-0.00944179
-0.00984994
-0.0092089
-0.0101704
-0.0116368
-0.0118659
-0.0115229
-0.00156367
-0.00419858
-0.00324369
-0.00306063
-0.00466827
-0.00401593
-0.00444516
-0.00572364
-0.00473817
-0.0058095
-0.00827656
-0.00765429
-0.00732228
-0.00931501
-0.0101019
-0.00954094
-0.0101924
-0.0116606
-0.0121612
-0.0118665
-0.00168888
-0.0041991
-0.00345282
-0.00307741
-0.00467048
-0.00420944
-0.00448753
-0.00582092
-0.0050538
-0.00586889
-0.00827858
-0.00795666
-0.00743867
-0.00915129
-0.0102882
-0.00989969
-0.010284
-0.0116406
-0.0123747
-0.0122074
-0.0018232
-0.00419445
-0.00366022
-0.00312049
-0.00465674
-0.00441002
-0.00455824
-0.00589222
-0.00536383
-0.00596814
-0.00826192
-0.00824281
-0.00762403
-0.00905235
-0.0104099
-0.0102536
-0.0104462
-0.0116296
-0.0125143
-0.0125163
-0.00196688
-0.00418551
-0.00386192
-0.00319306
-0.00463055
-0.00460832
-0.00466163
-0.00594503
-0.00565845
-0.00610792
-0.00823858
-0.00850238
-0.00786464
-0.00898951
-0.0104729
-0.0105789
-0.0106674
-0.011648
-0.0125999
-0.0127722
-0.0021198
-0.0041738
-0.00405326
-0.00329698
-0.00459859
-0.0047947
-0.00479799
-0.00599164
-0.00593081
-0.00628356
-0.00822178
-0.00872698
-0.00814149
-0.00897579
-0.0104355
-0.0108573
-0.010929
-0.0117088
-0.0126555
-0.0129731
-0.0022814
-0.00416177
-0.00422984
-0.003432
-0.00457034
-0.00496275
-0.0049641
-0.00604305
-0.00617832
-0.00648621
-0.00822099
-0.00891427
-0.00843652
-0.00902381
-0.0104359
-0.0110843
-0.0112098
-0.0118161
-0.0127005
-0.0131261
-0.00245065
-0.00415267
-0.00438925
-0.00359552
-0.00452557
-0.00511027
-0.00515123
-0.00610673
-0.0064013
-0.00670658
-0.00824234
-0.00906808
-0.00873284
-0.00913124
-0.0104358
-0.0112602
-0.011487
-0.0119663
-0.0127504
-0.0132394
-0.00262634
-0.00414771
-0.00452968
-0.00378375
-0.00453513
-0.00523687
-0.00534886
-0.00618758
-0.0066024
-0.00693626
-0.00829018
-0.00919518
-0.00901691
-0.00928727
-0.0104537
-0.011394
-0.0117442
-0.0121497
-0.01282
-0.0133231
-0.00280723
-0.00415474
-0.00465121
-0.00398964
-0.00457347
-0.00534737
-0.00554895
-0.00628712
-0.00678642
-0.00716791
-0.0083658
-0.0093044
-0.00927999
-0.00947779
-0.0104995
-0.0115015
-0.0119757
-0.012353
-0.0129187
-0.0133927
-0.00299199
-0.0041732
-0.00475687
-0.00420468
-0.00464329
-0.00545239
-0.00574756
-0.00640389
-0.00695729
-0.00739628
-0.00846801
-0.00940483
-0.00951803
-0.00968851
-0.0105752
-0.0115958
-0.0121806
-0.012562
-0.0130455
-0.0134663
-0.00317919
-0.00420485
-0.00484956
-0.00442212
-0.00474531
-0.00555952
-0.00594367
-0.00653577
-0.00711691
-0.0076169
-0.0085936
-0.00950574
-0.0097327
-0.00990659
-0.0106783
-0.0116846
-0.0123616
-0.0127675
-0.0131909
-0.0135569
-0.00336724
-0.00425076
-0.00493251
-0.00463745
-0.00487649
-0.00567449
-0.00613812
-0.00668157
-0.00726743
-0.00782434
-0.00873705
-0.00961562
-0.00992891
-0.0101236
-0.0108028
-0.011772
-0.0125207
-0.0129669
-0.0133471
-0.0136657
-0.0035547
-0.0043111
-0.00501051
-0.00484793
-0.00503236
-0.00580069
-0.00633262
-0.00684072
-0.00741238
-0.00801387
-0.00889122
-0.00973898
-0.0101141
-0.0103364
-0.0109419
-0.0118605
-0.0126588
-0.0131582
-0.0135105
-0.0137855
-0.00374034
-0.00438544
-0.00508832
-0.00505287
-0.0052082
-0.00593938
-0.00652859
-0.00701338
-0.00755414
-0.00818433
-0.00904783
-0.00987483
-0.0102962
-0.0105445
-0.011092
-0.0119522
-0.0127755
-0.0133355
-0.013681
-0.0139117
-0.00392331
-0.00447238
-0.00517013
-0.00525372
-0.00540025
-0.00608878
-0.00672673
-0.00719985
-0.0076963
-0.00833717
-0.00919909
-0.0100189
-0.0104799
-0.010751
-0.0112508
-0.0120506
-0.0128737
-0.0134897
-0.0138545
-0.0140465
-0.00410405
-0.00457032
-0.00525866
-0.00545224
-0.00560398
-0.00624616
-0.00692421
-0.00740023
-0.00784711
-0.00847479
-0.00933893
-0.0101659
-0.0106649
-0.0109595
-0.0114172
-0.0121575
-0.0129621
-0.0136139
-0.0140197
-0.0141918
-0.00428466
-0.00468127
-0.00535394
-0.0056477
-0.00581593
-0.00640855
-0.0071154
-0.00761159
-0.00801572
-0.00860506
-0.00946354
-0.0103088
-0.0108495
-0.0111714
-0.0115932
-0.0122727
-0.0130487
-0.0137123
-0.0141617
-0.0143416
-0.00446596
-0.00480433
-0.00545616
-0.00583875
-0.00603514
-0.0065764
-0.00729692
-0.00782981
-0.00820601
-0.00874016
-0.0095745
-0.0104384
-0.0110278
-0.0113844
-0.0117815
-0.0123965
-0.0131371
-0.0137977
-0.0142739
-0.0144839
-0.00464824
-0.00493914
-0.00556584
-0.00602481
-0.00626076
-0.00675123
-0.00746744
-0.00804719
-0.00841626
-0.00888991
-0.00967742
-0.0105505
-0.011192
-0.011593
-0.0119805
-0.0125339
-0.0132277
-0.0138786
-0.0143636
-0.0146044
-0.00483195
-0.0050854
-0.00568418
-0.00620517
-0.00648959
-0.00693623
-0.00762963
-0.00825363
-0.00864135
-0.0090611
-0.00978141
-0.0106462
-0.0113363
-0.0117889
-0.0121837
-0.0126892
-0.0133246
-0.0139576
-0.0144415
-0.014699
-0.00501748
-0.00524234
-0.00581157
-0.00637992
-0.00671848
-0.00713405
-0.0077885
-0.00844305
-0.00887076
-0.00925553
-0.00989673
-0.0107285
-0.0114574
-0.0119663
-0.0123814
-0.0128575
-0.0134348
-0.0140363
-0.014515
-0.0147758
-0.00520468
-0.00540832
-0.0059496
-0.00655048
-0.00694512
-0.00734331
-0.0079494
-0.00861575
-0.00909057
-0.00946717
-0.0100331
-0.0108064
-0.0115551
-0.0121204
-0.0125657
-0.0130288
-0.0135598
-0.0141187
-0.0145863
-0.0148434
-0.00539368
-0.00558292
-0.00609842
-0.0067184
-0.00716636
-0.0075608
-0.00811804
-0.00877661
-0.00929245
-0.00968517
-0.0101926
-0.0108925
-0.0116329
-0.0122452
-0.0127305
-0.0131937
-0.0136928
-0.0142088
-0.0146567
-0.0149088
-0.0055847
-0.00576412
-0.00625888
-0.00688549
-0.00737947
-0.0077829
-0.00829698
-0.00893094
-0.00947548
-0.0098964
-0.010367
-0.0109956
-0.0117025
-0.012341
-0.0128671
-0.0133431
-0.0138242
-0.0143041
-0.0147266
-0.0149737
-0.00577823
-0.00595142
-0.00642931
-0.00705433
-0.00758475
-0.00800616
-0.0084862
-0.00908392
-0.0096413
-0.0100919
-0.0105455
-0.0111128
-0.0117748
-0.0124168
-0.012974
-0.0134687
-0.0139427
-0.0143968
-0.0147911
-0.0150294
-0.00597423
-0.00614218
-0.00660883
-0.00722788
-0.00778254
-0.00822615
-0.00868342
-0.00924172
-0.00979524
-0.0102705
-0.010719
-0.0112358
-0.0118472
-0.0124771
-0.0130531
-0.0135692
-0.0140467
-0.0144845
-0.0148542
-0.015075
-0.00617332
-0.00633661
-0.0067955
-0.00740647
-0.00797504
-0.00844031
-0.00888498
-0.00940477
-0.00994031
-0.01043
-0.0108833
-0.0113641
-0.0119188
-0.0125176
-0.0130964
-0.0136315
-0.0141267
-0.0145636
-0.0149193
-0.0151263
-0.00637567
-0.00653687
-0.00698683
-0.00759005
-0.00816451
-0.00864751
-0.00908733
-0.0095749
-0.0100837
-0.0105716
-0.0110253
-0.0114873
-0.0119954
-0.0125487
-0.0131079
-0.013641
-0.0141515
-0.0146053
-0.0149633
-0.0151679
-0.00657957
-0.00673578
-0.00718252
-0.00778003
-0.00835437
-0.00884932
-0.00928693
-0.00974769
-0.0102319
-0.010708
-0.0111492
-0.0115899
-0.01206
-0.0125687
-0.0130983
-0.0136121
-0.014113
-0.014573
-0.0149461
-0.0151685
-0.00678626
-0.00693925
-0.00738036
-0.00797252
-0.00854449
-0.00904783
-0.00948663
-0.00992334
-0.0103784
-0.0108368
-0.0112599
-0.0116743
-0.012103
-0.0125612
-0.0130551
-0.0135433
-0.0140175
-0.0144639
-0.014839
-0.0150773
-0.00699567
-0.00714727
-0.00757999
-0.00816615
-0.00873551
-0.0092415
-0.00968109
-0.0101076
-0.010538
-0.0109629
-0.0113533
-0.0117288
-0.0121078
-0.0125157
-0.0129709
-0.0134367
-0.0138929
-0.0143126
-0.0146564
-0.0148632
-0.00720424
-0.00735315
-0.00778166
-0.0083609
-0.00892731
-0.00943385
-0.00987108
-0.010294
-0.0107233
-0.0111256
-0.0114625
-0.0117517
-0.0120177
-0.0123009
-0.0126508
-0.0130695
-0.0135527
-0.0140838
-0.0145945
-0.0149926
-0.00741188
-0.00756129
-0.00798557
-0.00855308
-0.0091108
-0.00961797
-0.0100558
-0.0104817
-0.0109273
-0.0113736
-0.0117678
-0.0120435
-0.0121781
-0.012276
-0.0124278
-0.0126076
-0.0127417
-0.0127993
-0.0128142
-0.0128667
-0.00762513
-0.00777415
-0.00819184
-0.00873892
-0.00927361
-0.00976569
-0.0102163
-0.0106602
-0.0110354
-0.0113015
-0.0114976
-0.0116896
-0.0118971
-0.0121061
-0.0123426
-0.0125931
-0.0128213
-0.0130287
-0.0132427
-0.0134998
-0.00784429
-0.00800195
-0.00841479
-0.00895081
-0.00945458
-0.00986141
-0.0101863
-0.0105221
-0.0108753
-0.0112272
-0.0115647
-0.0118753
-0.0121696
-0.0124116
-0.0125629
-0.0126535
-0.0126745
-0.0126337
-0.0125883
-0.0126395
-0.00806021
-0.00816147
-0.00850572
-0.00897437
-0.00942447
-0.00982523
-0.0101723
-0.0105385
-0.0109293
-0.0112828
-0.0115918
-0.0118533
-0.0120742
-0.0123065
-0.0125818
-0.0129477
-0.0134303
-0.0139928
-0.0145737
-0.015075
-0.0083016
-0.00842252
-0.00867471
-0.00903265
-0.00942554
-0.00982093
-0.0101942
-0.0105942
-0.011006
-0.0113771
-0.0116882
-0.0119625
-0.0121967
-0.0123811
-0.0125131
-0.0125714
-0.0125745
-0.0125504
-0.0125636
-0.0127069
-0.00846177
-0.00856033
-0.00877865
-0.00909436
-0.0094472
-0.0098252
-0.010204
-0.0106142
-0.0110152
-0.0113757
-0.0116882
-0.0119574
-0.0121945
-0.0123839
-0.0125423
-0.0127041
-0.0128916
-0.0130965
-0.0133205
-0.0136156
0.00465255
-0.00277165
-0.0110284
-0.0171718
-0.0191625
-0.018969
-0.0188565
-0.0189246
-0.0186657
-0.0180292
-0.0174469
-0.0172215
-0.017274
-0.0175033
-0.0178305
-0.0180346
-0.0180487
-0.0180834
-0.0182493
-0.0184552
-0.0186251
-0.0187504
-0.018877
-0.0191225
-0.0195044
-0.0198911
-0.0202538
-0.020718
-0.0212722
-0.0217333
-0.021994
-0.0221182
-0.0222472
-0.0224809
-0.0227872
-0.0230991
-0.0233788
-0.0236501
-0.0239879
-0.0244235
-0.0248894
-0.0253259
-0.0257247
-0.0260795
-0.0263716
-0.0266436
-0.026951
-0.0272936
-0.0276652
-0.0280525
-0.0284467
-0.0288387
-0.0292213
-0.0296083
-0.0300158
-0.0304371
-0.0308826
-0.0313196
-0.0317711
-0.0322413
-0.032696
-0.0330922
-0.0335054
-0.0339755
-0.0344405
-0.0349012
-0.0353918
-0.0358963
-0.0363852
-0.036887
-0.0374062
-0.0379307
-0.0384565
-0.0389676
-0.039523
-0.0401259
-0.040754
-0.041348
-0.0419476
-0.0425351
-0.0431275
-0.0437662
-0.0444124
-0.0450866
-0.0457564
-0.0464523
-0.0471252
-0.0478393
-0.0485528
-0.04931
-0.050032
-0.0507986
-0.0515946
-0.0523542
-0.0531611
-0.0539155
-0.0547134
-0.055435
-0.0563334
-0.0572275
0.00386303
-0.00292409
-0.010943
-0.0170075
-0.0190631
-0.0189246
-0.0188334
-0.0189116
-0.0186575
-0.018023
-0.0174411
-0.0172159
-0.0172684
-0.0174982
-0.0178263
-0.0180313
-0.0180455
-0.01808
-0.018246
-0.0184522
-0.0186224
-0.0187478
-0.0188744
-0.0191198
-0.019502
-0.019889
-0.0202517
-0.020716
-0.0212704
-0.0217318
-0.0219926
-0.0221168
-0.0222458
-0.0224796
-0.022786
-0.023098
-0.0233779
-0.0236492
-0.0239869
-0.0244226
-0.0248887
-0.0253253
-0.0257241
-0.0260789
-0.0263711
-0.0266431
-0.0269505
-0.0272931
-0.0276648
-0.028052
-0.0284463
-0.0288383
-0.0292209
-0.0296079
-0.0300155
-0.0304368
-0.0308823
-0.0313192
-0.0317708
-0.032241
-0.0326957
-0.0330919
-0.0335052
-0.0339753
-0.0344403
-0.0349009
-0.0353916
-0.0358961
-0.036385
-0.0368867
-0.037406
-0.0379305
-0.0384563
-0.0389674
-0.0395228
-0.0401257
-0.0407538
-0.0413479
-0.0419474
-0.042535
-0.0431274
-0.043766
-0.0444123
-0.0450864
-0.0457562
-0.0464522
-0.0471251
-0.0478391
-0.0485527
-0.0493099
-0.0500319
-0.0507985
-0.0515945
-0.0523541
-0.053161
-0.0539154
-0.0547133
-0.0554349
-0.0563333
-0.0572275
0.00313856
-0.00311042
-0.0108109
-0.0167335
-0.0189034
-0.0188656
-0.0188002
-0.0188871
-0.0186402
-0.0180112
-0.0174334
-0.0172108
-0.0172639
-0.0174933
-0.0178217
-0.0180276
-0.0180425
-0.0180773
-0.0182434
-0.0184496
-0.0186199
-0.0187456
-0.0188722
-0.0191176
-0.0194998
-0.019887
-0.0202497
-0.0207142
-0.0212691
-0.0217307
-0.0219915
-0.0221155
-0.0222444
-0.0224783
-0.0227849
-0.0230971
-0.023377
-0.0236483
-0.023986
-0.0244218
-0.024888
-0.0253247
-0.0257236
-0.0260785
-0.0263706
-0.0266426
-0.0269501
-0.0272927
-0.0276644
-0.0280517
-0.028446
-0.028838
-0.0292206
-0.0296076
-0.0300152
-0.0304365
-0.030882
-0.031319
-0.0317706
-0.0322408
-0.0326955
-0.0330917
-0.0335049
-0.0339751
-0.0344401
-0.0349007
-0.0353914
-0.0358959
-0.0363848
-0.0368866
-0.0374059
-0.0379304
-0.0384562
-0.0389672
-0.0395227
-0.0401256
-0.0407537
-0.0413477
-0.0419473
-0.0425349
-0.0431272
-0.0437659
-0.0444122
-0.0450863
-0.0457561
-0.0464521
-0.047125
-0.0478391
-0.0485526
-0.0493098
-0.0500319
-0.0507984
-0.0515944
-0.0523541
-0.0531609
-0.0539153
-0.0547132
-0.0554348
-0.0563332
-0.0572277
0.00245646
-0.00330749
-0.010654
-0.0163954
-0.0186845
-0.0187753
-0.0187425
-0.0188397
-0.0186048
-0.0179884
-0.0174214
-0.0172053
-0.01726
-0.0174877
-0.0178146
-0.0180214
-0.0180388
-0.0180754
-0.0182414
-0.0184466
-0.0186168
-0.0187433
-0.0188705
-0.0191157
-0.0194975
-0.0198845
-0.0202474
-0.0207125
-0.0212679
-0.0217297
-0.0219903
-0.0221141
-0.0222429
-0.022477
-0.0227837
-0.0230959
-0.0233759
-0.0236472
-0.023985
-0.0244209
-0.0248873
-0.0253242
-0.0257231
-0.0260781
-0.0263702
-0.0266421
-0.0269496
-0.0272922
-0.027664
-0.0280513
-0.0284457
-0.0288376
-0.0292203
-0.0296073
-0.0300149
-0.0304362
-0.0308817
-0.0313187
-0.0317703
-0.0322405
-0.0326953
-0.0330915
-0.0335047
-0.0339748
-0.0344399
-0.0349005
-0.0353912
-0.0358957
-0.0363846
-0.0368864
-0.0374057
-0.0379302
-0.038456
-0.038967
-0.0395225
-0.0401254
-0.0407536
-0.0413476
-0.0419471
-0.0425347
-0.0431271
-0.0437658
-0.0444121
-0.0450862
-0.045756
-0.046452
-0.0471249
-0.047839
-0.0485525
-0.0493097
-0.0500318
-0.0507983
-0.0515944
-0.052354
-0.0531608
-0.0539152
-0.0547132
-0.0554347
-0.0563331
-0.057228
0.00178473
-0.00352145
-0.0104878
-0.0160335
-0.018437
-0.0186671
-0.0186683
-0.0187719
-0.0185503
-0.0179531
-0.0174037
-0.0171985
-0.0172565
-0.0174814
-0.0178042
-0.0180111
-0.0180332
-0.018074
-0.0182403
-0.0184434
-0.0186127
-0.0187407
-0.0188697
-0.0191149
-0.0194951
-0.0198812
-0.0202447
-0.0207107
-0.0212666
-0.0217282
-0.0219885
-0.0221123
-0.0222413
-0.0224755
-0.0227822
-0.0230944
-0.0233746
-0.0236459
-0.0239837
-0.0244196
-0.0248863
-0.0253234
-0.0257225
-0.0260775
-0.0263695
-0.0266415
-0.026949
-0.0272917
-0.0276634
-0.0280509
-0.0284453
-0.0288373
-0.0292199
-0.0296069
-0.0300145
-0.0304358
-0.0308814
-0.0313184
-0.03177
-0.0322403
-0.0326951
-0.0330912
-0.0335044
-0.0339746
-0.0344396
-0.0349003
-0.035391
-0.0358955
-0.0363844
-0.0368862
-0.0374055
-0.03793
-0.0384559
-0.0389668
-0.0395222
-0.0401252
-0.0407534
-0.0413475
-0.041947
-0.0425346
-0.0431269
-0.0437656
-0.044412
-0.0450861
-0.0457559
-0.0464519
-0.0471248
-0.0478388
-0.0485524
-0.0493097
-0.0500317
-0.0507982
-0.0515943
-0.0523539
-0.0531608
-0.0539152
-0.0547131
-0.0554346
-0.0563329
-0.0572285
0.00111566
-0.00374741
-0.0103242
-0.0156682
-0.018176
-0.0185521
-0.0185898
-0.0186946
-0.018484
-0.0179086
-0.0173813
-0.0171905
-0.0172531
-0.0174742
-0.0177905
-0.0179968
-0.0180253
-0.0180725
-0.0182398
-0.01844
-0.0186076
-0.0187377
-0.01887
-0.0191153
-0.0194931
-0.0198776
-0.0202418
-0.0207091
-0.0212652
-0.021726
-0.0219858
-0.0221098
-0.0222395
-0.022474
-0.0227804
-0.0230925
-0.0233728
-0.0236443
-0.023982
-0.0244179
-0.0248848
-0.0253224
-0.0257217
-0.0260767
-0.0263687
-0.0266407
-0.0269483
-0.027291
-0.0276628
-0.0280503
-0.0284448
-0.0288368
-0.0292194
-0.0296065
-0.0300141
-0.0304354
-0.030881
-0.0313181
-0.0317697
-0.03224
-0.0326949
-0.033091
-0.0335041
-0.0339743
-0.0344394
-0.0349
-0.0353907
-0.0358953
-0.0363842
-0.0368859
-0.0374053
-0.0379298
-0.0384557
-0.0389666
-0.039522
-0.040125
-0.0407533
-0.0413473
-0.0419468
-0.0425345
-0.0431268
-0.0437655
-0.0444118
-0.045086
-0.0457558
-0.0464518
-0.0471247
-0.0478387
-0.0485523
-0.0493096
-0.0500316
-0.0507981
-0.0515942
-0.0523538
-0.0531607
-0.0539151
-0.054713
-0.0554346
-0.0563327
-0.0572291
0.000457222
-0.00398103
-0.0101757
-0.0153101
-0.0179047
-0.018431
-0.0185105
-0.0186128
-0.0184101
-0.0178577
-0.0173554
-0.0171814
-0.0172496
-0.0174661
-0.0177746
-0.0179796
-0.0180154
-0.0180705
-0.0182393
-0.0184363
-0.0186018
-0.0187345
-0.0188711
-0.019117
-0.0194914
-0.0198738
-0.0202393
-0.0207083
-0.0212639
-0.0217229
-0.0219815
-0.0221061
-0.0222371
-0.0224722
-0.0227783
-0.0230901
-0.0233707
-0.0236426
-0.02398
-0.0244155
-0.0248827
-0.0253208
-0.0257205
-0.0260754
-0.0263675
-0.0266397
-0.0269473
-0.0272901
-0.0276621
-0.0280497
-0.0284442
-0.0288362
-0.0292188
-0.0296059
-0.0300136
-0.0304349
-0.0308806
-0.0313177
-0.0317693
-0.0322397
-0.0326946
-0.0330907
-0.0335038
-0.033974
-0.0344391
-0.0348998
-0.0353905
-0.0358951
-0.036384
-0.0368857
-0.0374051
-0.0379296
-0.0384555
-0.0389664
-0.0395217
-0.0401248
-0.0407531
-0.0413472
-0.0419467
-0.0425343
-0.0431266
-0.0437653
-0.0444116
-0.0450858
-0.0457557
-0.0464516
-0.0471246
-0.0478386
-0.0485522
-0.0493095
-0.0500315
-0.050798
-0.0515941
-0.0523537
-0.0531606
-0.053915
-0.054713
-0.0554345
-0.0563325
-0.0572298
-0.000181067
-0.00422543
-0.0100539
-0.0149649
-0.0176201
-0.0182989
-0.0184288
-0.018528
-0.0183308
-0.0178015
-0.0173264
-0.0171709
-0.0172454
-0.0174575
-0.0177575
-0.0179608
-0.0180042
-0.0180677
-0.0182385
-0.0184323
-0.0185958
-0.0187315
-0.0188729
-0.0191192
-0.0194899
-0.0198702
-0.0202379
-0.0207091
-0.0212636
-0.0217194
-0.0219759
-0.0221008
-0.0222336
-0.0224698
-0.0227757
-0.0230872
-0.0233685
-0.0236411
-0.0239781
-0.0244128
-0.02488
-0.0253188
-0.0257188
-0.0260736
-0.0263658
-0.0266383
-0.0269461
-0.0272891
-0.0276611
-0.0280489
-0.0284435
-0.0288355
-0.0292181
-0.0296052
-0.0300129
-0.0304342
-0.03088
-0.0313172
-0.0317689
-0.0322393
-0.0326942
-0.0330904
-0.0335034
-0.0339737
-0.0344388
-0.0348995
-0.0353902
-0.0358948
-0.0363838
-0.0368855
-0.0374048
-0.0379294
-0.0384553
-0.0389662
-0.0395215
-0.0401246
-0.040753
-0.041347
-0.0419465
-0.0425341
-0.0431264
-0.0437651
-0.0444115
-0.0450856
-0.0457555
-0.0464515
-0.0471244
-0.0478385
-0.048552
-0.0493093
-0.0500314
-0.0507979
-0.0515941
-0.0523536
-0.0531606
-0.0539149
-0.0547129
-0.0554345
-0.0563322
-0.0572306
-0.000797871
-0.00448642
-0.00996273
-0.0146304
-0.0173166
-0.0181508
-0.0183442
-0.0184421
-0.0182475
-0.017741
-0.0172944
-0.0171587
-0.0172404
-0.0174482
-0.0177396
-0.0179411
-0.0179921
-0.0180642
-0.0182371
-0.0184279
-0.0185896
-0.0187286
-0.0188751
-0.0191219
-0.0194883
-0.0198667
-0.0202374
-0.0207116
-0.0212648
-0.0217164
-0.0219696
-0.0220942
-0.0222287
-0.0224662
-0.022772
-0.0230836
-0.0233661
-0.0236399
-0.0239764
-0.0244099
-0.024877
-0.0253165
-0.0257166
-0.0260711
-0.0263635
-0.0266365
-0.0269446
-0.0272877
-0.02766
-0.0280479
-0.0284426
-0.0288345
-0.0292172
-0.0296044
-0.0300121
-0.0304333
-0.0308791
-0.0313165
-0.0317683
-0.0322387
-0.0326937
-0.03309
-0.033503
-0.0339733
-0.0344385
-0.0348992
-0.03539
-0.0358946
-0.0363835
-0.0368852
-0.0374046
-0.0379291
-0.038455
-0.0389659
-0.0395211
-0.0401243
-0.0407528
-0.0413468
-0.0419462
-0.0425339
-0.0431261
-0.0437649
-0.0444112
-0.0450854
-0.0457553
-0.0464513
-0.0471242
-0.0478383
-0.0485519
-0.0493092
-0.0500312
-0.0507977
-0.051594
-0.0523535
-0.0531605
-0.0539148
-0.0547128
-0.0554346
-0.0563319
-0.0572314
-0.00139683
-0.00476041
-0.00989496
-0.0143039
-0.0169946
-0.0179867
-0.0182584
-0.0183572
-0.0181614
-0.0176762
-0.017259
-0.0171447
-0.0172345
-0.0174384
-0.0177211
-0.0179205
-0.0179791
-0.0180601
-0.0182354
-0.0184234
-0.0185835
-0.0187259
-0.0188777
-0.0191249
-0.019487
-0.0198635
-0.0202378
-0.0207157
-0.0212679
-0.0217146
-0.0219635
-0.022087
-0.0222229
-0.0224614
-0.0227672
-0.0230792
-0.0233635
-0.0236391
-0.0239753
-0.0244073
-0.024874
-0.0253142
-0.0257143
-0.0260682
-0.0263606
-0.0266341
-0.0269427
-0.0272861
-0.0276586
-0.0280468
-0.0284416
-0.0288334
-0.029216
-0.0296034
-0.0300111
-0.0304322
-0.0308779
-0.0313155
-0.0317675