/*--------------------------------*- C++ -*----------------------------------*\
| =========                 |                                                 |
| \\      /  F ield         | OpenFOAM: The Open Source CFD Toolbox           |
|  \\    /   O peration     | Version:  v1906                                 |
|   \\  /    A nd           | Web:      www.OpenFOAM.com                      |
|    \\/     M anipulation  |                                                 |
\*---------------------------------------------------------------------------*/
FoamFile
{
    version     2.0;
    format      ascii;
    class       surfaceScalarField;
    location    "9.9";
    object      phi;
}
// * * * * * * * * * * * * * * * * * * * * * * * * * * * * * * * * * * * * * //

dimensions      [0 3 -1 0 0 0 0];
oriented        oriented;


internalField   nonuniform List<scalar> 
19000
(
1.13349e-06
-1.96686e-07
1.16896e-06
2.72406e-07
1.18321e-06
-1.10969e-06
1.21177e-06
8.83376e-08
1.19106e-06
1.04362e-06
1.15605e-06
9.27097e-07
1.13269e-06
2.76085e-07
1.10399e-06
-1.33023e-06
1.10911e-06
-1.29504e-06
1.15139e-06
-1.31909e-06
1.18843e-06
-8.85863e-07
1.17954e-06
-1.16682e-06
1.22948e-06
7.12908e-07
1.18056e-06
-4.16095e-07
1.22483e-06
1.12741e-06
1.17244e-06
1.68679e-07
1.2018e-06
8.34493e-07
1.15728e-06
1.24833e-07
1.17717e-06
4.99852e-07
1.93769e-08
1.11742e-06
1.18938e-06
-1.61806e-07
1.22532e-06
2.36468e-07
1.24275e-06
-1.12712e-06
1.27107e-06
6.00126e-08
1.24735e-06
1.06734e-06
1.21688e-06
9.57566e-07
1.19078e-06
3.02194e-07
1.16236e-06
-1.30181e-06
1.16019e-06
-1.29287e-06
1.19508e-06
-1.35398e-06
1.23299e-06
-9.23771e-07
1.23329e-06
-1.16712e-06
1.27876e-06
6.67438e-07
1.24449e-06
-3.81827e-07
1.264e-06
1.1079e-06
1.2428e-06
1.8988e-07
1.2397e-06
8.37595e-07
1.23233e-06
1.32199e-07
1.21877e-06
5.1341e-07
2.43319e-08
1.21382e-06
1.24912e-06
-1.2814e-07
1.28124e-06
2.04349e-07
1.30231e-06
-1.14819e-06
1.33246e-06
2.98611e-08
1.3107e-06
1.0891e-06
1.28075e-06
9.87523e-07
1.25659e-06
3.26352e-07
1.22922e-06
-1.27445e-06
1.21966e-06
-1.28331e-06
1.24564e-06
-1.37995e-06
1.28155e-06
-9.59679e-07
1.28775e-06
-1.17332e-06
1.33172e-06
6.23467e-07
1.3087e-06
-3.58804e-07
1.32237e-06
1.09423e-06
1.31236e-06
1.99887e-07
1.31376e-06
8.36192e-07
1.31003e-06
1.3593e-07
1.31732e-06
5.06124e-07
4.0812e-08
1.30084e-06
1.31336e-06
-9.73968e-08
1.33763e-06
1.80077e-07
1.36119e-06
-1.17175e-06
1.39355e-06
-2.49849e-09
1.37788e-06
1.10476e-06
1.34815e-06
1.01726e-06
1.32585e-06
3.48646e-07
1.29818e-06
-1.24677e-06
1.28375e-06
-1.26888e-06
1.30091e-06
-1.39711e-06
1.33259e-06
-9.91357e-07
1.34338e-06
-1.18411e-06
1.38573e-06
5.81116e-07
1.37271e-06
-3.45778e-07
1.38872e-06
1.07821e-06
1.38267e-06
2.05937e-07
1.39516e-06
8.23707e-07
1.38801e-06
1.43075e-07
1.40631e-06
4.87826e-07
6.67719e-08
1.38035e-06
1.3827e-06
-7.17465e-08
1.39745e-06
1.65336e-07
1.4208e-06
-1.1951e-06
1.45309e-06
-3.47926e-08
1.44464e-06
1.11321e-06
1.41765e-06
1.04425e-06
1.39853e-06
3.67767e-07
1.37056e-06
-1.21881e-06
1.35319e-06
-1.25151e-06
1.36217e-06
-1.40609e-06
1.38749e-06
-1.01668e-06
1.39942e-06
-1.19604e-06
1.44183e-06
5.38704e-07
1.43531e-06
-3.39259e-07
1.45811e-06
1.05541e-06
1.45411e-06
2.09937e-07
1.47621e-06
8.01607e-07
1.46624e-06
1.53036e-07
1.48808e-06
4.65987e-07
9.6804e-08
1.45805e-06
1.45675e-06
-5.28202e-08
1.46327e-06
1.58815e-07
1.48267e-06
-1.2145e-06
1.51118e-06
-6.32981e-08
1.50894e-06
1.11545e-06
1.48886e-06
1.06434e-06
1.47423e-06
3.82392e-07
1.44579e-06
-1.19036e-06
1.42697e-06
-1.23269e-06
1.42925e-06
-1.40838e-06
1.44755e-06
-1.03498e-06
1.4574e-06
-1.20588e-06
1.5005e-06
4.95602e-07
1.49834e-06
-3.37098e-07
1.52877e-06
1.02499e-06
1.52714e-06
2.11559e-07
1.5569e-06
7.71855e-07
1.54489e-06
1.65039e-07
1.5682e-06
4.42682e-07
1.2957e-07
1.53543e-06
1.53424e-06
-4.08458e-08
1.53553e-06
1.57523e-07
1.54744e-06
-1.22641e-06
1.56903e-06
-8.48812e-08
1.57205e-06
1.11242e-06
1.56268e-06
1.07371e-06
1.55368e-06
3.91389e-07
1.52446e-06
-1.16114e-06
1.50478e-06
-1.21301e-06
1.50149e-06
-1.40509e-06
1.51347e-06
-1.04695e-06
1.51949e-06
-1.21191e-06
1.56313e-06
4.5196e-07
1.56421e-06
-3.38171e-07
1.60237e-06
9.86824e-07
1.60329e-06
2.10634e-07
1.63945e-06
7.35695e-07
1.62539e-06
1.79102e-07
1.64918e-06
4.18894e-07
1.64573e-07
1.61417e-06
1.61404e-06
-3.47562e-08
1.61282e-06
1.5874e-07
1.61516e-06
-1.22875e-06
1.62887e-06
-9.85924e-08
1.63723e-06
1.10407e-06
1.64078e-06
1.07017e-06
1.63743e-06
3.94738e-07
1.60691e-06
-1.13062e-06
1.58631e-06
-1.19241e-06
1.57788e-06
-1.39666e-06
1.58473e-06
-1.05381e-06
1.58714e-06
-1.21431e-06
1.63168e-06
4.07417e-07
1.63533e-06
-3.41822e-07
1.68081e-06
9.41345e-07
1.68368e-06
2.07767e-07
1.72487e-06
6.945e-07
1.70814e-06
1.95831e-07
1.73105e-06
3.95988e-07
2.01345e-07
1.69428e-06
1.69582e-06
-3.30036e-08
1.69346e-06
1.61105e-07
1.686e-06
-1.2213e-06
1.69345e-06
-1.06048e-07
1.70797e-06
1.08955e-06
1.72433e-06
1.0538e-06
1.72544e-06
3.93633e-07
1.69323e-06
-1.09841e-06
1.67141e-06
-1.17059e-06
1.65773e-06
-1.38298e-06
1.66011e-06
-1.05619e-06
1.66064e-06
-1.21484e-06
1.70761e-06
3.60447e-07
1.71345e-06
-3.47663e-07
1.76556e-06
8.8923e-07
1.76886e-06
2.04473e-07
1.8131e-06
6.5026e-07
1.79283e-06
2.16095e-07
1.81314e-06
3.75682e-07
2.39227e-07
1.77526e-06
1.77998e-06
-3.4266e-08
1.77669e-06
1.644e-07
1.76067e-06
-1.20527e-06
1.7651e-06
-1.10484e-07
1.78641e-06
1.06825e-06
1.81324e-06
1.02698e-06
1.81688e-06
3.89985e-07
1.78304e-06
-1.06457e-06
1.75989e-06
-1.14745e-06
1.74092e-06
-1.36401e-06
1.73852e-06
-1.05378e-06
1.73924e-06
-1.21556e-06
1.79056e-06
3.09125e-07
1.79835e-06
-3.55457e-07
1.85644e-06
8.31139e-07
1.85803e-06
2.02881e-07
1.90279e-06
6.05509e-07
1.87825e-06
2.40636e-07
1.89436e-06
3.59572e-07
2.77208e-07
1.85637e-06
1.86709e-06
-3.76094e-08
1.86283e-06
1.68659e-07
1.84028e-06
-1.18273e-06
1.84486e-06
-1.15056e-07
1.87258e-06
1.04052e-06
1.90606e-06
9.935e-07
1.91048e-06
3.85565e-07
1.8757e-06
-1.02979e-06
1.85153e-06
-1.12328e-06
1.82779e-06
-1.34027e-06
1.81985e-06
-1.04584e-06
1.82157e-06
-1.21727e-06
1.87801e-06
2.5268e-07
1.88724e-06
-3.64684e-07
1.9506e-06
7.67776e-07
1.9485e-06
2.04988e-07
1.99133e-06
5.62671e-07
1.96252e-06
2.69449e-07
1.97348e-06
3.48608e-07
3.13698e-07
1.93699e-06
1.95752e-06
-4.22878e-08
1.95266e-06
1.73521e-07
1.92587e-06
-1.15595e-06
1.93222e-06
-1.214e-07
1.9647e-06
1.00805e-06
2.00089e-06
9.5731e-07
2.00518e-06
3.81271e-07
1.97064e-06
-9.95249e-07
1.94609e-06
-1.09873e-06
1.91882e-06
-1.31299e-06
1.90517e-06
-1.03219e-06
1.90644e-06
-1.21854e-06
1.96649e-06
1.92628e-07
1.97578e-06
-3.73974e-07
2.04321e-06
7.00352e-07
2.03635e-06
2.11842e-07
2.07573e-06
5.23294e-07
2.04392e-06
3.0126e-07
2.0498e-06
3.42727e-07
3.46498e-07
2.017e-06
2.05148e-06
-4.75818e-08
2.0468e-06
1.78204e-07
2.01788e-06
-1.12702e-06
2.02574e-06
-1.29268e-07
2.06045e-06
9.7334e-07
2.09652e-06
9.21244e-07
2.10084e-06
3.76947e-07
2.06776e-06
-9.6217e-07
2.04349e-06
-1.07446e-06
2.01427e-06
-1.28377e-06
1.99599e-06
-1.01391e-06
1.99356e-06
-1.21611e-06
2.05364e-06
1.32549e-07
2.0606e-06
-3.8094e-07
2.12994e-06
6.31016e-07
2.11867e-06
2.23114e-07
2.15426e-06
4.87699e-07
2.12201e-06
3.33509e-07
2.12378e-06
3.4096e-07
3.73125e-07
2.09715e-06
2.14927e-06
-5.28463e-08
2.14558e-06
1.81891e-07
2.11603e-06
-1.09747e-06
2.12403e-06
-1.3727e-07
2.15849e-06
9.38884e-07
2.19319e-06
8.86544e-07
2.19832e-06
3.71816e-07
2.1675e-06
-9.31352e-07
2.14394e-06
-1.0509e-06
2.11409e-06
-1.25391e-06
2.09333e-06
-9.93159e-07
2.08371e-06
-1.2065e-06
2.13974e-06
7.65272e-08
2.14158e-06
-3.8278e-07
2.20992e-06
5.62669e-07
2.19567e-06
2.37367e-07
2.22809e-06
4.55275e-07
2.19856e-06
3.63048e-07
2.19755e-06
3.41965e-07
3.91476e-07
2.1792e-06
2.25129e-06
-5.76498e-08
2.24911e-06
1.8407e-07
2.21971e-06
-1.06807e-06
2.22643e-06
-1.43999e-07
2.25894e-06
9.06375e-07
2.29234e-06
8.53152e-07
2.29903e-06
3.65118e-07
2.27067e-06
-9.02991e-07
2.24793e-06
-1.02816e-06
2.21811e-06
-1.22409e-06
2.19713e-06
-9.72177e-07
2.17831e-06
-1.18768e-06
2.2275e-06
2.73356e-08
2.22212e-06
-3.77394e-07
2.28666e-06
4.98127e-07
2.27125e-06
2.52778e-07
2.30131e-06
4.25217e-07
2.27718e-06
3.87172e-07
2.27471e-06
3.44434e-07
4.00732e-07
2.26546e-06
2.35805e-06
-6.1825e-08
2.35752e-06
1.84595e-07
2.32836e-06
-1.0389e-06
2.3331e-06
-1.48739e-07
2.36298e-06
8.76499e-07
2.39571e-06
8.20422e-07
2.40432e-06
3.56508e-07
2.37811e-06
-8.76782e-07
2.3561e-06
-1.00615e-06
2.32633e-06
-1.19432e-06
2.30659e-06
-9.52437e-07
2.27868e-06
-1.15977e-06
2.32038e-06
-1.43678e-08
2.30722e-06
-3.64234e-07
2.36612e-06
4.39229e-07
2.3511e-06
2.67797e-07
2.37917e-06
3.97151e-07
2.36199e-06
4.04351e-07
2.35909e-06
3.47334e-07
4.01752e-07
2.35807e-06
2.46996e-06
-6.53934e-08
2.471e-06
1.83563e-07
2.4418e-06
-1.00971e-06
2.44461e-06
-1.51544e-07
2.4719e-06
8.492e-07
2.50461e-06
7.87713e-07
2.51505e-06
3.46068e-07
2.49044e-06
-8.5217e-07
2.46905e-06
-9.84757e-07
2.43896e-06
-1.16423e-06
2.42092e-06
-9.34393e-07
2.38559e-06
-1.12444e-06
2.42077e-06
-4.95497e-08
2.40089e-06
-3.44355e-07
2.45359e-06
3.86528e-07
2.43999e-06
2.81396e-07
2.46587e-06
3.71268e-07
2.45591e-06
4.14315e-07
2.45302e-06
3.50221e-07
3.96362e-07
2.45841e-06
2.58735e-06
-6.84457e-08
2.58976e-06
1.8115e-07
2.56015e-06
-9.80095e-07
2.56153e-06
-1.52924e-07
2.58666e-06
8.24066e-07
2.61972e-06
7.54653e-07
2.63168e-06
3.34105e-07
2.60808e-06
-8.2857e-07
2.58722e-06
-9.63898e-07
2.55641e-06
-1.13342e-06
2.53983e-06
-9.1781e-07
2.49923e-06
-1.08384e-06
2.52942e-06
-7.97342e-08
2.50482e-06
-3.1976e-07
2.5517e-06
3.3965e-07
2.54017e-06
2.92926e-07
2.56338e-06
3.4806e-07
2.56002e-06
4.17676e-07
2.55726e-06
3.52977e-07
3.86706e-07
2.56692e-06
2.71044e-06
-7.10619e-08
2.71406e-06
1.77533e-07
2.68371e-06
-9.49744e-07
2.6843e-06
-1.53513e-07
2.70775e-06
8.00621e-07
2.74127e-06
7.21126e-07
2.75442e-06
3.20957e-07
2.73131e-06
-8.0546e-07
2.71096e-06
-9.43544e-07
2.67911e-06
-1.10157e-06
2.66351e-06
-9.02212e-07
2.61958e-06
-1.03991e-06
2.64603e-06
-1.06189e-07
2.61889e-06
-2.92624e-07
2.66062e-06
2.97926e-07
2.65163e-06
3.01914e-07
2.67173e-06
3.27963e-07
2.67398e-06
4.15427e-07
2.67146e-06
3.55489e-07
3.74723e-07
2.68345e-06
2.83949e-06
-7.32881e-08
2.84417e-06
1.72857e-07
2.81285e-06
-9.18427e-07
2.81323e-06
-1.53887e-07
2.83541e-06
7.78435e-07
2.86936e-06
6.87176e-07
2.88342e-06
3.06897e-07
2.86036e-06
-7.824e-07
2.8405e-06
-9.23681e-07
2.80747e-06
-1.06854e-06
2.79239e-06
-8.87135e-07
2.74658e-06
-9.94104e-07
2.77006e-06
-1.29667e-07
2.74222e-06
-2.64785e-07
2.77937e-06
2.60776e-07
2.77329e-06
3.08001e-07
2.79008e-06
3.11169e-07
2.79693e-06
4.08582e-07
2.79488e-06
3.57541e-07
3.61883e-07
2.80772e-06
2.97475e-06
-7.5145e-08
2.98037e-06
1.67236e-07
2.94794e-06
-8.85997e-07
2.94855e-06
-1.54492e-07
2.96984e-06
7.57145e-07
3.00409e-06
6.52925e-07
3.01888e-06
2.92106e-07
2.9955e-06
-7.5902e-07
2.97611e-06
-9.04294e-07
2.94188e-06
-1.03431e-06
2.92692e-06
-8.72174e-07
2.88036e-06
-9.4754e-07
2.90117e-06
-1.50477e-07
2.87401e-06
-2.37629e-07
2.90699e-06
2.27804e-07
2.90399e-06
3.10993e-07
2.91764e-06
2.97518e-07
2.92809e-06
3.98137e-07
2.92681e-06
3.58822e-07
3.4919e-07
2.9395e-06
3.1165e-06
-7.66398e-08
3.12299e-06
1.60747e-07
3.08936e-06
-8.52362e-07
3.0905e-06
-1.55633e-07
3.1112e-06
7.36444e-07
3.14558e-06
6.18547e-07
3.161e-06
2.76682e-07
3.13699e-06
-7.35015e-07
3.11805e-06
-8.85351e-07
3.08275e-06
-9.99007e-07
3.06754e-06
-8.56967e-07
3.02111e-06
-9.01112e-07
3.03928e-06
-1.68642e-07
3.01379e-06
-2.12142e-07
3.04287e-06
1.98722e-07
3.04295e-06
3.10911e-07
3.05389e-06
2.86583e-07
3.06698e-06
3.85045e-07
3.0668e-06
3.59e-07
3.37266e-07
3.07873e-06
3.26504e-06
-7.77702e-08
3.27235e-06
1.53435e-07
3.23748e-06
-8.17486e-07
3.23932e-06
-1.57477e-07
3.25969e-06
7.1607e-07
3.29398e-06
5.84257e-07
3.31003e-06
2.60637e-07
3.28516e-06
-7.10147e-07
3.2666e-06
-8.66787e-07
3.23044e-06
-9.62845e-07
3.21464e-06
-8.41165e-07
3.16908e-06
-8.55558e-07
3.18451e-06
-1.84069e-07
3.16134e-06
-1.88973e-07
3.18678e-06
1.7328e-07
3.18975e-06
3.0794e-07
3.19849e-06
2.77847e-07
3.21341e-06
3.7013e-07
3.21459e-06
3.5781e-07
3.26458e-07
3.2254e-06
3.42068e-06
-7.85224e-08
3.42881e-06
1.45304e-07
3.39272e-06
-7.81387e-07
3.39529e-06
-1.60047e-07
3.41556e-06
6.958e-07
3.44951e-06
5.50302e-07
3.46623e-06
2.4392e-07
3.44035e-06
-6.8427e-07
3.42206e-06
-8.48495e-07
3.38534e-06
-9.26126e-07
3.3686e-06
-8.24429e-07
3.32452e-06
-8.1148e-07
3.33711e-06
-1.96654e-07
3.31659e-06
-1.68455e-07
3.33871e-06
1.51157e-07
3.34423e-06
3.0242e-07
3.35129e-06
2.70788e-07
3.36736e-06
3.54062e-07
3.37009e-06
3.55083e-07
3.16886e-07
3.37966e-06
3.58376e-06
-7.8868e-08
3.59273e-06
1.36329e-07
3.55549e-06
-7.44147e-07
3.55869e-06
-1.63249e-07
3.57906e-06
6.75435e-07
3.6124e-06
5.16964e-07
3.62989e-06
2.26427e-07
3.60296e-06
-6.57338e-07
3.58477e-06
-8.30308e-07
3.54784e-06
-8.89199e-07
3.52983e-06
-8.06414e-07
3.4877e-06
-7.69348e-07
3.4974e-06
-2.06361e-07
3.47957e-06
-1.50623e-07
3.49875e-06
1.31976e-07
3.50641e-06
2.94759e-07
3.51227e-06
2.64934e-07
3.52894e-06
3.37391e-07
3.53335e-06
3.50673e-07
3.08587e-07
3.54165e-06
3.7546e-06
-7.87632e-08
3.76446e-06
1.26472e-07
3.72623e-06
-7.05915e-07
3.72987e-06
-1.66889e-07
3.75052e-06
6.54783e-07
3.78294e-06
4.84537e-07
3.80133e-06
2.08042e-07
3.77341e-06
-6.2942e-07
3.75511e-06
-8.12005e-07
3.71833e-06
-8.52415e-07
3.69873e-06
-7.86821e-07
3.65883e-06
-7.2945e-07
3.66575e-06
-2.13272e-07
3.65041e-06
-1.35289e-07
3.66707e-06
1.15322e-07
3.67646e-06
2.85367e-07
3.68148e-06
2.59908e-07
3.69833e-06
3.20547e-07
3.70458e-06
3.44425e-07
3.01538e-07
3.71163e-06
3.93358e-06
-7.8155e-08
3.94435e-06
1.15707e-07
3.90534e-06
-6.66905e-07
3.90916e-06
-1.70709e-07
3.9303e-06
6.3364e-07
3.96153e-06
4.53305e-07
3.98089e-06
1.88685e-07
3.95216e-06
-6.00688e-07
3.93347e-06
-7.93324e-07
3.89718e-06
-8.16119e-07
3.87575e-06
-7.65392e-07
3.8382e-06
-6.91901e-07
3.84251e-06
-2.17581e-07
3.82932e-06
-1.22104e-07
3.84387e-06
1.00781e-07
3.85462e-06
2.74617e-07
3.85914e-06
2.55384e-07
3.87579e-06
3.03891e-07
3.88397e-06
3.3625e-07
2.95574e-07
3.88993e-06
4.12109e-06
-7.69931e-08
4.13275e-06
1.04044e-07
4.09323e-06
-6.27384e-07
4.09695e-06
-1.74426e-07
4.1188e-06
6.11787e-07
4.14859e-06
4.23516e-07
4.16892e-06
1.68357e-07
4.13963e-06
-5.71401e-07
4.12029e-06
-7.73983e-07
4.0848e-06
-7.80626e-07
4.06134e-06
-7.41935e-07
4.02608e-06
-6.56646e-07
4.02807e-06
-2.19563e-07
4.01664e-06
-1.10677e-07
4.02938e-06
8.80431e-08
4.04123e-06
2.62766e-07
4.04551e-06
2.51103e-07
4.06161e-06
2.87786e-07
4.07181e-06
3.26055e-07
2.90387e-07
4.07699e-06
4.31755e-06
-7.5244e-08
4.33005e-06
9.15514e-08
4.29031e-06
-5.8765e-07
4.29365e-06
-1.77761e-07
4.31643e-06
5.89005e-07
4.34458e-06
3.9536e-07
4.36577e-06
1.47171e-07
4.33626e-06
-5.4189e-07
4.31599e-06
-7.5371e-07
4.28157e-06
-7.46207e-07
4.25599e-06
-7.1636e-07
4.22282e-06
-6.23479e-07
4.22281e-06
-2.19551e-07
4.21274e-06
-1.00608e-07
4.22388e-06
7.69101e-08
4.23665e-06
2.49996e-07
4.24094e-06
2.46811e-07
4.25615e-06
2.72577e-07
4.26836e-06
3.13842e-07
2.85554e-07
4.2732e-06
4.52343e-06
-7.29007e-08
4.53662e-06
7.83602e-08
4.497e-06
-5.48028e-07
4.49969e-06
-1.80448e-07
4.52359e-06
5.65101e-07
4.55e-06
3.6895e-07
4.57181e-06
1.25358e-07
4.54244e-06
-5.12514e-07
4.52101e-06
-7.32283e-07
4.48787e-06
-7.13066e-07
4.46023e-06
-6.88724e-07
4.42881e-06
-5.92056e-07
4.42719e-06
-2.17927e-07
4.41811e-06
-9.1529e-08
4.42773e-06
6.72826e-08
4.44128e-06
2.3645e-07
4.44579e-06
2.42302e-07
4.45991e-06
2.58459e-07
4.47382e-06
2.99926e-07
2.80362e-07
4.47901e-06
4.7392e-06
-6.99873e-08
4.7529e-06
6.46584e-08
4.71372e-06
-5.08846e-07
4.71553e-06
-1.82258e-07
4.7407e-06
5.39937e-07
4.76534e-06
3.4431e-07
4.78744e-06
1.03257e-07
4.75857e-06
-4.83645e-07
4.73582e-06
-7.09534e-07
4.70408e-06
-6.81325e-07
4.67459e-06
-6.5924e-07
4.6445e-06
-5.61967e-07
4.64163e-06
-2.15053e-07
4.63326e-06
-8.31598e-08
4.64145e-06
5.90937e-08
4.65554e-06
2.22362e-07
4.66054e-06
2.37296e-07
4.67342e-06
2.45579e-07
4.68865e-06
2.84704e-07
2.74193e-07
4.69482e-06
4.96536e-06
-6.65538e-08
4.97935e-06
5.0671e-08
4.94093e-06
-4.7042e-07
4.94167e-06
-1.83005e-07
4.96815e-06
5.13455e-07
4.99107e-06
3.21398e-07
5.01308e-06
8.1239e-08
4.98505e-06
-4.55606e-07
4.96088e-06
-6.85371e-07
4.93056e-06
-6.50997e-07
4.89959e-06
-6.28279e-07
4.87045e-06
-5.32827e-07
4.86659e-06
-2.11187e-07
4.85881e-06
-7.53852e-08
4.86558e-06
5.2329e-08
4.88002e-06
2.07921e-07
4.88577e-06
2.31542e-07
4.89733e-06
2.34027e-07
4.9133e-06
2.68732e-07
2.66534e-07
4.92096e-06
5.20243e-06
-6.26677e-08
5.21646e-06
3.66409e-08
5.17907e-06
-4.33027e-07
5.17863e-06
-1.82571e-07
5.20641e-06
4.85675e-07
5.2277e-06
3.00114e-07
5.24924e-06
5.96993e-08
5.22231e-06
-4.28678e-07
5.19671e-06
-6.59776e-07
5.16774e-06
-6.22024e-07
5.13577e-06
-5.96305e-07
5.10722e-06
-5.04286e-07
5.10258e-06
-2.06544e-07
5.09538e-06
-6.81796e-08
5.10075e-06
4.69549e-08
5.11534e-06
1.93334e-07
5.12199e-06
2.24893e-07
5.1323e-06
2.23716e-07
5.14836e-06
2.52666e-07
2.57055e-07
5.15784e-06
5.45092e-06
-5.84032e-08
5.46477e-06
2.27999e-08
5.42862e-06
-3.96884e-07
5.42696e-06
-1.80907e-07
5.45595e-06
4.56685e-07
5.47575e-06
2.80312e-07
5.49643e-06
3.90228e-08
5.47084e-06
-4.03088e-07
5.44385e-06
-6.32783e-07
5.41611e-06
-5.94284e-07
5.38363e-06
-5.63827e-07
5.35543e-06
-4.76088e-07
5.35017e-06
-2.0128e-07
5.3435e-06
-6.15141e-08
5.34765e-06
4.28018e-08
5.36208e-06
1.78907e-07
5.36968e-06
2.17291e-07
5.37899e-06
2.14404e-07
5.39449e-06
2.37165e-07
2.4576e-07
5.40579e-06
5.71139e-06
-5.3837e-08
5.72483e-06
9.35841e-09
5.6901e-06
-3.62146e-07
5.68723e-06
-1.7804e-07
5.71726e-06
4.26648e-07
5.73576e-06
2.61815e-07
5.75522e-06
1.95677e-08
5.73115e-06
-3.79019e-07
5.70288e-06
-6.04518e-07
5.67618e-06
-5.6758e-07
5.64368e-06
-5.31326e-07
5.6157e-06
-4.48113e-07
5.60988e-06
-1.95461e-07
5.60382e-06
-5.54539e-08
5.6069e-06
3.97281e-08
5.62087e-06
1.64929e-07
5.62936e-06
2.08803e-07
5.63803e-06
2.05734e-07
5.65247e-06
2.22731e-07
2.33003e-07
5.66522e-06
5.9844e-06
-4.9045e-08
5.99728e-06
-3.51638e-09
5.96402e-06
-3.2889e-07
5.96005e-06
-1.74072e-07
5.99092e-06
3.95784e-07
6.00827e-06
2.44463e-07
6.02621e-06
1.62448e-09
6.00378e-06
-3.56586e-07
5.97444e-06
-5.75181e-07
5.94853e-06
-5.4167e-07
5.91644e-06
-4.99236e-07
5.88864e-06
-4.20306e-07
5.88233e-06
-1.89159e-07
5.87692e-06
-5.00444e-08
5.87905e-06
3.75984e-08
5.89234e-06
1.51642e-07
5.90157e-06
1.99573e-07
5.90994e-06
1.97362e-07
5.9231e-06
2.09573e-07
2.19426e-07
5.93668e-06
6.27055e-06
-4.41043e-08
6.28273e-06
-1.56942e-08
6.25101e-06
-2.97177e-07
6.24606e-06
-1.69118e-07
6.27751e-06
3.64335e-07
6.29386e-06
2.28113e-07
6.31004e-06
-1.45636e-08
6.28932e-06
-3.35862e-07
6.25914e-06
-5.45e-07
6.23382e-06
-5.16346e-07
6.20245e-06
-4.67873e-07
6.17485e-06
-3.927e-07
6.16811e-06
-1.82422e-07
6.16344e-06
-4.5371e-08
6.1647e-06
3.63377e-08
6.17712e-06
1.39214e-07
6.18695e-06
1.89751e-07
6.19524e-06
1.89067e-07
6.20724e-06
1.97572e-07
2.05842e-07
6.22083e-06
6.57046e-06
-3.90999e-08
6.58183e-06
-2.70619e-08
6.55179e-06
-2.67134e-07
6.54586e-06
-1.63185e-07
6.57765e-06
3.3254e-07
6.59318e-06
2.12584e-07
6.60737e-06
-2.87576e-08
6.58836e-06
-3.16851e-07
6.55764e-06
-5.14278e-07
6.53271e-06
-4.9141e-07
6.50229e-06
-4.37456e-07
6.47496e-06
-3.65373e-07
6.4678e-06
-1.75266e-07
6.46391e-06
-4.14746e-08
6.46448e-06
3.57667e-08
6.47587e-06
1.27821e-07
6.48612e-06
1.79505e-07
6.49447e-06
1.80719e-07
6.5056e-06
1.86436e-07
1.92853e-07
6.51859e-06
6.88482e-06
-3.41275e-08
6.89526e-06
-3.75011e-08
6.86712e-06
-2.38996e-07
6.86007e-06
-1.56133e-07
6.89198e-06
3.00629e-07
6.90694e-06
1.97623e-07
6.9189e-06
-4.07239e-08
6.90152e-06
-2.99468e-07
6.87063e-06
-4.83389e-07
6.84592e-06
-4.66693e-07
6.81657e-06
-4.08105e-07
6.78961e-06
-3.38419e-07
6.78203e-06
-1.67686e-07
6.77893e-06
-3.83678e-08
6.77903e-06
3.56633e-08
6.78925e-06
1.17601e-07
6.79976e-06
1.68992e-07
6.80824e-06
1.72242e-07
6.81873e-06
1.75943e-07
1.80666e-07
6.83092e-06
7.21431e-06
-2.92985e-08
7.22365e-06
-4.68423e-08
7.19773e-06
-2.13077e-07
7.18934e-06
-1.47742e-07
7.22112e-06
2.68848e-07
7.23582e-06
1.82922e-07
7.24542e-06
-5.03257e-08
7.22942e-06
-2.83468e-07
7.19881e-06
-4.52776e-07
7.17417e-06
-4.42055e-07
7.14595e-06
-3.79887e-07
7.11944e-06
-3.11908e-07
7.11141e-06
-1.59658e-07
7.10909e-06
-3.60418e-08
7.10895e-06
3.57975e-08
7.11794e-06
1.08618e-07
7.12857e-06
1.58361e-07
7.13716e-06
1.63648e-07
7.1472e-06
1.6591e-07
1.69224e-07
7.15864e-06
7.55966e-06
-2.47337e-08
7.56764e-06
-5.48221e-08
7.54435e-06
-1.89785e-07
7.53437e-06
-1.37767e-07
7.56573e-06
2.37488e-07
7.58054e-06
1.68119e-07
7.58772e-06
-5.75107e-08
7.5728e-06
-2.68549e-07
7.54279e-06
-4.22763e-07
7.5182e-06
-4.17463e-07
7.49118e-06
-3.52872e-07
7.46518e-06
-2.85907e-07
7.45656e-06
-1.51037e-07
7.45497e-06
-3.44509e-08
7.45487e-06
3.58958e-08
7.4627e-06
1.00788e-07
7.47322e-06
1.47838e-07
7.48195e-06
1.54924e-07
7.49164e-06
1.5622e-07
1.58367e-07
7.50249e-06
7.92164e-06
-2.05596e-08
7.92785e-06
-6.1037e-08
7.90765e-06
-1.69586e-07
7.89599e-06
-1.26107e-07
7.92646e-06
2.07018e-07
7.94178e-06
1.52805e-07
7.94662e-06
-6.2351e-08
7.93241e-06
-2.54339e-07
7.90323e-06
-3.93581e-07
7.87874e-06
-3.92979e-07
7.85294e-06
-3.27067e-07
7.82754e-06
-2.60505e-07
7.81816e-06
-1.41657e-07
7.81716e-06
-3.34515e-08
7.8174e-06
3.56563e-08
7.82427e-06
9.39102e-08
7.83445e-06
1.37665e-07
7.84331e-06
1.46063e-07
7.85271e-06
1.46815e-07
1.47999e-07
7.86308e-06
8.30101e-06
-1.68922e-08
8.30508e-06
-6.51057e-08
8.2882e-06
-1.52705e-07
8.27521e-06
-1.13117e-07
8.30408e-06
1.78147e-07
8.32013e-06
1.36754e-07
8.32296e-06
-6.51784e-08
8.30907e-06
-2.40445e-07
8.28081e-06
-3.65327e-07
8.25651e-06
-3.68677e-07
8.23189e-06
-3.02444e-07
8.20719e-06
-2.35804e-07
8.19698e-06
-1.3145e-07
8.19627e-06
-3.27395e-08
8.19714e-06
3.47836e-08
8.20336e-06
8.76955e-08
8.21305e-06
1.2797e-07
8.222e-06
1.3711e-07
8.23116e-06
1.37657e-07
1.38027e-07
8.24113e-06
8.69858e-06
-1.38142e-08
8.70031e-06
-6.68285e-08
8.68659e-06
-1.38988e-07
8.67307e-06
-9.96022e-08
8.6994e-06
1.51823e-07
8.71623e-06
1.19923e-07
8.71757e-06
-6.65143e-08
8.70364e-06
-2.26519e-07
8.67629e-06
-3.37973e-07
8.65207e-06
-3.44464e-07
8.62859e-06
-2.78965e-07
8.60484e-06
-2.12055e-07
8.59377e-06
-1.20374e-07
8.59309e-06
-3.20651e-08
8.59477e-06
3.3106e-08
8.60065e-06
8.18181e-08
8.60989e-06
1.18732e-07
8.61883e-06
1.2817e-07
8.62777e-06
1.28719e-07
1.28428e-07
8.63736e-06
9.11517e-06
-1.13621e-08
9.11464e-06
-6.62977e-08
9.10355e-06
-1.27898e-07
9.09064e-06
-8.66961e-08
9.11341e-06
1.29049e-07
9.13065e-06
1.0269e-07
9.13122e-06
-6.70847e-08
9.11697e-06
-2.12274e-07
9.09027e-06
-3.11265e-07
9.06598e-06
-3.2018e-07
9.04362e-06
-2.56599e-07
9.02122e-06
-1.89661e-07
9.00956e-06
-1.08712e-07
9.00865e-06
-3.11582e-08
9.01113e-06
3.06263e-08
9.01696e-06
7.5987e-08
9.02585e-06
1.09849e-07
9.03465e-06
1.19369e-07
9.04346e-06
1.19904e-07
1.1928e-07
9.05261e-06
9.55162e-06
-9.51742e-09
9.54921e-06
-6.38957e-08
9.53997e-06
-1.18659e-07
9.52883e-06
-7.55482e-08
9.54738e-06
1.10497e-07
9.56407e-06
8.6001e-08
9.5645e-06
-6.75156e-08
9.54988e-06
-1.97658e-07
9.52341e-06
-2.84795e-07
9.49905e-06
-2.95823e-07
9.47797e-06
-2.35519e-07
9.45748e-06
-1.69167e-07
9.44573e-06
-9.69588e-08
9.44417e-06
-2.96067e-08
9.44727e-06
2.75277e-08
9.4533e-06
6.99618e-08
9.46179e-06
1.01354e-07
9.47046e-06
1.10699e-07
9.47907e-06
1.11295e-07
1.10501e-07
9.48785e-06
1.00088e-05
-8.19823e-09
1.00051e-05
-6.01717e-08
9.99689e-06
-1.10454e-07
9.9882e-06
-6.68586e-08
1.00025e-05
9.6153e-08
1.00174e-05
7.11851e-08
1.00178e-05
-6.79398e-08
1.00033e-05
-1.83159e-07
9.97715e-06
-2.58666e-07
9.95272e-06
-2.7139e-07
9.93303e-06
-2.15831e-07
9.91481e-06
-1.50945e-07
9.90335e-06
-8.54954e-08
9.9011e-06
-2.7355e-08
9.90438e-06
2.4239e-08
9.91056e-06
6.37892e-08
9.91883e-06
9.30802e-08
9.92719e-06
1.02343e-07
9.93562e-06
1.02862e-07
1.02057e-07
9.94406e-06
1.04877e-05
-7.26332e-09
1.04832e-05
-5.57098e-08
1.04752e-05
-1.02459e-07
1.04692e-05
-6.08486e-08
1.04803e-05
8.50815e-08
1.04921e-05
5.93642e-08
1.04922e-05
-6.80234e-08
1.04784e-05
-1.69359e-07
1.04532e-05
-2.33422e-07
1.04287e-05
-2.46911e-07
1.04102e-05
-1.97343e-07
1.03941e-05
-1.34835e-07
1.03834e-05
-7.47727e-08
1.03806e-05
-2.45561e-08
1.03836e-05
2.11849e-08
1.03898e-05
5.75954e-08
1.03979e-05
8.49809e-08
1.04059e-05
9.43443e-08
1.04141e-05
9.46924e-08
9.38798e-08
1.04223e-05
1.09893e-05
-6.52538e-09
1.09846e-05
-5.10704e-08
1.09761e-05
-9.39522e-08
1.09726e-05
-5.73528e-08
1.09821e-05
7.56593e-08
1.09905e-05
5.08757e-08
1.09896e-05
-6.70481e-08
1.09766e-05
-1.56379e-07
1.09525e-05
-2.09362e-07
1.09283e-05
-2.22685e-07
1.09107e-05
-1.79692e-07
1.08964e-05
-1.20586e-07
1.08867e-05
-6.51059e-08
1.08836e-05
-2.14019e-08
1.08862e-05
1.86045e-08
1.08922e-05
5.16065e-08
1.09001e-05
7.70237e-08
1.09078e-05
8.66881e-08
1.09156e-05
8.68285e-08
8.60038e-08
1.09235e-05
1.15146e-05
-5.7824e-09
1.15103e-05
-4.67524e-08
1.15009e-05
-8.45766e-08
1.14993e-05
-5.5747e-08
1.15086e-05
6.64258e-08
1.15138e-05
4.56397e-08
1.15113e-05
-6.45683e-08
1.1499e-05
-1.44021e-07
1.14764e-05
-1.8682e-07
1.14528e-05
-1.99056e-07
1.14355e-05
-1.62371e-07
1.14229e-05
-1.07994e-07
1.14143e-05
-5.65058e-08
1.14111e-05
-1.8238e-08
1.14132e-05
1.65324e-08
1.14187e-05
4.6035e-08
1.14265e-05
6.92616e-08
1.14339e-05
7.92745e-08
1.14413e-05
7.9423e-08
7.82947e-08
1.1449e-05
1.20649e-05
-4.83752e-09
1.20613e-05
-4.31721e-08
1.2051e-05
-7.43107e-08
1.20505e-05
-5.52091e-08
1.20605e-05
5.64474e-08
1.20631e-05
4.29716e-08
1.20585e-05
-5.9913e-08
1.20466e-05
-1.32137e-07
1.2026e-05
-1.66246e-07
1.20032e-05
-1.76223e-07
1.1986e-05
-1.45192e-07
1.19746e-05
-9.65615e-08
1.1967e-05
-4.89666e-08
1.19641e-05
-1.52733e-08
1.19658e-05
1.48315e-08
1.19709e-05
4.09489e-08
1.19782e-05
6.19206e-08
1.19855e-05
7.19617e-08
1.19924e-05
7.25345e-08
7.08341e-08
1.19999e-05
1.26413e-05
-3.51876e-09
1.26388e-05
-4.06508e-08
1.26278e-05
-6.33876e-08
1.26276e-05
-5.4944e-08
1.26385e-05
4.55033e-08
1.26398e-05
4.16841e-08
1.26324e-05
-5.25329e-08
1.26207e-05
-1.20472e-07
1.26023e-05
-1.47763e-07
1.25806e-05
-1.54552e-07
1.25637e-05
-1.28291e-07
1.25527e-05
-8.55667e-08
1.25463e-05
-4.25786e-08
1.25435e-05
-1.24865e-08
1.25451e-05
1.32369e-08
1.25497e-05
3.63413e-08
1.25566e-05
5.50894e-08
1.25638e-05
6.47607e-08
1.25702e-05
6.61047e-08
6.38438e-08
1.25772e-05
1.32451e-05
-1.72932e-09
1.32438e-05
-3.93372e-08
1.32327e-05
-5.22698e-08
1.32316e-05
-5.38783e-08
1.32436e-05
3.35392e-08
1.32446e-05
4.07135e-08
1.32347e-05
-4.26652e-08
1.32225e-05
-1.08239e-07
1.3206e-05
-1.31253e-07
1.31862e-05
-1.34791e-07
1.31696e-05
-1.11724e-07
1.31589e-05
-7.48081e-08
1.31532e-05
-3.68574e-08
1.31507e-05
-1.0056e-08
1.31522e-05
1.18031e-08
1.31565e-05
3.20283e-08
1.31628e-05
4.87851e-08
1.31698e-05
5.77853e-08
1.3176e-05
5.9879e-08
5.75134e-08
1.31823e-05
1.38779e-05
5.33075e-10
1.38779e-05
-3.93125e-08
1.3867e-05
-4.13773e-08
1.3864e-05
-5.08833e-08
1.38767e-05
2.08159e-08
1.38785e-05
3.88819e-08
1.38667e-05
-3.0783e-08
1.38529e-05
-9.45241e-08
1.38382e-05
-1.16511e-07
1.38208e-05
-1.17361e-07
1.38051e-05
-9.60424e-08
1.37946e-05
-6.43406e-08
1.37891e-05
-3.13672e-08
1.37871e-05
-8.00207e-09
1.37883e-05
1.06083e-08
1.37924e-05
2.78645e-08
1.37983e-05
4.29173e-08
1.38049e-05
5.12303e-08
1.38111e-05
5.36468e-08
5.18976e-08
1.38167e-05
1.4541e-05
3.17332e-09
1.45417e-05
-3.99757e-08
1.45312e-05
-3.08402e-08
1.45263e-05
-4.60373e-08
1.45392e-05
7.96163e-09
1.45425e-05
3.5521e-08
1.45293e-05
-1.75176e-08
1.45139e-05
-7.91859e-08
1.45003e-05
-1.02871e-07
1.44852e-05
-1.02263e-07
1.44713e-05
-8.21195e-08
1.4461e-05
-5.41078e-08
1.44557e-05
-2.60934e-08
1.44538e-05
-6.00817e-09
1.44548e-05
9.54508e-09
1.44587e-05
2.39963e-08
1.44644e-05
3.72506e-08
1.44705e-05
4.50962e-08
1.44767e-05
4.74819e-08
4.6589e-08
1.4482e-05
1.52358e-05
6.26452e-09
1.52324e-05
-3.65642e-08
1.52248e-05
-2.32439e-08
1.52211e-05
-4.2309e-08
1.52329e-05
-3.89583e-09
1.52366e-05
3.18248e-08
1.52232e-05
-4.15667e-09
1.52071e-05
-6.30606e-08
1.51937e-05
-8.94946e-08
1.51809e-05
-8.94455e-08
1.51691e-05
-7.03253e-08
1.51598e-05
-4.47305e-08
1.51546e-05
-2.08985e-08
1.51525e-05
-3.93885e-09
1.51533e-05
8.68902e-09
1.51568e-05
2.05425e-08
1.51623e-05
3.17692e-08
1.51681e-05
3.93148e-08
1.5174e-05
4.15386e-08
4.13601e-08
1.51792e-05
1.59648e-05
8.7616e-09
1.5975e-05
-4.67538e-08
1.59723e-05
-2.05434e-08
1.59565e-05
-2.64574e-08
1.59578e-05
-5.22594e-09
1.5961e-05
2.86371e-08
1.59503e-05
6.5049e-09
1.59343e-05
-4.70374e-08
1.59208e-05
-7.59887e-08
1.59095e-05
-7.81425e-08
1.58997e-05
-6.05628e-08
1.58919e-05
-3.68752e-08
1.58869e-05
-1.59116e-08
1.58848e-05
-1.83849e-09
1.58853e-05
8.14104e-09
1.58884e-05
1.74705e-08
1.58935e-05
2.66673e-08
1.58992e-05
3.36224e-08
1.59049e-05
3.58795e-08
3.61615e-08
1.59101e-05
1.67273e-05
1.21114e-08
1.67178e-05
-3.72531e-08
1.67138e-05
-1.65845e-08
1.67062e-05
-1.88174e-08
1.67103e-05
-9.42132e-09
1.67193e-05
1.97238e-08
1.67128e-05
1.29653e-08
1.6697e-05
-3.12546e-08
1.66834e-05
-6.23645e-08
1.66727e-05
-6.74212e-08
1.66648e-05
-5.26803e-08
1.66586e-05
-3.07056e-08
1.66545e-05
-1.17526e-08
1.66523e-05
3.41472e-10
1.66526e-05
7.8212e-09
1.66551e-05
1.50063e-08
1.66597e-05
2.20177e-08
1.66652e-05
2.81707e-08
1.66706e-05
3.04151e-08
3.1086e-08
1.66757e-05
1.75278e-05
1.46212e-08
1.75286e-05
-3.79561e-08
1.75205e-05
-8.55382e-09
1.75067e-05
-4.96214e-09
1.75045e-05
-7.27209e-09
1.75135e-05
1.07811e-08
1.75116e-05
1.48747e-08
1.74974e-05
-1.70694e-08
1.74833e-05
-4.82807e-08
1.74725e-05
-5.66751e-08
1.74658e-05
-4.59559e-08
1.74612e-05
-2.60719e-08
1.74582e-05
-8.80074e-09
1.74565e-05
2.10328e-09
1.74566e-05
7.69879e-09
1.74586e-05
1.29844e-08
1.74627e-05
1.79214e-08
1.74678e-05
2.30425e-08
1.74731e-05
2.51348e-08
2.6092e-08
1.74781e-05
1.83656e-05
1.73197e-08
1.83569e-05
-2.91613e-08
1.83537e-05
-5.44382e-09
1.83454e-05
3.33312e-09
1.83405e-05
-2.36362e-09
1.83462e-05
5.08849e-09
1.83475e-05
1.35713e-08
1.83362e-05
-5.70861e-09
1.83224e-05
-3.44863e-08
1.83116e-05
-4.58505e-08
1.83052e-05
-3.95726e-08
1.83019e-05
-2.27724e-08
1.83e-05
-6.97514e-09
1.82989e-05
3.21258e-09
1.82991e-05
7.58318e-09
1.83007e-05
1.13617e-08
1.83041e-05
1.45276e-08
1.83087e-05