/*--------------------------------*- C++ -*----------------------------------*\
| =========                 |                                                 |
| \\      /  F ield         | OpenFOAM: The Open Source CFD Toolbox           |
|  \\    /   O peration     | Version:  v1812                                 |
|   \\  /    A nd           | Web:      www.OpenFOAM.com                      |
|    \\/     M anipulation  |                                                 |
\*---------------------------------------------------------------------------*/
FoamFile
{
    version     2.0;
    format      ascii;
    class       volVectorField;
    location    "9.9";
    object      U;
}
// * * * * * * * * * * * * * * * * * * * * * * * * * * * * * * * * * * * * * //

dimensions      [0 1 -1 0 0 0 0];


internalField   nonuniform List<vector> 
9600
(
(0.887035 -0.00223687 0)
(1.04668 0.00326231 0)
(0.957327 -0.0130576 0)
(1.06426 0.00142362 0)
(1.01291 0.0146528 0)
(1.02282 0.0138975 0)
(0.959655 0.00430413 0)
(0.977199 -0.0246168 0)
(0.916744 -0.0255837 0)
(0.977553 -0.0276867 0)
(0.99473 -0.020072 0)
(1.03246 -0.0299219 0)
(0.996271 0.0207448 0)
(1.0966 -0.0135431 0)
(0.946884 0.0379125 0)
(1.12179 0.0046728 0)
(0.910832 0.0330954 0)
(1.12194 0.00400558 0)
(0.874282 0.022989 0)
(1.12121 0.000351381 0)
(0.899139 -0.00180894 0)
(1.03821 0.0027864 0)
(0.965731 -0.0133206 0)
(1.06107 0.00100629 0)
(1.01791 0.0147773 0)
(1.01863 0.0143729 0)
(0.97192 0.00478413 0)
(0.971952 -0.0238995 0)
(0.930515 -0.0256132 0)
(0.961844 -0.0288994 0)
(0.991447 -0.0213238 0)
(1.01757 -0.0297643 0)
(1.00216 0.0192736 0)
(1.07878 -0.0119901 0)
(0.966925 0.0368834 0)
(1.08358 0.00659788 0)
(0.960037 0.0328499 0)
(1.05216 0.00538905 0)
(0.969658 0.0247226 0)
(1.01132 1.99468e-05 0)
(0.919928 -0.00144251 0)
(1.02345 0.00239117 0)
(0.975261 -0.0135449 0)
(1.05262 0.000561851 0)
(1.02659 0.0151651 0)
(1.01618 0.0149443 0)
(0.982688 0.00526279 0)
(0.975302 -0.0234153 0)
(0.944438 -0.0255124 0)
(0.954986 -0.0295172 0)
(0.988009 -0.0220994 0)
(1.00495 -0.0298141 0)
(1.00734 0.0178278 0)
(1.06139 -0.0110831 0)
(0.990609 0.036007 0)
(1.05777 0.00715758 0)
(1.00007 0.0323034 0)
(1.03602 0.00597806 0)
(1.01519 0.0231829 0)
(1.02734 0.00203864 0)
(0.944336 -0.001116 0)
(1.00753 0.00207302 0)
(0.982903 -0.0138253 0)
(1.04086 0.00015248 0)
(1.03364 0.0155015 0)
(1.01614 0.0154249 0)
(0.991527 0.00565555 0)
(0.980257 -0.0229187 0)
(0.954554 -0.025264 0)
(0.953883 -0.0299805 0)
(0.983023 -0.022892 0)
(0.994703 -0.0300999 0)
(1.00863 0.0166945 0)
(1.04599 -0.0106763 0)
(1.0075 0.0357346 0)
(1.04575 0.0071463 0)
(1.02302 0.0324753 0)
(1.04022 0.00582441 0)
(1.03515 0.0227195 0)
(1.0448 0.00269317 0)
(0.966961 -0.000829455 0)
(0.995715 0.00185851 0)
(0.988068 -0.014114 0)
(1.02876 -0.000268944 0)
(1.03506 0.0156637 0)
(1.01604 0.0158551 0)
(0.99848 0.00601116 0)
(0.986492 -0.0223954 0)
(0.963014 -0.0249346 0)
(0.957036 -0.0302275 0)
(0.978965 -0.0235703 0)
(0.986193 -0.0303764 0)
(1.00565 0.015542 0)
(1.03443 -0.0103369 0)
(1.01475 0.0351852 0)
(1.04215 0.00747615 0)
(1.03472 0.0319293 0)
(1.04782 0.00624874 0)
(1.04605 0.0221469 0)
(1.05379 0.0041699 0)
(0.984064 -0.000604697 0)
(0.990377 0.00174996 0)
(0.991643 -0.0143708 0)
(1.0177 -0.00067487 0)
(1.03034 0.0157208 0)
(1.0142 0.0162231 0)
(1.0046 0.00630382 0)
(0.992348 -0.0218809 0)
(0.970366 -0.0245744 0)
(0.962029 -0.0303275 0)
(0.977045 -0.0240667 0)
(0.979571 -0.0306441 0)
(1.00049 0.0143697 0)
(1.02532 -0.0102051 0)
(1.01662 0.0343268 0)
(1.04065 0.00759093 0)
(1.04176 0.0307593 0)
(1.05346 0.00675758 0)
(1.05343 0.0209936 0)
(1.05832 0.00569245 0)
(0.9946 -0.000452275 0)
(0.990487 0.00171707 0)
(0.994356 -0.0145528 0)
(1.00773 -0.000997212 0)
(1.02155 0.0157197 0)
(1.01112 0.0164596 0)
(1.01067 0.00650077 0)
(0.997898 -0.0213558 0)
(0.977239 -0.0241901 0)
(0.967554 -0.0303019 0)
(0.976932 -0.0244042 0)
(0.975373 -0.0308287 0)
(0.995296 0.0131718 0)
(1.01825 -0.0101946 0)
(1.01676 0.0332107 0)
(1.04019 0.00756811 0)
(1.04706 0.0294209 0)
(1.05785 0.00732606 0)
(1.05869 0.0197789 0)
(1.06105 0.00741663 0)
(0.999707 -0.000366302 0)
(0.993486 0.00172507 0)
(0.996145 -0.0146289 0)
(0.998778 -0.00120635 0)
(1.01168 0.015653 0)
(1.00845 0.0165105 0)
(1.01709 0.00659917 0)
(1.00322 -0.0208191 0)
(0.983799 -0.0237952 0)
(0.972831 -0.0301813 0)
(0.977655 -0.0246204 0)
(0.973205 -0.0309252 0)
(0.991723 0.0119542 0)
(1.01363 -0.0102709 0)
(1.01746 0.0318279 0)
(1.04079 0.00749032 0)
(1.05175 0.0278989 0)
(1.06136 0.00797372 0)
(1.0621 0.0186723 0)
(1.06212 0.00925307 0)
(1.0014 -0.000331411 0)
(0.997207 0.00174818 0)
(0.996664 -0.0145912 0)
(0.991208 -0.00132312 0)
(1.00345 0.0155038 0)
(1.00758 0.0163563 0)
(1.0236 0.00661278 0)
(1.00825 -0.0202576 0)
(0.990007 -0.0233818 0)
(0.977534 -0.029959 0)
(0.978448 -0.0247443 0)
(0.971833 -0.0309625 0)
(0.990653 0.0106987 0)
(1.01167 -0.0104237 0)
(1.01997 0.0301941 0)
(1.04265 0.00738684 0)
(1.05596 0.0261857 0)
(1.06381 0.0087583 0)
(1.06347 0.0176464 0)
(1.06122 0.0111597 0)
(1.00147 -0.000332202 0)
(1.00054 0.0017794 0)
(0.995997 -0.0144482 0)
(0.985548 -0.00138654 0)
(0.998425 0.0152591 0)
(1.00885 0.0160162 0)
(1.02932 0.00656735 0)
(1.01269 -0.0196632 0)
(0.995591 -0.0229428 0)
(0.981594 -0.0296237 0)
(0.979084 -0.0247722 0)
(0.970013 -0.0309994 0)
(0.991828 0.00934401 0)
(1.01142 -0.0106424 0)
(1.02415 0.0283478 0)
(1.04515 0.00729642 0)
(1.05901 0.0243883 0)
(1.06442 0.00970647 0)
(1.06235 0.0167896 0)
(1.05797 0.0130925 0)
(1.00101 -0.00035751 0)
(1.00309 0.00182034 0)
(0.994825 -0.0142178 0)
(0.982081 -0.00144694 0)
(0.996634 0.0149142 0)
(1.01142 0.0155375 0)
(1.03318 0.00649415 0)
(1.01612 -0.0190397 0)
(1.00017 -0.0224768 0)
(0.985049 -0.0291689 0)
(0.979778 -0.0246705 0)
(0.967347 -0.0310727 0)
(0.993788 0.00783535 0)
(1.01095 -0.0109134 0)
(1.02819 0.0263023 0)
(1.04659 0.00730615 0)
(1.05944 0.0226388 0)
(1.06208 0.0108421 0)
(1.05815 0.0161648 0)
(1.05214 0.0149733 0)
(1.00056 -0.000399612 0)
(1.00472 0.00187102 0)
(0.994009 -0.0139236 0)
(0.980643 -0.00151829 0)
(0.996904 0.014479 0)
(1.01387 0.0149854 0)
(1.03447 0.00641797 0)
(1.0183 -0.0184049 0)
(1.00343 -0.0219927 0)
(0.987926 -0.0286087 0)
(0.980841 -0.0244159 0)
(0.964516 -0.0311466 0)
(0.994547 0.00618332 0)
(1.00847 -0.0112088 0)
(1.02929 0.0240939 0)
(1.04477 0.00747448 0)
(1.05568 0.021028 0)
(1.05586 0.0121532 0)
(1.05061 0.0157797 0)
(1.04386 0.0167073 0)
(1.00032 -0.000451434 0)
(1.00537 0.00192526 0)
(0.994057 -0.0135894 0)
(0.980706 -0.00160961 0)
(0.997678 0.0139858 0)
(1.01505 0.0144185 0)
(1.03326 0.0063449 0)
(1.01928 -0.0177822 0)
(1.00534 -0.0215052 0)
(0.990203 -0.0279776 0)
(0.982357 -0.0240226 0)
(0.9627 -0.0311452 0)
(0.992729 0.00447169 0)
(1.00331 -0.0114619 0)
(1.02529 0.0218011 0)
(1.03827 0.00780902 0)
(1.04701 0.0195671 0)
(1.0457 0.0135375 0)
(1.04019 0.0156346 0)
(1.03377 0.0181863 0)
(1.00029 -0.000506127 0)
(1.00521 0.00197372 0)
(0.994921 -0.0132375 0)
(0.981603 -0.00172249 0)
(0.997883 0.0134799 0)
(1.01462 0.0138646 0)
(1.03037 0.00626566 0)
(1.01936 -0.0171983 0)
(1.00615 -0.0210252 0)
(0.991863 -0.0273204 0)
(0.984109 -0.0235358 0)
(0.962651 -0.030983 0)
(0.988373 0.00282289 0)
(0.996243 -0.0115845 0)
(1.01616 0.0195095 0)
(1.02745 0.0082737 0)
(1.0344 0.0182502 0)
(1.03278 0.0148624 0)
(1.0282 0.0156594 0)
(1.02301 0.0192964 0)
(1.00041 -0.00055772 0)
(1.00457 0.00200789 0)
(0.996195 -0.0128845 0)
(0.982774 -0.00182586 0)
(0.997271 0.0129961 0)
(1.01303 0.0133359 0)
(1.02686 0.00616653 0)
(1.0189 -0.0166619 0)
(1.00627 -0.0205603 0)
(0.992957 -0.0266698 0)
(0.985752 -0.0230188 0)
(0.9642 -0.0305944 0)
(0.982774 0.00134553 0)
(0.988894 -0.0115121 0)
(1.00412 0.0173168 0)
(1.0144 0.00880527 0)
(1.02026 0.017046 0)
(1.01917 0.0159992 0)
(1.0164 0.0157797 0)
(1.01292 0.0199609 0)
(1.00057 -0.000602817 0)
(1.00381 0.00202233 0)
(0.997456 -0.0125365 0)
(0.983884 -0.00190462 0)
(0.996166 0.0125524 0)
(1.011 0.0128281 0)
(1.02357 0.0060368 0)
(1.01819 -0.016169 0)
(1.00609 -0.0201142 0)
(0.993613 -0.0260302 0)
(0.987038 -0.0225285 0)
(0.966547 -0.0299694 0)
(0.977541 9.4505e-05 0)
(0.982703 -0.0112138 0)
(0.992237 0.0152948 0)
(1.00178 0.00935468 0)
(1.00723 0.015928 0)
(1.00696 0.0168495 0)
(1.00629 0.0159491 0)
(1.00454 0.0201994 0)
(1.00069 -0.000641457 0)
(1.00316 0.00201891 0)
(0.998463 -0.012191 0)
(0.984818 -0.00195377 0)
(0.995011 0.0121513 0)
(1.00908 0.0123267 0)
(1.02088 0.00587489 0)
(1.01742 -0.0157126 0)
(1.00585 -0.0196836 0)
(0.993987 -0.025389 0)
(0.987909 -0.0220911 0)
(0.968886 -0.0291398 0)
(0.97369 -0.000955892 0)
(0.978315 -0.0106963 0)
(0.982765 0.0134679 0)
(0.991504 0.00986905 0)
(0.997033 0.0148975 0)
(0.997456 0.017397 0)
(0.99863 0.0161272 0)
(0.998343 0.0200704 0)
(1.00075 -0.000674612 0)
(1.00269 0.00200025 0)
(0.999154 -0.0118427 0)
(0.985587 -0.00197904 0)
(0.994085 0.0117844 0)
(1.00755 0.0118241 0)
(1.01881 0.00568687 0)
(1.01666 -0.01528 0)
(1.00562 -0.0192648 0)
(0.994198 -0.0247378 0)
(0.988442 -0.0216968 0)
(0.970797 -0.0281578 0)
(0.971393 -0.00185028 0)
(0.975628 -0.010012 0)
(0.976427 0.0118268 0)
(0.98423 0.0103252 0)
(0.990062 0.0139485 0)
(0.990889 0.0176559 0)
(0.993406 0.0162862 0)
(0.994215 0.0196661 0)
(1.00076 -0.000702947 0)
(1.00237 0.00196663 0)
(0.999567 -0.0114866 0)
(0.986242 -0.00199015 0)
(0.993465 0.0114449 0)
(1.00642 0.0113132 0)
(1.01723 0.00547822 0)
(1.01592 -0.0148604 0)
(1.0054 -0.0188567 0)
(0.994318 -0.0240666 0)
(0.988746 -0.0213299 0)
(0.972236 -0.0270718 0)
(0.970315 -0.00263174 0)
(0.974193 -0.00922495 0)
(0.972795 0.0103845 0)
(0.979603 0.0106891 0)
(0.985797 0.0131141 0)
(0.986801 0.0176513 0)
(0.990133 0.0164212 0)
(0.991721 0.0191147 0)
(1.00072 -0.000727303 0)
(1.00216 0.00192005 0)
(0.999766 -0.0111195 0)
(0.986828 -0.00199548 0)
(0.993116 0.0111267 0)
(1.00564 0.0107939 0)
(1.01599 0.00525156 0)
(1.01521 -0.0144441 0)
(1.00518 -0.0184631 0)
(0.994377 -0.0233653 0)
(0.98891 -0.0209809 0)
(0.973332 -0.0259195 0)
(0.970022 -0.00332382 0)
(0.973574 -0.00838652 0)
(0.971044 0.00911737 0)
(0.976903 0.0109359 0)
(0.983429 0.0124238 0)
(0.984496 0.0174425 0)
(0.988225 0.0165283 0)
(0.990366 0.0184915 0)
(1.00067 -0.000747794 0)
(1.00201 0.00186298 0)
(0.999814 -0.0107393 0)
(0.987366 -0.00200238 0)
(0.992972 0.0108243 0)
(1.0051 0.0102701 0)
(1.01498 0.00500942 0)
(1.01452 -0.0140217 0)
(1.00494 -0.018081 0)
(0.994392 -0.0226362 0)
(0.98899 -0.0206372 0)
(0.974229 -0.0247379 0)
(0.970192 -0.00393061 0)
(0.973468 -0.00754853 0)
(0.970462 0.00797946 0)
(0.975475 0.0110827 0)
(0.982263 0.0118483 0)
(0.983371 0.01707 0)
(0.9872 0.0166003 0)
(0.989744 0.0178566 0)
(1.00061 -0.000764518 0)
(1.00189 0.00179678 0)
(0.999768 -0.0103453 0)
(0.987868 -0.00201423 0)
(0.992971 0.0105312 0)
(1.00473 0.00974503 0)
(1.01415 0.00475573 0)
(1.01384 -0.0135877 0)
(1.00467 -0.017705 0)
(0.994376 -0.0218834 0)
(0.989021 -0.020288 0)
(0.975023 -0.0235523 0)
(0.970638 -0.00447298 0)
(0.973694 -0.00675746 0)
(0.970584 0.00697198 0)
(0.974859 0.0111331 0)
(0.981825 0.0113708 0)
(0.983001 0.0165651 0)
(0.986727 0.0166288 0)
(0.989566 0.0172395 0)
(1.00056 -0.000777682 0)
(1.00178 0.00172058 0)
(0.999679 -0.00993719 0)
(0.988337 -0.00202982 0)
(0.993067 0.0102442 0)
(1.00446 0.00921582 0)
(1.01342 0.00449093 0)
(1.01315 -0.0131425 0)
(1.00439 -0.0173374 0)
(0.994337 -0.021109 0)
(0.98903 -0.019928 0)
(0.975771 -0.0223782 0)
(0.971254 -0.00493921 0)
(0.974142 -0.0060374 0)
(0.97113 0.00609324 0)
(0.974759 0.0110707 0)
(0.981815 0.0109922 0)
(0.983103 0.0159678 0)
(0.986585 0.0166069 0)
(0.989636 0.0166742 0)
(1.00053 -0.000787171 0)
(1.00166 0.00163514 0)
(0.999591 -0.00951283 0)
(0.988779 -0.00205974 0)
(0.993225 0.00996073 0)
(1.00425 0.00868745 0)
(1.01278 0.00421445 0)
(1.01247 -0.0126793 0)
(1.00409 -0.0169763 0)
(0.994286 -0.020324 0)
(0.989032 -0.0195485 0)
(0.976501 -0.0212288 0)
(0.97198 -0.00531681 0)
(0.974733 -0.00538636 0)
(0.971928 0.00532224 0)
(0.974984 0.0109128 0)
(0.982044 0.0106824 0)
(0.983487 0.0153146 0)
(0.986637 0.0165189 0)
(0.989823 0.0161722 0)
(1.00052 -0.000792418 0)
(1.00153 0.00154066 0)
(0.999535 -0.00907459 0)
(0.989198 -0.002102 0)
(0.993417 0.00967511 0)
(1.00404 0.00817152 0)
(1.01219 0.00392537 0)
(1.01179 -0.0121915 0)
(1.0038 -0.0166216 0)
(0.994231 -0.0195257 0)
(0.989041 -0.0191402 0)
(0.977225 -0.0201311 0)
(0.972776 -0.00561466 0)
(0.975407 -0.00481655 0)
(0.97287 0.00464881 0)
(0.975401 0.010671 0)
(0.982393 0.0104286 0)
(0.984029 0.0146298 0)
(0.986799 0.0163443 0)
(0.990041 0.0157182 0)
(1.00052 -0.000793547 0)
(1.00137 0.00143723 0)
(0.999525 -0.00862458 0)
(0.989603 -0.00214701 0)
(0.993626 0.0093859 0)
(1.00384 0.00766742 0)
(1.01163 0.00362186 0)
(1.01113 -0.0116872 0)
(1.00352 -0.0162659 0)
(0.994183 -0.018725 0)
(0.989061 -0.018701 0)
(0.977946 -0.0190939 0)
(0.973613 -0.00583871 0)
(0.976119 -0.00431496 0)
(0.973884 0.00406339 0)
(0.975926 0.0103565 0)
(0.982792 0.0102145 0)
(0.984644 0.0139304 0)
(0.987024 0.0160978 0)
(0.990245 0.0153329 0)
(1.00053 -0.000790193 0)
(1.00119 0.00132414 0)
(0.999557 -0.00816347 0)
(0.99 -0.00219657 0)
(0.993841 0.00909112 0)
(1.00363 0.0071802 0)
(1.0111 0.0033046 0)
(1.01048 -0.0111705 0)
(1.00326 -0.0159016 0)
(0.99415 -0.0179391 0)
(0.989099 -0.0182188 0)
(0.978664 -0.0181142 0)
(0.974473 -0.00598734 0)
(0.976837 -0.00388444 0)
(0.974926 0.00354352 0)
(0.976505 0.0100049 0)
(0.983198 0.0100231 0)
(0.985285 0.0132176 0)
(0.987294 0.0157704 0)
(0.990405 0.015014 0)
(1.00054 -0.000780686 0)
(1.00099 0.00120109 0)
(0.999619 -0.00769353 0)
(0.990394 -0.0022467 0)
(0.994058 0.00878698 0)
(1.00342 0.00671332 0)
(1.01058 0.00297059 0)
(1.00987 -0.0106415 0)
(1.00304 -0.0155279 0)
(0.994139 -0.0171659 0)
(0.98916 -0.0176867 0)
(0.979379 -0.0171931 0)
(0.975343 -0.00607053 0)
(0.977541 -0.00352053 0)
(0.975969 0.00308585 0)
(0.977114 0.00960845 0)
(0.983589 0.00984846 0)
(0.98592 0.0125142 0)
(0.987607 0.0153514 0)
(0.990515 0.0147526 0)
(1.00055 -0.000765908 0)
(1.00079 0.00106885 0)
(0.999692 -0.00722053 0)
(0.990788 -0.00229206 0)
(0.994274 0.00846848 0)
(1.00323 0.0062726 0)
(1.01007 0.00262134 0)
(1.00928 -0.010105 0)
(1.00286 -0.0151355 0)
(0.994152 -0.0164166 0)
(0.989246 -0.0171007 0)
(0.980089 -0.0163304 0)
(0.976218 -0.00609566 0)
(0.978226 -0.00319308 0)
(0.976996 0.00268853 0)
(0.977739 0.00916395 0)
(0.983957 0.00968712 0)
(0.986532 0.0118455 0)
(0.987962 0.014833 0)
(0.990579 0.0145204 0)
(1.00056 -0.000745207 0)
(1.00059 0.000928097 0)
(0.999757 -0.00674778 0)
(0.991185 -0.00233159 0)
(0.994491 0.00813681 0)
(1.00304 0.00585801 0)
(1.00956 0.00226733 0)
(1.00871 -0.00956705 0)
(1.00269 -0.0147217 0)
(0.994188 -0.0156943 0)
(0.989358 -0.0164661 0)
(0.980797 -0.0155147 0)
(0.977099 -0.00607314 0)
(0.978894 -0.00290281 0)
(0.977997 0.00235096 0)
(0.978384 0.00868681 0)
(0.984304 0.00953093 0)
(0.987109 0.0112207 0)
(0.988358 0.0142149 0)
(0.990616 0.0142935 0)
(1.00056 -0.000717889 0)
(1.0004 0.000778896 0)
(0.999805 -0.00627819 0)
(0.991588 -0.00236045 0)
(0.994706 0.00778943 0)
(1.00286 0.0054687 0)
(1.00906 0.00189815 0)
(1.00815 -0.00903639 0)
(1.00255 -0.0142833 0)
(0.994244 -0.0149984 0)
(0.989495 -0.0157891 0)
(0.981506 -0.0147323 0)
(0.977988 -0.00601312 0)
(0.979555 -0.00263962 0)
(0.978972 0.00205706 0)
(0.979055 0.00819226 0)
(0.984634 0.00935067 0)
(0.987647 0.0106503 0)
(0.9888 0.0135231 0)
(0.990648 0.0140298 0)
(1.00056 -0.000685483 0)
(1.00024 0.000625244 0)
(0.999831 -0.00581706 0)
(0.991999 -0.0023748 0)
(0.994922 0.00742151 0)
(1.00267 0.00510667 0)
(1.00854 0.00152333 0)
(1.00759 -0.0085209 0)
(1.0024 -0.0138171 0)
(0.994315 -0.0143345 0)
(0.989654 -0.0150723 0)
(0.982217 -0.0139759 0)
(0.97889 -0.00591885 0)
(0.980219 -0.00239564 0)
(0.979924 0.00180592 0)
(0.97976 0.00768443 0)
(0.984962 0.00914948 0)
(0.988146 0.0101288 0)
(0.989279 0.0127777 0)
(0.990707 0.0136917 0)
(1.00056 -0.000648304 0)
(1.0001 0.000471846 0)
(0.999836 -0.00536759 0)
(0.992416 -0.00237617 0)
(0.995141 0.00703766 0)
(1.00247 0.00476661 0)
(1.00803 0.00116203 0)
(1.00702 -0.00802256 0)
(1.00225 -0.0133232 0)
(0.9944 -0.0137007 0)
(0.989831 -0.0143328 0)
(0.982929 -0.0132366 0)
(0.979804 -0.00580437 0)
(0.980896 -0.00216882 0)
(0.980856 0.00160601 0)
(0.980507 0.00716959 0)
(0.985299 0.0089191 0)
(0.988607 0.00967067 0)
(0.989792 0.012011 0)
(0.990818 0.0132623 0)
(1.00056 -0.000607144 0)
(0.999985 0.000319123 0)
(0.999825 -0.00493166 0)
(0.992838 -0.00236252 0)
(0.995365 0.00664061 0)
(1.00226 0.00445014 0)
(1.00752 0.000808189 0)
(1.00644 -0.00754419 0)
(1.00209 -0.0127994 0)
(0.994497 -0.0130981 0)
(0.990025 -0.0135772 0)
(0.983639 -0.0125108 0)
(0.980732 -0.00567182 0)
(0.981591 -0.00195838 0)
(0.981769 0.00145155 0)
(0.981294 0.00664902 0)
(0.985662 0.00864211 0)
(0.989033 0.00927997 0)
(0.990324 0.0112591 0)
(0.991003 0.0127178 0)
(1.00056 -0.000562512 0)
(0.999888 0.000170102 0)
(0.999804 -0.00451085 0)
(0.993262 -0.00233335 0)
(0.995595 0.0062251 0)
(1.00204 0.00415711 0)
(1.00701 0.000469151 0)
(1.00588 -0.00708781 0)
(1.00192 -0.0122474 0)
(0.994606 -0.0125197 0)
(0.990234 -0.0128162 0)
(0.984342 -0.0117898 0)
(0.981671 -0.00551622 0)
(0.982307 -0.00176499 0)
(0.982664 0.00133494 0)
(0.982115 0.0061389 0)
(0.986063 0.00833105 0)
(0.989434 0.0089222 0)
(0.990855 0.0105593 0)
(0.99127 0.0120719 0)
(1.00055 -0.000514813 0)
(0.999808 2.67678e-05 0)
(0.999777 -0.00410741 0)
(0.993684 -0.00228983 0)
(0.995831 0.00579599 0)
(1.00181 0.00388437 0)
(1.00652 0.000152419 0)
(1.00532 -0.00665987 0)
(1.00174 -0.0116694 0)
(0.994726 -0.0119564 0)
(0.990459 -0.0120633 0)
(0.985037 -0.0110714 0)
(0.982614 -0.00534487 0)
(0.983042 -0.00159034 0)
(0.983539 0.00125151 0)
(0.982962 0.00564874 0)
(0.986504 0.00798708 0)
(0.989814 0.00858007 0)
(0.99137 0.00993786 0)
(0.99161 0.0113642 0)
(1.00055 -0.000467042 0)
(0.99974 -0.000108197 0)
(0.99975 -0.00371981 0)
(0.994099 -0.00223308 0)
(0.996074 0.00535772 0)
(1.00157 0.00362901 0)
(1.00603 -0.00013716 0)
(1.00478 -0.00627022 0)
(1.00156 -0.0110645 0)
(0.994856 -0.0114075 0)
(0.990701 -0.0113246 0)
(0.985718 -0.0103673 0)
(0.983555 -0.00516574 0)
(0.983793 -0.00143533 0)
(0.984391 0.00120077 0)
(0.983824 0.00518305 0)
(0.986988 0.00760557 0)
(0.990188 0.00822959 0)
(0.991858 0.00938583 0)
(0.992002 0.0106501 0)
(1.00054 -0.000416501 0)
(0.999683 -0.000237997 0)
(0.999724 -0.00335059 0)
(0.994504 -0.00215914 0)
(0.99632 0.00490797 0)
(1.00133 0.0033869 0)
(1.00557 -0.000395763 0)
(1.00426 -0.00592027 0)
(1.00137 -0.0104492 0)
(0.994998 -0.0108646 0)
(0.99096 -0.0106106 0)
(0.986385 -0.00967139 0)
(0.984491 -0.00497388 0)
(0.984559 -0.00130426 0)
(0.985222 0.00118092 0)
(0.98469 0.0047523 0)
(0.987507 0.007204 0)
(0.990563 0.00786916 0)
(0.992321 0.00887748 0)
(0.992421 0.00998118 0)
(1.00053 -0.000365462 0)
(0.999636 -0.000359904 0)
(0.999702 -0.0030018 0)
(0.994894 -0.00207395 0)
(0.996571 0.00445243 0)
(1.0011 0.00315336 0)
(1.00512 -0.000615436 0)
(1.00377 -0.00560865 0)
(1.00119 -0.0098378 0)
(0.99515 -0.0103205 0)
(0.991238 -0.0099142 0)
(0.987037 -0.00898084 0)
(0.985416 -0.00476987 0)
(0.985339 -0.00119954 0)
(0.98603 0.00117445 0)
(0.985549 0.00436985 0)
(0.988058 0.00679374 0)
(0.990943 0.00751085 0)
(0.992762 0.00838896 0)
(0.992847 0.00936565 0)
(1.00052 -0.000316712 0)
(0.999599 -0.00046884 0)
(0.999686 -0.00267688 0)
(0.995269 -0.00197452 0)
(0.996823 0.00399479 0)
(1.00087 0.00292977 0)
(1.00468 -0.000786288 0)
(1.00331 -0.00532191 0)
(1.00101 -0.00923272 0)
(0.995314 -0.00977548 0)
(0.991538 -0.00923743 0)
(0.987673 -0.00830166 0)
(0.986325 -0.00455517 0)
(0.986131 -0.00112021 0)
(0.98682 0.00117752 0)
(0.986398 0.00403152 0)
(0.988634 0.00637824 0)
(0.991329 0.00714762 0)
(0.993185 0.00791347 0)
(0.993272 0.00879379 0)
(1.00051 -0.000268208 0)
(0.999571 -0.000566877 0)
(0.999676 -0.00238245 0)
(0.995626 -0.00185296 0)
(0.997077 0.00354479 0)
(1.00064 0.00270062 0)
(1.00426 -0.000909412 0)
(1.00288 -0.0050494 0)
(1.00084 -0.00864347 0)
(0.995489 -0.00923452 0)
(0.991859 -0.00858351 0)
(0.988294 -0.0076326 0)
(0.987214 -0.00432886 0)
(0.986936 -0.00106583 0)
(0.987596 0.00119051 0)
(0.98723 0.00372923 0)
(0.989229 0.00596283 0)
(0.991723 0.00677956 0)
(0.993597 0.00745818 0)
(0.993697 0.00824858 0)
(1.0005 -0.000223324 0)
(0.999551 -0.000647972 0)
(0.999674 -0.00212146 0)
(0.995965 -0.00171059 0)
(0.99733 0.00310823 0)
(1.00043 0.00246949 0)
(1.00385 -0.00098967 0)
(1.00248 -0.00478631 0)
(1.00069 -0.008073 0)
(0.995675 -0.00870082 0)
(0.992203 -0.00794951 0)
(0.988901 -0.00697513 0)
(0.988077 -0.00408016 0)
(0.987753 -0.00103054 0)
(0.988364 0.00118602 0)
(0.98804 0.00347117 0)
(0.989839 0.00555281 0)
(0.992128 0.00640248 0)
(0.993995 0.00701222 0)
(0.994119 0.00771409 0)
(1.00048 -0.000183685 0)
(0.999537 -0.000703552 0)
(0.999681 -0.0019059 0)
(0.996284 -0.0015435 0)
(0.99758 0.00268874 0)
(1.00024 0.00222766 0)
(1.00346 -0.00103929 0)
(1.00211 -0.00452267 0)
(1.00054 -0.00752308 0)
(0.995874 -0.0081829 0)
(0.99257 -0.00734709 0)
(0.989495 -0.00632741 0)
(0.98891 -0.00380983 0)
(0.988574 -0.0010095 0)
(0.989131 0.00116126 0)
(0.988831 0.00324913 0)
(0.990454 0.00516689 0)
(0.992544 0.00601804 0)
(0.994385 0.00657825 0)
(0.994541 0.00719967 0)
(1.00047 -0.000149838 0)
(0.999529 -0.000733338 0)
(0.999696 -0.00172976 0)
(0.996585 -0.00136801 0)
(0.99782 0.00229974 0)
(1.00007 0.00196477 0)
(1.00309 -0.00106895 0)
(1.00176 -0.00425016 0)
(1.00041 -0.00698647 0)
(0.996083 -0.00768105 0)
(0.992964 -0.0067807 0)
(0.990078 -0.0056909 0)
(0.989705 -0.00351834 0)
(0.989395 -0.000989632 0)
(0.989902 0.00111237 0)
(0.989609 0.00304212 0)
(0.99107 0.00480416 0)
(0.992969 0.00563119 0)
(0.994769 0.00615742 0)
(0.994963 0.00670849 0)
(1.00045 -0.000122738 0)
(0.999524 -0.000735774 0)
(0.999719 -0.0015871 0)
(0.996868 -0.00119469 0)
(0.99805 0.00195731 0)
(0.999909 0.0016955 0)
(1.00274 -0.00108567 0)
(1.00144 -0.00397112 0)
(1.00029 -0.00644967 0)
(0.996302 -0.00718281 0)
(0.993385 -0.00625665 0)
(0.990656 -0.00508978 0)
(0.990461 -0.00318918 0)
(0.990204 -0.000967026 0)
(0.990675 0.0010392 0)
(0.990376 0.0028292 0)
(0.991685 0.00445451 0)
(0.993404 0.00525552 0)
(0.995153 0.00574448 0)
(0.995387 0.00623158 0)
(1.00043 -0.000101772 0)
(0.99952 -0.000715475 0)
(0.99975 -0.00147171 0)
(0.997134 -0.0010347 0)
(0.998263 0.00167569 0)
(0.99977 0.00143 0)
(1.00242 -0.00110652 0)
(1.00115 -0.00369005 0)
(1.00018 -0.00591424 0)
(0.996525 -0.00667004 0)
(0.99383 -0.00577217 0)
(0.991237 -0.00454152 0)
(0.991177 -0.00284082 0)
(0.990989 -0.000927556 0)
(0.991446 0.000945665 0)
(0.991136 0.00260969 0)
(0.992304 0.00411733 0)
(0.993847 0.00488637 0)
(0.995531 0.00534053 0)
(0.995806 0.00576235 0)
(1.00041 -8.68544e-05 0)
(0.999517 -0.000678512 0)
(0.999785 -0.00136808 0)
(0.997388 -0.000909838 0)
(0.998459 0.00145318 0)
(0.999642 0.00118589 0)
(1.00213 -0.00113841 0)
(1.0009 -0.0034168 0)
(1.00009 -0.00538048 0)
(0.996747 -0.00614758 0)
(0.994292 -0.00531212 0)
(0.991826 -0.00405383 0)
(0.991859 -0.00250425 0)
(0.991743 -0.000859897 0)
(0.992206 0.000839799 0)
(0.99189 0.00239294 0)
(0.992922 0.00378714 0)
(0.994298 0.0045206 0)
(0.995908 0.00495318 0)
(0.996218 0.00532042 0)
(1.00039 -7.71208e-05 0)
(0.999514 -0.000628757 0)
(0.999822 -0.00127494 0)
(0.99763 -0.000817444 0)
(0.99864 0.00128007 0)
(0.999522 0.000980031 0)
(1.00187 -0.00116393 0)
(1.00069 -0.00316402 0)
(1.00001 -0.00484732 0)
(0.996966 -0.005615 0)
(0.994762 -0.00487588 0)
(0.992422 -0.00363311 0)
(0.992515 -0.00219237 0)
(0.992461 -0.000778631 0)
(0.99295 0.000740122 0)
(0.992635 0.00217575 0)
(0.993539 0.00346608 0)
(0.994757 0.00416798 0)
(0.996286 0.00457384 0)
(0.996611 0.00491528 0)
(1.00037 -6.97758e-05 0)
(0.999509 -0.000576538 0)
(0.999857 -0.00117604 0)
(0.997865 -0.000761797 0)
(0.99881 0.00114249 0)
(0.999407 0.000826757 0)
(1.00163 -0.00116764 0)
(1.00051 -0.00294124 0)
(0.999948 -0.00433292 0)
(0.997176 -0.00506886 0)
(0.99523 -0.00445248 0)
(0.993022 -0.00326406 0)
(0.993151 -0.00191202 0)
(0.993146 -0.000684748 0)
(0.993671 0.000649865 0)
(0.993368 0.00195029 0)
(0.994154 0.00315209 0)
(0.995219 0.0038284 0)
(0.996671 0.00418742 0)
(0.996996 0.00452829 0)
(1.00035 -6.335e-05 0)
(0.999505 -0.000526692 0)
(0.999887 -0.00106645 0)
(0.99809 -0.000734539 0)
(0.998973 0.00101083 0)
(0.999296 0.000731295 0)
(1.00141 -0.00114118 0)
(1.00037 -0.00274135 0)
(0.99992 -0.00386941 0)
(0.997381 -0.0045281 0)
(0.995686 -0.00403744 0)
(0.993621 -0.00293412 0)
(0.993772 -0.00166664 0)
(0.993797 -0.000581507 0)
(0.99436 0.000583943 0)
(0.994085 0.00174073 0)
(0.994773 0.00285138 0)
(0.99568 0.00351448 0)
(0.997056 0.00381819 0)
(0.997388 0.00413617 0)
(1.00033 -5.54495e-05 0)
(0.999502 -0.000482266 0)
(0.999911 -0.000951959 0)
(0.998304 -0.000721706 0)
(0.999135 0.000874137 0)
(0.999193 0.000681673 0)
(1.00119 -0.00107402 0)
(1.00027 -0.00253714 0)
(0.999921 -0.00345305 0)
(0.997582 -0.00399854 0)
(0.996125 -0.00362564 0)
(0.994211 -0.00263739 0)
(0.994381 -0.00146762 0)
(0.994422 -0.000496215 0)
(0.995017 0.000522801 0)
(0.99478 0.0015538 0)
(0.995391 0.00255677 0)
(0.996141 0.00321648 0)
(0.997429 0.00349559 0)
(0.997783 0.00374298 0)
(1.0003 -4.4677e-05 0)
(0.999502 -0.000447684 0)
(0.999929 -0.000822068 0)
(0.998503 -0.000722068 0)
(0.9993 0.000723008 0)
(0.999103 0.000654735 0)
(1.00099 -0.000965867 0)
(1.00018 -0.00233713 0)
(0.999951 -0.00308026 0)
(0.997784 -0.00350059 0)
(0.996539 -0.00319021 0)
(0.994781 -0.0023434 0)
(0.994971 -0.00128376 0)
(0.995021 -0.000418058 0)
(0.995648 0.000463805 0)
(0.99545 0.00138318 0)
(0.996005 0.00227063 0)
(0.996618 0.00290564 0)
(0.997786 0.00319655 0)
(0.998171 0.00336121 0)
(1.00028 -2.83452e-05 0)
(0.999505 -0.000427913 0)
(0.999938 -0.000676697 0)
(0.998683 -0.000719712 0)
(0.99947 0.000552229 0)
(0.999034 0.000637512 0)
(1.0008 -0.000804109 0)
(1.00011 -0.00212833 0)
(1.00001 -0.00277009 0)
(0.997999 -0.00307207 0)
(0.996936 -0.00277298 0)
(0.995324 -0.00205603 0)
(0.99554 -0.00111638 0)
(0.995592 -0.000341499 0)
(0.996245 0.000415545 0)
(0.996088 0.00123385 0)
(0.996599 0.0020244 0)
(0.997103 0.00260537 0)
(0.998136 0.00292232 0)
(0.998536 0.00303495 0)
(1.00025 -1.24356e-05 0)
(0.999515 -0.00043397 0)
(0.999944 -0.000545178 0)
(0.998839 -0.000685309 0)
(0.999645 0.000382702 0)
(0.998996 0.000622786 0)
(1.00062 -0.000595305 0)
(1.00004 -0.0018714 0)
(1.00008 -0.0024788 0)
(0.998226 -0.00268139 0)
(0.997319 -0.00238556 0)
(0.995839 -0.00175939 0)
(0.996085 -0.000963005 0)
(0.996137 -0.000282918 0)
(0.996816 0.000363757 0)
(0.996705 0.00107049 0)
(0.997176 0.0017872 0)
(0.997594 0.00230805 0)
(0.998493 0.00263432 0)
(0.998869 0.0027446 0)
(1.00022 2.60764e-05 0)
(0.999532 -0.000440345 0)
(0.999954 -0.000447638 0)
(0.998974 -0.000657404 0)
(0.999823 0.000201152 0)
(0.998998 0.000578723 0)
(1.00046 -0.000384384 0)
(0.999966 -0.00160607 0)
(1.00017 -0.00221373 0)
(0.998466 -0.00236562 0)
(0.997695 -0.00204631 0)
(0.996322 -0.00147371 0)
(0.996592 -0.000794254 0)
(0.996649 -0.000216019 0)
(0.997344 0.000333435 0)
(0.997289 0.00092559 0)
(0.997733 0.00156657 0)
(0.998075 0.00204067 0)
(0.998862 0.00234543 0)
(0.999182 0.00248515 0)
(1.0002 3.53809e-05 0)
(0.999546 -0.000390828 0)
(0.99996 -0.000261141 0)
(0.999086 -0.000570453 0)
(1 -8.07e-06 0)
(0.999043 0.000499145 0)
(1.00032 -0.000162912 0)
(0.999886 -0.00129235 0)
(1.00024 -0.00193033 0)
(0.998715 -0.00208978 0)
(0.998078 -0.00175983 0)
(0.996792 -0.00122687 0)
(0.997074 -0.00063588 0)
(0.997132 -0.000158652 0)
(0.997842 0.000292787 0)
(0.997841 0.000784045 0)
(0.998272 0.00133705 0)
(0.998547 0.00178486 0)
(0.999238 0.00205707 0)
(0.999482 0.00222655 0)
(1.00017 8.42926e-05 0)
(0.999586 -0.000474729 0)
(0.999972 -0.000267102 0)
(0.999146 -0.000443957 0)
(1.00016 -7.91607e-05 0)
(0.999142 0.000475478 0)
(1.00024 4.4857e-05 0)
(0.999811 -0.000969374 0)
(1.00031 -0.00165069 0)
(0.998963 -0.00183265 0)
(0.99846 -0.00153093 0)
(0.997247 -0.00100714 0)
(0.997525 -0.000484373 0)
(0.997577 -7.82824e-05 0)
(0.998299 0.000277579 0)
(0.998353 0.000676605 0)
(0.998793 0.00113348 0)
(0.999013 0.00154558 0)
(0.999622 0.00178734 0)
(0.999797 0.00196255 0)
(1.00015 0.000105025 0)
(0.999601 -0.000471425 0)
(1.00003 -0.000249894 0)
(0.999258 -0.000305891 0)
(1.00033 -0.000102891 0)
(0.999269 0.000381112 0)
(1.00018 0.000185606 0)
(0.999734 -0.000669417 0)
(1.00036 -0.00136096 0)
(0.999199 -0.00158734 0)
(0.998844 -0.00134427 0)
(0.997705 -0.000843869 0)
(0.997966 -0.000364132 0)
(0.998 -1.97665e-05 0)
(0.998722 0.000259041 0)
(0.998825 0.000571739 0)
(0.999282 0.000933524 0)
(0.999464 0.00129818 0)
(0.999998 0.00152218 0)
(1.00012 0.00168895 0)
(1.00013 0.00012903 0)
(0.999644 -0.000400661 0)
(1.00007 -0.000121052 0)
(0.999316 -0.00012971 0)
(1.00046 -0.000132118 0)
(0.999429 0.000217288 0)
(1.0002 0.000245121 0)
(0.999685 -0.000404876 0)
(1.00039 -0.00106901 0)
(0.999412 -0.00135633 0)
(0.999208 -0.00117938 0)
(0.99815 -0.000726655 0)
(0.998386 -0.000261936 0)
(0.998391 4.42793e-05 0)
(0.999106 0.000263304 0)
(0.999251 0.00050287 0)
(0.999737 0.000771401 0)
(0.999905 0.00107848 0)
(1.00038 0.00128126 0)
(1.00045 0.00143329 0)
(1.00011 0.000172192 0)
(0.999667 -0.000381808 0)
(1.00015 -9.67286e-05 0)
(0.999392 -1.25623e-05 0)
(1.00055 -7.92253e-05 0)
(0.999586 9.97851e-05 0)
(1.00026 0.000240369 0)
(0.999661 -0.000181266 0)
(1.00042 -0.000787517 0)
(0.999605 -0.00110952 0)
(0.999564 -0.00102358 0)
(0.998603 -0.000640128 0)
(0.998819 -0.00021152 0)
(0.998774 8.71184e-05 0)
(0.999466 0.000252718 0)
(0.999634 0.000437376 0)
(1.00014 0.0006224 0)
(1.00031 0.000862998 0)
(1.00073 0.00103497 0)
(1.00076 0.0011822 0)
(1.00009 0.000186207 0)
(0.999706 -0.00029173 0)
(1.00022 -2.88637e-05 0)
(0.999461 0.000107956 0)
(1.00063 2.81853e-05 0)
(0.999746 5.08441e-05 0)
(1.00038 0.000204377 0)
(0.999689 -4.65845e-06 0)
(1.00045 -0.000521192 0)
(0.999762 -0.000853519 0)
(0.999866 -0.000863 0)
(0.999012 -0.000560247 0)
(0.999227 -0.00018875 0)
(0.999136 0.000107875 0)
(0.999792 0.000249115 0)
(0.999977 0.000383216 0)
(1.0005 0.000507054 0)
(1.00069 0.000682843 0)
(1.00109 0.000805574 0)
(1.00109 0.000952852 0)
(1.00007 0.000192298 0)
(0.999723 -0.000155858 0)
(1.00029 3.03594e-05 0)