/*--------------------------------*- C++ -*----------------------------------*\
| =========                 |                                                 |
| \\      /  F ield         | OpenFOAM: The Open Source CFD Toolbox           |
|  \\    /   O peration     | Version:  v1812                                 |
|   \\  /    A nd           | Web:      www.OpenFOAM.com                      |
|    \\/     M anipulation  |                                                 |
\*---------------------------------------------------------------------------*/
FoamFile
{
    version     2.0;
    format      ascii;
    class       surfaceScalarField;
    location    "6.7";
    object      phi;
}
// * * * * * * * * * * * * * * * * * * * * * * * * * * * * * * * * * * * * * //

dimensions      [0 3 -1 0 0 0 0];
oriented        oriented;


internalField   nonuniform List<scalar> 
19000
(
1.13639e-06
-3.20254e-07
1.18715e-06
-7.06515e-08
1.19149e-06
-5.72782e-07
1.19238e-06
1.20684e-06
1.14697e-06
1.01957e-06
1.1161e-06
-1.5421e-07
1.11954e-06
-1.19684e-06
1.12809e-06
-1.99413e-06
1.18269e-06
-9.32778e-07
1.21514e-06
-8.44468e-07
1.21197e-06
-2.40609e-07
1.21928e-06
4.34588e-07
1.22394e-06
8.29579e-07
1.20067e-06
1.67693e-07
1.2275e-06
9.69673e-07
1.18254e-06
-3.61016e-07
1.2152e-06
5.01866e-07
1.15862e-06
-5.27832e-07
1.17178e-06
3.02778e-08
-6.55465e-07
1.05427e-06
1.1932e-06
-2.89195e-07
1.24479e-06
-1.22238e-07
1.25067e-06
-5.78664e-07
1.25386e-06
1.20364e-06
1.20597e-06
1.06746e-06
1.17502e-06
-1.23261e-07
1.1681e-06
-1.18992e-06
1.17159e-06
-1.99761e-06
1.22688e-06
-9.8807e-07
1.26558e-06
-8.83169e-07
1.26368e-06
-2.38706e-07
1.2784e-06
4.19869e-07
1.27998e-06
8.28003e-07
1.26377e-06
1.839e-07
1.27989e-06
9.53549e-07
1.25714e-06
-3.38265e-07
1.26881e-06
4.90197e-07
1.2434e-06
-5.02416e-07
1.22885e-06
4.48217e-08
-5.89462e-07
1.16285e-06
1.25324e-06
-2.59656e-07
1.30268e-06
-1.71673e-07
1.31248e-06
-5.88461e-07
1.3172e-06
1.19892e-06
1.27208e-06
1.11258e-06
1.23943e-06
-9.06083e-08
1.22651e-06
-1.177e-06
1.22586e-06
-1.99696e-06
1.27406e-06
-1.03627e-06
1.3161e-06
-9.25216e-07
1.32051e-06
-2.4311e-07
1.33273e-06
4.07651e-07
1.34118e-06
8.19549e-07
1.32775e-06
1.97334e-07
1.34736e-06
9.33933e-07
1.33112e-06
-3.22023e-07
1.34708e-06
4.74238e-07
1.32285e-06
-4.78184e-07
1.31697e-06
5.06988e-08
-5.29952e-07
1.25746e-06
1.31689e-06
-2.32441e-07
1.36009e-06
-2.14877e-07
1.37474e-06
-6.03113e-07
1.37852e-06
1.19515e-06
1.34021e-06
1.15088e-06
1.30815e-06
-5.85478e-08
1.29068e-06
-1.15953e-06
1.28494e-06
-1.99122e-06
1.32436e-06
-1.07569e-06
1.36682e-06
-9.67676e-07
1.37859e-06
-2.5488e-07
1.38979e-06
3.96453e-07
1.40262e-06
8.06718e-07
1.39621e-06
2.03744e-07
1.41708e-06
9.13061e-07
1.40276e-06
-3.077e-07
1.4186e-06
4.58398e-07
1.38873e-06
-4.48315e-07
1.38525e-06
5.41787e-08
-4.64064e-07
1.31936e-06
1.38522e-06
-2.09304e-07
1.41858e-06
-2.48238e-07
1.43583e-06
-6.20367e-07
1.43756e-06
1.19342e-06
1.40863e-06
1.17981e-06
1.38091e-06
-3.08243e-08
1.36113e-06
-1.13975e-06
1.3494e-06
-1.97949e-06
1.37928e-06
-1.10557e-06
1.41856e-06
-1.00696e-06
1.43641e-06
-2.72724e-07
1.45062e-06
3.82237e-07
1.46818e-06
7.89159e-07
1.46763e-06
2.043e-07
1.49327e-06
8.87416e-07
1.4772e-06
-2.91632e-07
1.49383e-06
4.41778e-07
1.45848e-06
-4.12967e-07
1.45673e-06
5.59224e-08
-3.96071e-07
1.38874e-06
1.4583e-06
-1.9193e-07
1.48046e-06
-2.70398e-07
1.49559e-06
-6.35491e-07
1.49623e-06
1.19278e-06
1.47857e-06
1.19747e-06
1.45774e-06
-9.99899e-09
1.43625e-06
-1.11826e-06
1.41863e-06
-1.96187e-06
1.43997e-06
-1.12691e-06
1.47334e-06
-1.04033e-06
1.49486e-06
-2.94247e-07
1.51464e-06
3.62456e-07
1.53814e-06
7.65663e-07
1.54304e-06
1.99402e-07
1.5717e-06
8.5875e-07
1.55327e-06
-2.73204e-07
1.56915e-06
4.25898e-07
1.52788e-06
-3.71694e-07
1.52705e-06
5.67519e-08
-3.27318e-07
1.4583e-06
1.53495e-06
-1.80665e-07
1.54694e-06
-2.82384e-07
1.55567e-06
-6.44225e-07
1.55754e-06
1.19091e-06
1.55244e-06
1.20257e-06
1.53916e-06
3.28552e-09
1.5153e-06
-1.09439e-06
1.49244e-06
-1.93902e-06
1.50709e-06
-1.14156e-06
1.53331e-06
-1.06656e-06
1.55661e-06
-3.17549e-07
1.58254e-06
3.36526e-07
1.61251e-06
7.35694e-07
1.62207e-06
1.89845e-07
1.65292e-06
8.27901e-07
1.63088e-06
-2.51166e-07
1.64585e-06
4.10935e-07
1.59925e-06
-3.25101e-07
1.59889e-06
5.71152e-08
-2.59267e-07
1.53084e-06
1.6138e-06
-1.74335e-07
1.61778e-06
-2.86369e-07
1.61877e-06
-6.45212e-07
1.62476e-06
1.18492e-06
1.63226e-06
1.19507e-06
1.62544e-06
1.00992e-08
1.59799e-06
-1.06694e-06
1.57053e-06
-1.91156e-06
1.58039e-06
-1.15142e-06
1.59974e-06
-1.08591e-06
1.6244e-06
-3.42202e-07
1.6563e-06
3.04621e-07
1.69204e-06
6.99959e-07
1.70473e-06
1.77156e-07
1.73636e-06
7.96266e-07
1.70964e-06
-2.24446e-07
1.72312e-06
3.97452e-07
1.67181e-06
-2.73789e-07
1.67172e-06
5.72114e-08
-1.93075e-07
1.60552e-06
1.69435e-06
-1.71111e-07
1.6923e-06
-2.84319e-07
1.68729e-06
-6.40201e-07
1.70018e-06
1.17203e-06
1.71853e-06
1.17671e-06
1.71614e-06
1.24911e-08
1.68427e-06
-1.03507e-06
1.65266e-06
-1.87994e-06
1.65888e-06
-1.15763e-06
1.67255e-06
-1.09958e-06
1.69957e-06
-3.69221e-07
1.73732e-06
2.66871e-07
1.77718e-06
6.60098e-07
1.79052e-06
1.63815e-07
1.82125e-06
7.65531e-07
1.78887e-06
-1.92067e-07
1.80063e-06
3.85696e-07
1.74561e-06
-2.18771e-07
1.74567e-06
5.71474e-08
-1.30047e-07
1.68265e-06
1.77709e-06
-1.69475e-07
1.77025e-06
-2.77487e-07
1.76244e-06
-6.32387e-07
1.78403e-06
1.15044e-06
1.81004e-06
1.1507e-06
1.80994e-06
1.25976e-08
1.77404e-06
-9.99173e-07
1.73875e-06
-1.84466e-06
1.7414e-06
-1.16028e-06
1.75052e-06
-1.1087e-06
1.78129e-06
-3.99999e-07
1.82475e-06
2.23411e-07
1.8667e-06
6.18156e-07
1.87784e-06
1.52675e-07
1.90612e-06
7.37245e-07
1.8677e-06
-1.53647e-07
1.87791e-06
3.75493e-07
1.8207e-06
-1.61568e-07
1.82088e-06
5.69683e-08
-7.16357e-08
1.76247e-06
1.86288e-06
-1.68602e-07
1.85219e-06
-2.66798e-07
1.8442e-06
-6.24404e-07
1.87439e-06
1.12026e-06
1.90444e-06
1.12065e-06
1.90517e-06
1.18631e-08
1.86701e-06
-9.61011e-07
1.82883e-06
-1.80648e-06
1.82719e-06
-1.15863e-06
1.83208e-06
-1.1136e-06
1.86684e-06
-4.34752e-07
1.91516e-06
1.75084e-07
1.95733e-06
5.75989e-07
1.964e-06
1.46009e-07
1.98916e-06
7.12085e-07
1.94544e-06
-1.09927e-07
1.95483e-06
3.66096e-07
1.8975e-06
-1.04237e-07
1.89777e-06
5.67057e-08
-1.93123e-08
1.84544e-06
1.95241e-06
-1.68174e-07
1.93901e-06
-2.534e-07
1.93188e-06
-6.17272e-07
1.96847e-06
1.08366e-06
1.99962e-06
1.0895e-06
2.00076e-06
1.07183e-08
1.96286e-06
-9.23108e-07
1.92288e-06
-1.76649e-06
1.91625e-06
-1.152e-06
1.91636e-06
-1.11371e-06
1.95304e-06
-4.71428e-07
2.00389e-06
1.24228e-07
2.045e-06
5.34882e-07
2.04632e-06
1.44695e-07
2.06899e-06
6.89411e-07
2.02208e-06
-6.30147e-08
2.03189e-06
3.56281e-07
1.97682e-06
-4.91667e-08
1.97708e-06
5.64443e-08
2.56588e-08
1.93211e-06
2.04606e-06
-1.68041e-07
2.0314e-06
-2.38743e-07
2.02471e-06
-6.10583e-07
2.06434e-06
1.04403e-06
2.09491e-06
1.05894e-06
2.09681e-06
8.81451e-09
2.06143e-06
-8.8772e-07
2.02076e-06
-1.72583e-06
2.00922e-06
-1.14046e-06
2.00371e-06
-1.1082e-06
2.03832e-06
-5.06038e-07
2.08778e-06
7.47681e-08
2.12714e-06
4.95516e-07
2.12383e-06
1.48008e-07
2.1458e-06
6.67445e-07
2.0988e-06
-1.60146e-08
2.11034e-06
3.44736e-07
2.0598e-06
1.37099e-09
2.05988e-06
5.63724e-08
6.24636e-08
2.02307e-06
2.14402e-06
-1.68062e-07
2.12946e-06
-2.24184e-07
2.12222e-06
-6.03335e-07
2.16181e-06
1.00444e-06
2.19129e-06
1.02945e-06
2.19457e-06
5.53902e-09
2.16289e-06
-8.56044e-07
2.1223e-06
-1.68524e-06
2.1068e-06
-1.12496e-06
2.09538e-06
-1.09678e-06
2.12375e-06
-5.34407e-07
2.1674e-06
3.1121e-08
2.20473e-06
4.58184e-07
2.19856e-06
1.54183e-07
2.22188e-06
6.4412e-07
2.17795e-06
2.79206e-08
2.19208e-06
3.30607e-07
2.14774e-06
4.57081e-08
2.14728e-06
5.68265e-08
9.08999e-08
2.11885e-06
2.24654e-06
-1.68109e-07
2.23295e-06
-2.10604e-07
2.22427e-06
-5.94654e-07
2.26203e-06
9.66689e-07
2.29058e-06
1.0009e-06
2.29568e-06
4.38601e-10
2.26773e-06
-8.28101e-07
2.22751e-06
-1.64502e-06
2.20943e-06
-1.10688e-06
2.19264e-06
-1.07999e-06
2.21234e-06
-5.54106e-07
2.24695e-06
-3.4878e-09
2.28213e-06
4.23006e-07
2.27496e-06
1.61357e-07
2.30101e-06
6.18061e-07
2.26236e-06
6.65785e-08
2.27909e-06
3.13878e-07
2.24174e-06
8.30518e-08
2.24032e-06
5.82457e-08
1.11393e-07
2.21983e-06
2.35387e-06
-1.68105e-07
2.34159e-06
-1.98326e-07
2.33102e-06
-5.84085e-07
2.36652e-06
9.31195e-07
2.39443e-06
9.72987e-07
2.40149e-06
-6.62176e-09
2.37658e-06
-8.0319e-07
2.33663e-06
-1.60507e-06
2.31718e-06
-1.08742e-06
2.29608e-06
-1.0589e-06
2.30712e-06
-5.65146e-07
2.33172e-06
-2.80834e-08
2.36474e-06
3.89987e-07
2.35785e-06
1.68245e-07
2.38686e-06
5.8905e-07
2.35434e-06
9.91036e-08
2.37287e-06
2.95342e-07
2.3425e-06
1.1342e-07
2.33978e-06
6.09682e-08
1.24944e-07
2.32623e-06
2.46631e-06
-1.68018e-07
2.4553e-06
-1.87317e-07
2.44275e-06
-5.71536e-07
2.47643e-06
8.97515e-07
2.5039e-06
9.45516e-07
2.51279e-06
-1.55102e-08
2.49003e-06
-7.80429e-07
2.45011e-06
-1.56515e-06
2.43003e-06
-1.06735e-06
2.40567e-06
-1.03454e-06
2.40978e-06
-5.69251e-07
2.42543e-06
-4.37333e-08
2.4564e-06
3.59012e-07
2.45044e-06
1.74206e-07
2.48164e-06
5.57848e-07
2.45505e-06
1.25697e-07
2.47419e-06
2.76201e-07
2.45024e-06
1.37372e-07
2.44616e-06
6.50503e-08
1.3295e-07
2.43815e-06
2.5841e-06
-1.67819e-07
2.57419e-06
-1.77416e-07
2.55977e-06
-5.57115e-07
2.59238e-06
8.64907e-07
2.61946e-06
9.18436e-07
2.62989e-06
-2.5942e-08
2.60855e-06
-7.59085e-07
2.56839e-06
-1.52499e-06
2.54806e-06
-1.04702e-06
2.52118e-06
-1.00766e-06
2.52055e-06
-5.68622e-07
2.52935e-06
-5.25273e-08
2.55849e-06
3.29868e-07
2.55373e-06
1.78964e-07
2.58594e-06
5.25644e-07
2.5646e-06
1.47037e-07
2.58323e-06
2.57564e-07
2.56483e-06
1.55779e-07
2.55955e-06
7.03246e-08
1.36815e-07
2.55569e-06
2.70747e-06
-1.67458e-07
2.69853e-06
-1.68473e-07
2.68242e-06
-5.41009e-07
2.71466e-06
8.32666e-07
2.74133e-06
8.91765e-07
2.75296e-06
-3.75683e-08
2.73253e-06
-7.3866e-07
2.69189e-06
-1.48435e-06
2.67149e-06
-1.02662e-06
2.64254e-06
-9.78706e-07
2.639e-06
-5.65081e-07
2.64309e-06
-5.66216e-08
2.6706e-06
3.02354e-07
2.66726e-06
1.82308e-07
2.6993e-06
4.93603e-07
2.68251e-06
1.63823e-07
2.69987e-06
2.4021e-07
2.68611e-06
1.69536e-07
2.6799e-06
7.65324e-08
1.37715e-07
2.679e-06
2.83668e-06
-1.6687e-07
2.82858e-06
-1.60376e-07
2.81098e-06
-5.23409e-07
2.84342e-06
8.00233e-07
2.86965e-06
8.65528e-07
2.88211e-06
-5.00267e-08
2.86229e-06
-7.18838e-07
2.82097e-06
-1.44303e-06
2.80062e-06
-1.00627e-06
2.76989e-06
-9.47971e-07
2.76463e-06
-5.59829e-07
2.7658e-06
-5.7791e-08
2.79179e-06
2.76364e-07
2.79009e-06
1.84017e-07
2.8211e-06
4.6259e-07
2.80824e-06
1.76678e-07
2.82396e-06
2.24491e-07
2.81398e-06
1.79514e-07
2.80716e-06
8.33547e-08
1.36583e-07
2.80829e-06
2.97201e-06
-1.65985e-07
2.96468e-06
-1.53049e-07
2.94577e-06
-5.04491e-07
2.9788e-06
7.67196e-07
3.00461e-06
8.39725e-07
3.01754e-06
-6.29574e-08
2.99814e-06
-6.9944e-07
2.95596e-06
-1.40086e-06
2.93577e-06
-9.86081e-07
2.90353e-06
-9.15732e-07
2.89725e-06
-5.53548e-07
2.89684e-06
-5.73762e-08
2.92129e-06
2.51917e-07
2.92144e-06
1.83867e-07
2.95088e-06
4.33144e-07
2.94137e-06
1.86193e-07
2.95542e-06
2.10436e-07
2.94849e-06
1.86442e-07
2.94127e-06
9.05751e-08
1.34003e-07
2.94385e-06
3.11377e-06
-1.64748e-07
3.10716e-06
-1.46436e-07
3.08706e-06
-4.84395e-07
3.12097e-06
7.33282e-07
3.14638e-06
8.14319e-07
3.15943e-06
-7.60099e-08
3.14038e-06
-6.80384e-07
3.09721e-06
-1.35769e-06
3.07728e-06
-9.66149e-07
3.04383e-06
-8.8229e-07
3.03685e-06
-5.46562e-07
3.03587e-06
-5.63941e-08
3.05866e-06
2.29122e-07
3.06081e-06
1.81718e-07
3.08843e-06
4.05522e-07
3.08166e-06
1.92964e-07
3.0942e-06
1.97895e-07
3.08977e-06
1.9087e-07
3.0823e-06
9.8052e-08
1.30402e-07
3.0859e-06
3.26228e-06
-1.63121e-07
3.25635e-06
-1.40506e-07
3.23518e-06
-4.63223e-07
3.2701e-06
6.98359e-07
3.2952e-06
7.89227e-07
3.30803e-06
-8.88449e-08
3.28932e-06
-6.61672e-07
3.24506e-06
-1.31343e-06
3.22545e-06
-9.46541e-07
3.19115e-06
-8.47992e-07
3.18355e-06
-5.38958e-07
3.18277e-06
-5.56169e-08
3.20376e-06
2.08136e-07
3.20792e-06
1.77556e-07
3.2337e-06
3.79742e-07
3.22909e-06
1.97579e-07
3.2403e-06
1.86682e-07
3.23803e-06
1.93136e-07
3.23038e-06
1.05706e-07
1.26129e-07
3.23465e-06
3.4179e-06
-1.61087e-07
3.41265e-06
-1.35256e-07
3.39047e-06
-4.41045e-07
3.42639e-06
6.62435e-07
3.4513e-06
7.64318e-07
3.4636e-06
-1.01138e-07
3.44529e-06
-6.43368e-07
3.3999e-06
-1.26804e-06
3.38062e-06
-9.2726e-07
3.34585e-06
-8.13215e-07
3.33755e-06
-5.30665e-07
3.33755e-06
-5.56143e-08
3.3566e-06
1.89081e-07
3.36263e-06
1.71527e-07
3.38671e-06
3.55666e-07
3.38375e-06
2.00539e-07
3.39379e-06
1.76636e-07
3.39352e-06
1.93416e-07
3.38575e-06
1.13474e-07
1.21544e-07
3.39033e-06
3.58096e-06
-1.58639e-07
3.57642e-06
-1.30712e-07
3.55329e-06
-4.1792e-07
3.59008e-06
6.25646e-07
3.61499e-06
7.39406e-07
3.62644e-06
-1.12582e-07
3.60865e-06
-6.25577e-07
3.56215e-06
-1.22154e-06
3.54312e-06
-9.08235e-07
3.50826e-06
-7.78354e-07
3.49911e-06
-5.2151e-07
3.50026e-06
-5.67727e-08
3.51735e-06
1.71994e-07
3.52495e-06
1.63933e-07
3.5476e-06
3.33011e-07
3.54586e-06
2.02284e-07
3.55488e-06
1.67614e-07
3.55647e-06
1.91818e-07
3.54874e-06
1.21206e-07
1.17053e-07
3.55323e-06
3.75184e-06
-1.5577e-07
3.74805e-06
-1.26928e-07
3.72405e-06
-3.93915e-07
3.76146e-06
5.88231e-07
3.7866e-06
7.14265e-07
3.79691e-06
-1.22885e-07
3.77975e-06
-6.08421e-07
3.73222e-06
-1.17401e-06
3.71329e-06
-8.89305e-07
3.67873e-06
-7.43796e-07
3.66851e-06
-5.11283e-07
3.67103e-06
-5.93011e-08
3.68623e-06
1.56801e-07
3.69499e-06
1.55175e-07
3.71654e-06
3.11454e-07
3.71574e-06
2.03091e-07
3.72378e-06
1.5957e-07
3.72719e-06
1.88405e-07
3.71973e-06
1.28666e-07
1.13054e-07
3.72373e-06
3.93089e-06
-1.52468e-07
3.92792e-06
-1.23959e-07
3.90314e-06
-3.69139e-07
3.94088e-06
5.50494e-07
3.9665e-06
6.88642e-07
3.97541e-06
-1.31794e-07
3.95899e-06
-5.91999e-07
3.91058e-06
-1.12559e-06
3.8915e-06
-8.70227e-07
3.8576e-06
-7.09901e-07
3.84609e-06
-4.9977e-07
3.85004e-06
-6.32489e-08
3.86353e-06
1.43309e-07
3.87298e-06
1.45721e-07
3.89379e-06
2.90649e-07
3.89376e-06
2.03119e-07
3.90082e-06
1.52514e-07
3.90595e-06
1.83275e-07
3.89915e-06
1.35463e-07
1.10053e-07
3.90215e-06
4.11849e-06
-1.48712e-07
4.11638e-06
-1.21843e-07
4.091e-06
-3.43763e-07
4.12873e-06
5.12769e-07
4.15508e-06
6.62287e-07
4.1624e-06
-1.3911e-07
4.14675e-06
-5.76353e-07
4.09766e-06
-1.07651e-06
4.07815e-06
-8.50717e-07
4.04523e-06
-6.76977e-07
4.03226e-06
-4.86799e-07
4.03751e-06
-6.8505e-08
4.0496e-06
1.31225e-07
4.05928e-06
1.36041e-07
4.07958e-06
2.70347e-07
4.08034e-06
2.02359e-07
4.08634e-06
1.46515e-07
4.09304e-06
1.76574e-07
4.08731e-06
1.41198e-07
1.08353e-07
4.08901e-06
4.31507e-06
-1.44479e-07
4.31379e-06
-1.20567e-07
4.28806e-06
-3.18025e-07
4.32543e-06
4.75394e-07
4.35273e-06
6.34984e-07
4.35834e-06
-1.44712e-07
4.34342e-06
-5.6144e-07
4.29393e-06
-1.02702e-06
4.2737e-06
-8.30482e-07
4.24199e-06
-6.45268e-07
4.22745e-06
-4.72262e-07
4.23378e-06
-7.48349e-08
4.2448e-06
1.20204e-07
4.2543e-06
1.26548e-07
4.27421e-06
2.50431e-07
4.27588e-06
2.00695e-07
4.28076e-06
1.4163e-07
4.28878e-06
1.68555e-07
4.28453e-06
1.45447e-07
1.0808e-07
4.2848e-06
4.52105e-06
-1.39753e-07
4.52054e-06
-1.20059e-07
4.49473e-06
-2.9222e-07
4.53144e-06
4.38689e-07
4.55985e-06
6.06576e-07
4.5637e-06
-1.48563e-07
4.54939e-06
-5.47135e-07
4.49982e-06
-9.77445e-07
4.47861e-06
-8.09269e-07
4.4483e-06
-6.14957e-07
4.43217e-06
-4.56136e-07
4.43924e-06
-8.19013e-08
4.44954e-06
1.09905e-07
4.45853e-06
1.17558e-07
4.47802e-06
2.3094e-07
4.48077e-06
1.97945e-07
4.48453e-06
1.37865e-07
4.49346e-06
1.59627e-07
4.49113e-06
1.47781e-07
1.09088e-07
4.49012e-06
4.7369e-06
-1.34536e-07
4.73702e-06
-1.20183e-07
4.71147e-06
-2.66671e-07
4.74723e-06
4.02937e-07
4.77681e-06
5.76992e-07
4.77895e-06
-1.50705e-07
4.76507e-06
-5.33257e-07
4.71575e-06
-9.28122e-07
4.69337e-06
-7.86889e-07
4.66458e-06
-5.86171e-07
4.64695e-06
-4.38506e-07
4.65434e-06
-8.92852e-08
4.66423e-06
1.00009e-07
4.67251e-06
1.09277e-07
4.69145e-06
2.12003e-07
4.69539e-06
1.94007e-07
4.69821e-06
1.35042e-07
4.70752e-06
1.50314e-07
4.70742e-06
1.47886e-07
1.11e-07
4.70551e-06
4.96311e-06
-1.28852e-07
4.9637e-06
-1.20765e-07
4.93871e-06
-2.41686e-07
4.97327e-06
3.68374e-07
5.00402e-06
5.46243e-07
5.00455e-06
-1.51231e-07
4.99091e-06
-5.19619e-07
4.94217e-06
-8.79378e-07
4.91851e-06
-7.6323e-07
4.89129e-06
-5.58954e-07
4.87237e-06
-4.19582e-07
4.87963e-06
-9.65494e-08
4.88936e-06
9.02775e-08
4.89685e-06
1.01794e-07
4.91505e-06
1.93803e-07
4.92029e-06
1.88766e-07
4.92241e-06
1.32915e-07
4.93152e-06
1.4121e-07
4.93376e-06
1.45639e-07
1.13239e-07
4.93153e-06
5.20021e-06
-1.22741e-07
5.20105e-06
-1.21613e-07
5.1769e-06
-2.17531e-07
5.21009e-06
3.35185e-07
5.24192e-06
5.14411e-07
5.24097e-06
-1.50283e-07
5.22738e-06
-5.06028e-07
5.17952e-06
-8.31519e-07
5.15453e-06
-7.38241e-07
5.12888e-06
-5.33299e-07
5.10896e-06
-3.9967e-07
5.1157e-06
-1.03287e-07
5.12543e-06
8.05511e-08
5.13214e-06
9.50861e-08
5.14942e-06
1.76521e-07
5.15596e-06
1.82227e-07
5.15771e-06
1.31158e-07
5.16617e-06
1.3275e-07
5.1705e-06
1.41316e-07
1.15084e-07
5.16865e-06
5.44871e-06
-1.16258e-07
5.44965e-06
-1.22555e-07
5.4265e-06
-1.94386e-07
5.45821e-06
3.03482e-07
5.49097e-06
4.81644e-07
5.48873e-06
-1.48041e-07
5.47501e-06
-4.92309e-07
5.42831e-06
-7.84821e-07
5.40198e-06
-7.11909e-07
5.37784e-06
-5.09158e-07
5.35729e-06
-3.79121e-07
5.36316e-06
-1.0915e-07
5.373e-06
7.07116e-08
5.37898e-06
8.91021e-08
5.3952e-06
1.603e-07
5.40292e-06
1.74504e-07
5.40464e-06
1.29447e-07
5.41219e-06
1.25199e-07
5.41807e-06
1.35432e-07
1.15867e-07
5.41729e-06
5.70917e-06
-1.09467e-07
5.71006e-06
-1.23453e-07
5.68803e-06
-1.72351e-07
5.71819e-06
2.73325e-07
5.7517e-06
4.48131e-07
5.74834e-06
-1.44684e-07
5.73434e-06
-4.78311e-07
5.68907e-06
-7.39547e-07
5.66143e-06
-6.84264e-07
5.6387e-06
-4.86433e-07
5.61789e-06
-3.58307e-07
5.62262e-06
-1.1388e-07
5.63261e-06
6.07195e-08
5.63803e-06
8.3679e-08
5.65302e-06
1.45312e-07
5.66175e-06
1.65775e-07
5.6637e-06
1.27501e-07
5.67023e-06
1.18668e-07
5.67712e-06
1.2854e-07
1.15174e-07
5.67781e-06
5.98216e-06
-1.02434e-07
5.98293e-06
-1.24221e-07
5.96202e-06
-1.51447e-07
5.99063e-06
2.44718e-07
6.02467e-06
4.14092e-07
6.02035e-06
-1.40363e-07
6.00596e-06
-4.63917e-07
5.96233e-06
-6.9592e-07
5.93348e-06
-6.55418e-07
5.912e-06
-4.6495e-07
5.89127e-06
-3.37581e-07
5.89471e-06
-1.17321e-07
5.90485e-06
5.05836e-08
5.90993e-06
7.85965e-08
5.92352e-06
1.31729e-07
5.93299e-06
1.56299e-07
5.93539e-06
1.25102e-07
5.94111e-06
1.12948e-07
5.9482e-06
1.21452e-07
1.12727e-07
5.95064e-06
6.26828e-06
-9.52297e-08
6.26889e-06
-1.24823e-07
6.24909e-06
-1.31652e-07
6.27615e-06
2.17662e-07
6.3105e-06
3.79742e-07
6.30537e-06
-1.35231e-07
6.29043e-06
-4.48985e-07
6.24865e-06
-6.54139e-07
6.21879e-06
-6.25556e-07
6.19832e-06
-4.44479e-07
6.17799e-06
-3.17255e-07
6.18008e-06
-1.19408e-07
6.19029e-06
4.03758e-08
6.19524e-06
7.36413e-08
6.20735e-06
1.19624e-07
6.21726e-06
1.46393e-07
6.22029e-06
1.22066e-07
6.22541e-06
1.07827e-07
6.23227e-06
1.14591e-07
1.08862e-07
6.23614e-06
6.56817e-06
-8.79323e-08
6.56859e-06
-1.25245e-07
6.54993e-06
-1.12988e-07
6.57534e-06
1.92254e-07
6.60983e-06
3.45251e-07
6.60406e-06
-1.29458e-07
6.58842e-06
-4.33346e-07
6.54864e-06
-6.1436e-07
6.51799e-06
-5.94914e-07
6.49832e-06
-4.24803e-07
6.47862e-06
-2.97554e-07
6.47935e-06
-1.2014e-07
6.48952e-06
3.02043e-08
6.49456e-06
6.86006e-08
6.50519e-06
1.08992e-07
6.51522e-06
1.36369e-07
6.51897e-06
1.18312e-07
6.52373e-06
1.03068e-07
6.53017e-06
1.08149e-07
1.04121e-07
6.53491e-06
6.88249e-06
-8.06328e-08
6.88269e-06
-1.25442e-07
6.86531e-06
-9.56112e-08
6.88881e-06
1.68753e-07
6.9233e-06
3.10762e-07
6.91713e-06
-1.23289e-07
6.9006e-06
-4.16814e-07
6.86288e-06
-5.76644e-07
6.83179e-06
-5.63816e-07
6.81267e-06
-4.0569e-07
6.79376e-06
-2.78642e-07
6.79314e-06
-1.19524e-07
6.80314e-06
2.02123e-08
6.80845e-06
6.32828e-08
6.81772e-06
9.97222e-08
6.8276e-06
1.26491e-07
6.832e-06
1.13918e-07
6.83661e-06
9.8459e-08
6.84277e-06
1.01983e-07
9.91063e-08
6.84779e-06
7.21194e-06
-7.34398e-08
7.21179e-06
-1.25286e-07
7.19599e-06
-7.98147e-08
7.21722e-06
1.47524e-07
7.25154e-06
2.76444e-07
7.24532e-06
-1.17073e-07
7.22774e-06
-3.99234e-07
7.19202e-06
-5.4092e-07
7.16085e-06
-5.32645e-07
7.1421e-06
-3.86942e-07
7.12407e-06
-2.60615e-07
7.12213e-06
-1.17582e-07
7.13176e-06
1.05803e-08
7.13747e-06
5.7578e-08
7.14559e-06
9.15989e-08
7.1551e-06
1.16977e-07
7.16006e-06
1.08962e-07
7.16466e-06
9.38592e-08
7.17064e-06
9.59976e-08
9.40614e-08
7.17569e-06
7.55726e-06
-6.64747e-08
7.55649e-06
-1.24519e-07
7.5427e-06
-6.60247e-08
7.56129e-06
1.28943e-07
7.59517e-06
2.42556e-07
7.58933e-06
-1.11232e-07
7.57065e-06
-3.80553e-07
7.53673e-06
-5.07003e-07
7.50583e-06
-5.01737e-07
7.48732e-06
-3.68439e-07
7.47023e-06
-2.43526e-07
7.46705e-06
-1.14394e-07
7.47596e-06
1.66714e-09
7.48218e-06
5.13599e-08
7.48944e-06
8.43407e-08
7.49843e-06
1.07978e-07
7.50388e-06
1.03521e-07
7.5085e-06
8.92382e-08
7.51443e-06
9.00634e-08
8.90207e-08
7.51947e-06
7.9192e-06
-5.98667e-08
7.91746e-06
-1.22772e-07
7.90615e-06
-5.47187e-08
7.92183e-06
1.13263e-07
7.95487e-06
2.09518e-07
7.94987e-06
-1.06238e-07
7.93014e-06
-3.60815e-07
7.89776e-06
-4.7463e-07
7.86736e-06
-4.71339e-07
7.8491e-06
-3.50173e-07
7.83292e-06
-2.27349e-07
7.8286e-06
-1.10077e-07
7.83644e-06
-6.17279e-09
7.84312e-06
4.46814e-08
7.84991e-06
7.75522e-08
7.85836e-06
9.95328e-08
7.86417e-06
9.77097e-08
7.86888e-06
8.45215e-08
7.8747e-06
8.42449e-08
8.38837e-08
7.87984e-06
8.29855e-06
-5.374e-08
8.29547e-06
-1.19685e-07
8.28696e-06
-4.621e-08
8.29984e-06
1.00379e-07
8.33135e-06
1.78008e-07
8.32758e-06
-1.02466e-07
8.30707e-06
-3.40301e-07
8.27589e-06
-4.43454e-07
8.24613e-06
-4.41575e-07
8.2281e-06
-3.32149e-07
8.21284e-06
-2.12083e-07
8.2075e-06
-1.04736e-07
8.21393e-06
-1.26067e-08
8.22093e-06
3.76777e-08
8.22766e-06
7.0825e-08
8.23567e-06
9.15272e-08
8.24167e-06
9.1709e-08
8.24656e-06
7.96265e-08
8.25223e-06
7.85797e-08
7.8582e-08
8.25753e-06
8.69612e-06
-4.81935e-08
8.69147e-06
-1.15044e-07
8.68574e-06
-4.0471e-08
8.69645e-06
8.96631e-08
8.72544e-06
1.49017e-07
8.7231e-06
-1.00123e-07
8.70226e-06
-3.19464e-07
8.67197e-06
-4.13156e-07
8.64282e-06
-4.12429e-07
8.6249e-06
-3.14227e-07
8.61057e-06
-1.97758e-07
8.60445e-06
-9.86135e-08
8.60927e-06
-1.74286e-08
8.61641e-06
3.05388e-08
8.62332e-06
6.39109e-08
8.6311e-06
8.37517e-08
8.63726e-06
8.55511e-08
8.64227e-06
7.4615e-08
8.64786e-06
7.29899e-08
7.3137e-08
8.6533e-06
9.11271e-06
-4.32826e-08
9.10653e-06
-1.0887e-07
9.10321e-06
-3.71433e-08
9.11268e-06
8.01913e-08
9.13814e-06
1.23558e-07
9.13704e-06
-9.90283e-08
9.11651e-06
-2.98934e-07
9.08682e-06
-3.83464e-07
9.05806e-06
-3.8367e-07
9.04007e-06
-2.96231e-07
9.02675e-06
-1.84444e-07
9.02022e-06
-9.2086e-08
9.02358e-06
-2.07889e-08
9.03058e-06
2.3545e-08
9.03779e-06
5.67028e-08
9.04551e-06
7.60313e-08
9.05185e-06
7.92062e-08
9.05683e-06
6.96346e-08
9.06245e-06
6.73752e-08
6.7568e-08
9.06801e-06
9.54918e-06
-3.90049e-08
9.54176e-06
-1.01448e-07
9.54021e-06
-3.55901e-08
9.5495e-06
7.09003e-08
9.57067e-06
1.0239e-07
9.57002e-06
-9.83817e-08
9.55039e-06
-2.79309e-07
9.52131e-06
-3.54377e-07
9.49256e-06
-3.54924e-07
9.47447e-06
-2.78145e-07
9.46236e-06
-1.72332e-07
9.45611e-06
-8.58345e-08
9.45823e-06
-2.29084e-08
9.46466e-06
1.71176e-08
9.47211e-06
4.92553e-08
9.47983e-06
6.83057e-08
9.48632e-06
7.27149e-08
9.49139e-06
6.45664e-08
9.49681e-06
6.19547e-08
6.1789e-08
9.50259e-06
1.00064e-05
-3.5297e-08
9.99821e-06
-9.32343e-08
9.99765e-06
-3.5024e-08
1.00075e-05
6.10285e-08
1.00243e-05
8.56349e-08
1.00229e-05
-9.70088e-08
1.00044e-05
-2.60785e-07
9.97639e-06
-3.26393e-07
9.94788e-06
-3.26415e-07
9.92955e-06
-2.59814e-07
9.91867e-06
-1.61446e-07
9.91319e-06
-8.03567e-08
9.91434e-06
-2.4058e-08
9.92004e-06
1.14185e-08
9.92746e-06
4.18365e-08
9.93516e-06
6.06018e-08
9.94169e-06
6.61866e-08
9.94685e-06
5.94008e-08
9.95206e-06
5.67448e-08
5.60235e-08
9.95783e-06
1.04854e-05
-3.20367e-08
1.04769e-05
-8.47618e-08
1.04764e-05
-3.44874e-08
1.04873e-05
5.01321e-08
1.05005e-05
7.23925e-08
1.04974e-05
-9.38789e-08
1.04796e-05
-2.43046e-07
1.04533e-05
-3.00021e-07
1.04255e-05
-2.98656e-07
1.04069e-05
-2.41179e-07
1.0397e-05
-1.5154e-07
1.03923e-05
-7.56899e-08
1.0393e-05
-2.47256e-08
1.03978e-05
6.60801e-09
1.0405e-05
3.46409e-08
1.04125e-05
5.30756e-08
1.0419e-05
5.96782e-08
1.04243e-05
5.41344e-08
1.04293e-05
5.17056e-08
5.05173e-08
1.04348e-05
1.0987e-05
-2.90594e-08
1.09788e-05
-7.65435e-08
1.09776e-05
-3.32242e-08
1.09895e-05
3.82071e-08
1.10007e-05
6.11698e-08
1.09954e-05
-8.85657e-08
1.09779e-05
-2.25551e-07
1.09532e-05
-2.75334e-07
1.09265e-05
-2.71933e-07
1.09077e-05
-2.22421e-07
1.08984e-05
-1.4223e-07
1.08945e-05
-7.17537e-08
1.0895e-05
-2.52533e-08
1.0899e-05
2.58641e-09
1.09057e-05
2.79844e-08
1.0913e-05
4.57255e-08
1.09194e-05
5.33268e-08
1.09247e-05
4.88281e-08
1.09297e-05
4.66627e-08
4.55174e-08
1.09347e-05
1.15125e-05
-2.61829e-08
1.1505e-05
-6.90256e-08
1.15026e-05
-3.08646e-08
1.15151e-05
2.57082e-08
1.15257e-05
5.05858e-08
1.15181e-05
-8.10085e-08
1.15005e-05
-2.0794e-07
1.14774e-05
-2.5217e-07
1.1452e-05
-2.46591e-07
1.14334e-05
-2.03781e-07
1.14241e-05
-1.32931e-07
1.14208e-05
-6.85218e-08
1.14213e-05
-2.56863e-08
1.14248e-05
-9.55532e-10
1.14308e-05
2.20166e-08
1.14378e-05
3.86948e-08
1.14441e-05
4.70421e-08
1.14492e-05
4.37464e-08
1.14543e-05
4.1502e-08
4.08595e-08
1.1459e-05
1.20629e-05
-2.32221e-08
1.20564e-05
-6.26118e-08
1.20529e-05
-2.73017e-08
1.20654e-05
1.32362e-08
1.20762e-05
3.97327e-08
1.20669e-05
-7.17459e-08
1.20485e-05
-1.89484e-07
1.20268e-05
-2.30457e-07
1.20034e-05
-2.23178e-07
1.19849e-05
-1.85335e-07
1.19754e-05
-1.23366e-07
1.19725e-05
-6.56336e-08
1.19729e-05
-2.61075e-08
1.19761e-05
-4.13621e-09
1.19814e-05
1.66508e-08
1.19881e-05
3.20753e-08
1.19943e-05
4.07876e-08
1.1999e-05
3.90046e-08
1.20042e-05
3.63923e-08
3.61951e-08
1.20088e-05
1.26394e-05
-2.00141e-08
1.26344e-05
-5.76206e-08
1.26297e-05
-2.26511e-08
1.26415e-05
1.47523e-09
1.26531e-05
2.81709e-08
1.2643e-05
-6.171e-08
1.26231e-05
-1.69535e-07
1.26026e-05
-2.09988e-07
1.25814e-05
-2.01966e-07
1.25635e-05
-1.67432e-07
1.25536e-05
-1.13514e-07
1.25505e-05
-6.2495e-08
1.25511e-05
-2.66781e-08
1.25538e-05
-6.86855e-09
1.25589e-05
1.1598e-08
1.25649e-05
2.60026e-08
1.2571e-05
3.46752e-08
1.25757e-05
3.43399e-08
1.25804e-05
3.17366e-08
3.13317e-08
1.25852e-05
1.32434e-05
-1.64538e-08
1.32399e-05
-5.41654e-08
1.32347e-05
-1.73853e-08
1.32446e-05
-8.47677e-09
1.32571e-05
1.56786e-08
1.32473e-05
-5.18979e-08
1.32259e-05
-1.48153e-07
1.32059e-05
-1.89983e-07
1.31868e-05
-1.82916e-07
1.31703e-05
-1.509e-07
1.31601e-05
-1.03331e-07
1.31565e-05
-5.89057e-08
1.3157e-05
-2.70972e-08
1.31593e-05
-9.24599e-09
1.31641e-05
6.8394e-09
1.31698e-05
2.03341e-08
1.31756e-05
2.8806e-08
1.31803e-05
2.96333e-08
1.31845e-05
2.75964e-08
2.65273e-08
1.31893e-05
1.38762e-05
-1.25124e-08
1.38743e-05
-5.22853e-08
1.3869e-05
-1.2022e-08
1.38762e-05
-1.57258e-08
1.38892e-05
2.68679e-09
1.38806e-05
-4.32929e-08
1.38583e-05
-1.25823e-07
1.38378e-05
-1.69533e-07
1.38208e-05
-1.65888e-07
1.38062e-05
-1.36248e-07
1.37961e-05
-9.32733e-08
1.3792e-05
-5.48459e-08
1.3792e-05
-2.70623e-08
1.37941e-05
-1.13296e-08
1.37983e-05
2.58704e-09
1.38038e-05
1.48852e-08
1.38094e-05
2.32292e-08
1.38141e-05
2.48759e-08
1.3818e-05
2.37095e-08
2.21786e-08
1.38224e-05
1.45394e-05
-8.23499e-09
1.45386e-05
-5.15094e-08
1.4534e-05
-7.36666e-09
1.45381e-05
-1.98934e-08
1.45505e-05
-9.64045e-09
1.45437e-05
-3.65222e-08
1.45212e-05
-1.03352e-07
1.45002e-05
-1.48476e-07
1.44846e-05
-1.50297e-07
1.44718e-05
-1.23519e-07
1.44628e-05
-8.42505e-08
1.44582e-05
-5.02654e-08
1.44578e-05
-2.65878e-08
1.44594e-05
-1.29342e-08
1.4463e-05
-1.09486e-09
1.44683e-05
9.65714e-09
1.44736e-05
1.78621e-08
1.44784e-05
2.01498e-08
1.44822e-05
1.98695e-08
1.83363e-08
1.4486e-05
1.52344e-05
-3.73963e-09
1.52344e-05
-5.14831e-08
1.52312e-05
-4.16931e-09
1.52313e-05
-2.00206e-08
1.52414e-05
-1.97502e-08
1.52368e-05
-3.19133e-08
1.52157e-05
-8.22967e-08
1.51947e-05
-1.2742e-07
1.51796e-05
-1.35203e-07
1.51687e-05
-1.1268e-07
1.51612e-05
-7.67224e-08
1.51567e-05
-4.57201e-08
1.51557e-05
-2.55671e-08
1.51567e-05
-1.40059e-08
1.51598e-05
-4.19484e-09
1.51645e-05
4.93493e-09
1.51698e-05
1.26147e-08
1.51744e-05
1.55002e-08
1.51784e-05
1.58819e-08
1.49136e-08
1.51819e-05
1.59628e-05
7.47183e-10
1.59649e-05
-5.34948e-08
1.5961e-05
-3.05166e-10
1.59558e-05
-1.48122e-08
1.59628e-05
-2.67349e-08
1.59614e-05
-3.04956e-08
1.59436e-05
-6.45188e-08
1.59229e-05
-1.06796e-07
1.59079e-05
-1.20122e-07
1.58984e-05
-1.03191e-07
1.58924e-05
-7.0724e-08
1.58886e-05
-4.19783e-08
1.58871e-05
-2.40671e-08
1.58878e-05
-1.46386e-08
1.58902e-05
-6.66582e-09
1.58944e-05
8.12026e-10
1.58993e-05
7.67516e-09
1.5904e-05
1.08302e-08
1.59081e-05
1.1805e-08
1.16482e-08
1.59113e-05
1.6726e-05
5.30423e-09
1.67201e-05
-4.75139e-08
1.67189e-05
8.9294e-10
1.67143e-05
-1.02918e-08
1.6718e-05
-3.03997e-08
1.67201e-05
-3.26119e-08
1.67066e-05
-5.09578e-08
1.66867e-05
-8.69657e-08
1.66716e-05
-1.04955e-07
1.66624e-05
-9.40419e-08
1.66579e-05
-6.61648e-08
1.66552e-05
-3.92921e-08
1.66538e-05
-2.27308e-08
1.66539e-05
-1.47358e-08
1.66559e-05
-8.62276e-09
1.66593e-05
-2.5828e-09
1.66639e-05
3.07559e-09
1.66683e-05
6.38346e-09
1.66724e-05
7.68772e-09
8.19186e-09
1.66759e-05
1.75262e-05
9.45921e-09
1.75224e-05
-4.37573e-08
1.75196e-05
3.74757e-09
1.75129e-05
-3.62754e-09
1.7512e-05
-2.94459e-08
1.7515e-05
-3.56306e-08
1.75059e-05
-4.18511e-08
1.74879e-05
-6.89411e-08
1.74726e-05
-8.96467e-08
1.7463e-05
-8.45304e-08
1.74594e-05
-6.24878e-08
1.74577e-05
-3.76264e-08
1.7457e-05
-2.20325e-08
1.74569e-05
-1.46116e-08
1.74583e-05
-1.00904e-08
1.74611e-05
-5.36421e-09
1.74652e-05
-9.66465e-10
1.74694e-05
2.20162e-09
1.74734e-05
3.64605e-09
4.5896e-09
1.7477e-05
1.83646e-05
1.32035e-08
1.83584e-05
-3.75394e-08
1.83571e-05
5.07949e-09
1.83512e-05
2.22413e-09
1.83466e-05
-2.48944e-08
1.83481e-05
-3.70865e-08
1.83428e-05
-3.65669e-08
1.83276e-05
-5.37241e-08
1.83125e-05
-7.45342e-08
1.83026e-05
-7.4594e-08
1.82988e-05
-5.87138e-08
1.8298e-05
-3.68651e-08
1.8298e-05
-2.2042e-08
1.82981e-05
-1.47284e-08
1.82992e-05
-1.11366e-08
1.83015e-05
-7.67857e-09
1.83049e-05