/*--------------------------------*- C++ -*----------------------------------*\
| =========                 |                                                 |
| \\      /  F ield         | OpenFOAM: The Open Source CFD Toolbox           |
|  \\    /   O peration     | Version:  v1906                                 |
|   \\  /    A nd           | Web:      www.OpenFOAM.com                      |
|    \\/     M anipulation  |                                                 |
\*---------------------------------------------------------------------------*/
FoamFile
{
    version     2.0;
    format      ascii;
    class       volVectorField;
    location    "6.7";
    object      U;
}
// * * * * * * * * * * * * * * * * * * * * * * * * * * * * * * * * * * * * * //

dimensions      [0 1 -1 0 0 0 0];


internalField   nonuniform List<vector> 
9600
(
(0.868498 -0.0034571 0)
(1.06828 -0.000284233 0)
(0.96809 -0.00676625 0)
(1.06764 0.0157186 0)
(0.977177 0.0139728 0)
(0.984149 -0.00274134 0)
(0.929614 -0.0199387 0)
(0.983662 -0.0361291 0)
(0.950128 -0.0176547 0)
(1.06819 -0.0176004 0)
(1.0153 -0.00568199 0)
(1.05192 0.0111486 0)
(1.04042 0.0232048 0)
(1.05167 0.00458161 0)
(1.01163 0.0325348 0)
(1.0748 -0.0139539 0)
(0.968046 0.0205232 0)
(1.0926 -0.0239001 0)
(0.904887 0.00148258 0)
(1.08222 -0.0348553 0)
(0.882376 -0.00306661 0)
(1.05941 -0.00110253 0)
(0.977188 -0.00686855 0)
(1.06301 0.0155875 0)
(0.988647 0.0146176 0)
(0.980596 -0.00214043 0)
(0.941469 -0.020019 0)
(0.96467 -0.0363535 0)
(0.950847 -0.0190311 0)
(1.04891 -0.0186182 0)
(1.02033 -0.00565031 0)
(1.04153 0.0109546 0)
(1.04822 0.0229957 0)
(1.04119 0.00531383 0)
(1.02863 0.031596 0)
(1.05148 -0.0124859 0)
(1.01577 0.0193473 0)
(1.04101 -0.0220723 0)
(1.00152 0.00202117 0)
(0.99193 -0.0353997 0)
(0.905835 -0.00274573 0)
(1.0424 -0.00164592 0)
(0.99038 -0.00694504 0)
(1.05395 0.0155474 0)
(1.00197 0.0153925 0)
(0.981061 -0.00163126 0)
(0.953333 -0.0197917 0)
(0.957564 -0.0363266 0)
(0.95491 -0.0200755 0)
(1.02796 -0.0195061 0)
(1.0247 -0.00560823 0)
(1.03204 0.0105566 0)
(1.04692 0.0228621 0)
(1.04232 0.00584965 0)
(1.03303 0.0309661 0)
(1.0564 -0.0117037 0)
(1.03261 0.0184235 0)
(1.05083 -0.0203951 0)
(1.02473 0.00166065 0)
(1.0128 -0.027302 0)
(0.933455 -0.00245717 0)
(1.0224 -0.00214979 0)
(1.00179 -0.0070936 0)
(1.04284 0.0155088 0)
(1.00973 0.0159925 0)
(0.984449 -0.00112177 0)
(0.963686 -0.0195281 0)
(0.955903 -0.0363022 0)
(0.95726 -0.0209393 0)
(1.0106 -0.0204279 0)
(1.0233 -0.00579198 0)
(1.02599 0.0102445 0)
(1.04312 0.0226286 0)
(1.04189 0.00608199 0)
(1.0407 0.0305116 0)
(1.05648 -0.0114836 0)
(1.04456 0.0184307 0)
(1.04918 -0.0200853 0)
(1.03166 0.00267737 0)
(1.01323 -0.0245896 0)
(0.959325 -0.00219985 0)
(1.006 -0.00257399 0)
(1.00793 -0.00729248 0)
(1.03094 0.0154521 0)
(1.01119 0.0164584 0)
(0.98913 -0.000653477 0)
(0.97325 -0.0191951 0)
(0.959014 -0.0361068 0)
(0.958683 -0.0216128 0)
(0.997765 -0.0213067 0)
(1.01665 -0.00614691 0)
(1.02095 0.00996861 0)
(1.04027 0.022201 0)
(1.04236 0.00623306 0)
(1.04682 0.0296337 0)
(1.06188 -0.0106759 0)
(1.05028 0.0175259 0)
(1.05318 -0.0182063 0)
(1.03417 0.00250803 0)
(1.01758 -0.0214005 0)
(0.979253 -0.00199474 0)
(0.996665 -0.00287571 0)
(1.00877 -0.00749226 0)
(1.01867 0.0154347 0)
(1.00924 0.016793 0)
(0.994423 -0.000273793 0)
(0.98238 -0.0188482 0)
(0.963678 -0.035824 0)
(0.960687 -0.022118 0)
(0.989 -0.0220814 0)
(1.00784 -0.00660672 0)
(1.01562 0.00955206 0)
(1.0384 0.0216413 0)
(1.04363 0.00613269 0)
(1.05268 0.0287779 0)
(1.06517 -0.0101507 0)
(1.05491 0.0168994 0)
(1.05338 -0.0166705 0)
(1.03486 0.00256492 0)
(1.0178 -0.0180015 0)
(0.991961 -0.00185404 0)
(0.993642 -0.00305518 0)
(1.00619 -0.00763193 0)
(1.00696 0.0154438 0)
(1.00715 0.0169618 0)
(1.00044 -1.25863e-05 0)
(0.991315 -0.0184699 0)
(0.968365 -0.0354462 0)
(0.963963 -0.0224627 0)
(0.983757 -0.0227087 0)
(0.999788 -0.00712924 0)
(1.01082 0.00897334 0)
(1.03738 0.0208945 0)
(1.04543 0.00591233 0)
(1.05779 0.0277832 0)
(1.06754 -0.00942193 0)
(1.05739 0.0163045 0)
(1.05273 -0.0147645 0)
(1.03431 0.00260245 0)
(1.01727 -0.0145234 0)
(0.998594 -0.001772 0)
(0.994072 -0.00313277 0)
(1.0021 -0.00768093 0)
(0.997461 0.0154211 0)
(1.0071 0.0169496 0)
(1.00727 0.000137245 0)
(0.999979 -0.0180475 0)
(0.972569 -0.0349959 0)
(0.968215 -0.022695 0)
(0.981215 -0.0231899 0)
(0.994112 -0.00770102 0)
(1.00803 0.00823561 0)
(1.03787 0.0199779 0)
(1.04767 0.00555507 0)
(1.06206 0.0267363 0)
(1.06841 -0.00854707 0)
(1.05795 0.015731 0)
(1.05035 -0.0126776 0)
(1.03244 0.0026053 0)
(1.01559 -0.0111374 0)
(1.00133 -0.00172993 0)
(0.995454 -0.00313539 0)
(0.997607 -0.00764793 0)
(0.991669 0.0153185 0)
(1.00966 0.0167689 0)
(1.01441 0.000203019 0)
(1.00799 -0.017559 0)
(0.976438 -0.0344738 0)
(0.972761 -0.0228561 0)
(0.98024 -0.0235555 0)
(0.990992 -0.00831354 0)
(1.00794 0.00734356 0)
(1.04021 0.0189199 0)
(1.0501 0.00512903 0)
(1.06496 0.0256953 0)
(1.06746 -0.00747737 0)
(1.05628 0.0152158 0)
(1.04643 -0.0104005 0)
(1.02927 0.00260958 0)
(1.0131 -0.00788085 0)
(1.00214 -0.00170911 0)
(0.996632 -0.00308118 0)
(0.993304 -0.00756704 0)
(0.989802 0.0151036 0)
(1.01392 0.0164547 0)
(1.02078 0.000218067 0)
(1.01469 -0.0169947 0)
(0.980323 -0.0338826 0)
(0.976964 -0.0229579 0)
(0.979718 -0.0238217 0)
(0.989467 -0.00899962 0)
(1.0097 0.00629248 0)
(1.04349 0.0177696 0)
(1.05175 0.00473747 0)
(1.06558 0.024706 0)
(1.06422 -0.00619859 0)
(1.05218 0.0147821 0)
(1.04106 -0.00798554 0)
(1.02495 0.00259306 0)
(1.00997 -0.00484019 0)
(1.00226 -0.00169772 0)
(0.997439 -0.00298092 0)
(0.989733 -0.00747409 0)
(0.990661 0.0147634 0)
(1.01811 0.0160529 0)
(1.02523 0.00020935 0)
(1.01942 -0.0163718 0)
(0.984447 -0.0332201 0)
(0.980458 -0.0229836 0)
(0.978987 -0.0239885 0)
(0.98811 -0.00979428 0)
(1.01119 0.00509062 0)
(1.04557 0.0165852 0)
(1.05104 0.00446201 0)
(1.06276 0.0238032 0)
(1.05829 -0.00470446 0)
(1.04568 0.0144108 0)
(1.03447 -0.00552976 0)
(1.01984 0.00258343 0)
(1.00642 -0.00207991 0)
(1.00223 -0.00169142 0)
(0.997993 -0.00284478 0)
(0.987465 -0.00738785 0)
(0.992427 0.0143151 0)
(1.02062 0.0156088 0)
(1.02719 0.000191386 0)
(1.02191 -0.015727 0)
(0.988728 -0.0325041 0)
(0.983145 -0.022904 0)
(0.978061 -0.0240505 0)
(0.985871 -0.0106631 0)
(1.01011 0.0037828 0)
(1.04397 0.0154108 0)
(1.04649 0.00434549 0)
(1.05575 0.0230034 0)
(1.0497 -0.00305067 0)
(1.03722 0.01405 0)
(1.02712 -0.00312549 0)
(1.01445 0.00257275 0)
(1.00276 0.000328621 0)
(1.00223 -0.00168895 0)
(0.998343 -0.00268712 0)
(0.986761 -0.0073095 0)
(0.993694 0.0138028 0)
(1.02084 0.0151567 0)
(1.02692 0.000162162 0)
(1.02239 -0.0151057 0)
(0.992814 -0.0317561 0)
(0.985087 -0.0227154 0)
(0.977401 -0.0239858 0)
(0.982639 -0.0115232 0)
(1.00533 0.00246377 0)
(1.03736 0.0142753 0)
(1.03775 0.00439065 0)
(1.04482 0.0222744 0)
(1.03916 -0.00134479 0)
(1.02772 0.0136416 0)
(1.01959 -0.00086794 0)
(1.00932 0.00255741 0)
(0.999338 0.00234466 0)
(1.00227 -0.00168868 0)
(0.998502 -0.00252531 0)
(0.987355 -0.0072281 0)
(0.993973 0.0132736 0)
(1.01921 0.0147223 0)
(1.02525 0.000116679 0)
(1.02155 -0.0145404 0)
(0.996291 -0.0310018 0)
(0.986422 -0.0224366 0)
(0.977401 -0.0237813 0)
(0.979133 -0.0122619 0)
(0.997633 0.00125586 0)
(1.02651 0.0131991 0)
(1.02604 0.00455741 0)
(1.03155 0.0215356 0)
(1.02797 0.000292902 0)
(1.01836 0.0131342 0)
(1.01259 0.00112653 0)
(1.00487 0.00256871 0)
(0.99645 0.00395675 0)
(1.00234 -0.00168923 0)
(0.998526 -0.00237112 0)
(0.988641 -0.00713409 0)
(0.993505 0.0127619 0)
(1.01669 0.0143108 0)
(1.02309 4.78339e-05 0)
(1.02014 -0.014042 0)
(0.99891 -0.0302621 0)
(0.987322 -0.0220896 0)
(0.978053 -0.0234541 0)
(0.976235 -0.0128127 0)
(0.989068 0.000257174 0)
(1.01394 0.0121907 0)
(1.01365 0.00477754 0)
(1.01823 0.0207271 0)
(1.01759 0.00177009 0)
(1.0102 0.0125196 0)
(1.00665 0.0028226 0)
(1.00136 0.00262036 0)
(0.994257 0.00515916 0)
(1.00238 -0.00168975 0)
(0.998505 -0.00222988 0)
(0.990038 -0.00702037 0)
(0.992765 0.012284 0)
(1.01413 0.0139108 0)
(1.02104 -4.97439e-05 0)
(1.01871 -0.0136045 0)
(1.00067 -0.0295355 0)
(0.987962 -0.0217079 0)
(0.979037 -0.0230355 0)
(0.974402 -0.0131531 0)
(0.981625 -0.000479962 0)
(1.00239 0.0112472 0)
(1.00275 0.0050032 0)
(1.00683 0.0198202 0)
(1.00906 0.00303754 0)
(1.00385 0.0118294 0)
(1.00203 0.00422474 0)
(0.998796 0.00273828 0)
(0.992758 0.00599247 0)
(1.00239 -0.0016896 0)
(0.998504 -0.00210298 0)
(0.991222 -0.0068823 0)
(0.992109 0.0118361 0)
(1.01196 0.0135183 0)
(1.01932 -0.000174115 0)
(1.01746 -0.01321 0)
(1.00175 -0.0288146 0)
(0.988467 -0.0213123 0)
(0.980015 -0.0225435 0)
(0.973567 -0.013319 0)
(0.976292 -0.000966437 0)
(0.99348 0.0103594 0)
(0.994491 0.00520946 0)
(0.998269 0.0188205 0)
(1.00274 0.00409505 0)
(0.999356 0.0110939 0)
(0.998674 0.0053584 0)
(0.997061 0.00291719 0)
(0.991856 0.00652061 0)
(1.00236 -0.00168844 0)
(0.998533 -0.0019889 0)
(0.992107 -0.00672183 0)
(0.991688 0.0114084 0)
(1.01029 0.0131324 0)
(1.01794 -0.000323695 0)
(1.01643 -0.0128445 0)
(1.00236 -0.0280923 0)
(0.988903 -0.0209106 0)
(0.980813 -0.0219926 0)
(0.973402 -0.0133544 0)
(0.973037 -0.00125466 0)
(0.98747 0.00952483 0)
(0.988929 0.00537634 0)
(0.992467 0.0177778 0)
(0.998405 0.00495348 0)
(0.996428 0.0103673 0)
(0.99637 0.00623632 0)
(0.995965 0.00314586 0)
(0.991417 0.00680392 0)
(1.00228 -0.00168592 0)
(0.998577 -0.00188611 0)
(0.992729 -0.00653923 0)
(0.991513 0.0109888 0)
(1.00906 0.0127554 0)
(1.01682 -0.000494897 0)
(1.01555 -0.0124977 0)
(1.00267 -0.0273632 0)
(0.989288 -0.0205085 0)
(0.981415 -0.0213913 0)
(0.973605 -0.0133036 0)
(0.971337 -0.00141104 0)
(0.983791 0.00873756 0)
(0.985511 0.00550296 0)
(0.988809 0.0167237 0)
(0.995577 0.00561219 0)
(0.994646 0.00967898 0)
(0.994849 0.00690557 0)
(0.995321 0.00340286 0)
(0.991317 0.00692663 0)
(1.00218 -0.00168136 0)
(0.998616 -0.00179313 0)
(0.993156 -0.00633754 0)
(0.991541 0.0105695 0)
(1.00814 0.0123862 0)
(1.0159 -0.000683511 0)
(1.01475 -0.0121632 0)
(1.00279 -0.0266196 0)
(0.989625 -0.0201072 0)
(0.981875 -0.0207453 0)
(0.973999 -0.0132019 0)
(0.970648 -0.00146442 0)
(0.981703 0.0079916 0)
(0.98358 0.00558128 0)
(0.986623 0.0156853 0)
(0.993794 0.00611054 0)
(0.993647 0.00904222 0)
(0.99388 0.00741566 0)
(0.994971 0.00370585 0)
(0.991456 0.00692952 0)
(1.00206 -0.00167411 0)
(0.998641 -0.00170948 0)
(0.993445 -0.00611953 0)
(0.991715 0.0101458 0)
(1.00747 0.0120222 0)
(1.01513 -0.000881632 0)
(1.01402 -0.0118364 0)
(1.00278 -0.0258586 0)
(0.989919 -0.0197084 0)
(0.982253 -0.0200629 0)
(0.974505 -0.013067 0)
(0.970594 -0.00145716 0)
(0.98063 0.00729088 0)
(0.982625 0.00559853 0)
(0.985398 0.014699 0)
(0.992702 0.00649425 0)
(0.993153 0.00847249 0)
(0.993293 0.00777121 0)
(0.994796 0.00404116 0)
(0.991748 0.00683195 0)
(1.00195 -0.00166353 0)
(0.998647 -0.00163409 0)
(0.993645 -0.00588578 0)
(0.991981 0.00971133 0)
(1.00696 0.0116634 0)
(1.01445 -0.00108214 0)
(1.01332 -0.0115158 0)
(1.00267 -0.0250807 0)
(0.990178 -0.0193146 0)
(0.982591 -0.0193509 0)
(0.975092 -0.0129146 0)
(0.970947 -0.00143363 0)
(0.980196 0.00663694 0)
(0.982301 0.00555255 0)
(0.984787 0.01377 0)
(0.992053 0.00678753 0)
(0.992975 0.00795661 0)
(0.992958 0.00801454 0)
(0.994712 0.00436839 0)
(0.992132 0.00667038 0)
(1.00184 -0.00164912 0)
(0.998638 -0.00156637 0)
(0.993801 -0.00563817 0)
(0.992288 0.00926413 0)
(1.00656 0.0113093 0)
(1.01382 -0.0012826 0)
(1.01264 -0.0112019 0)
(1.00248 -0.024283 0)
(0.990416 -0.0189264 0)
(0.982915 -0.0186165 0)
(0.975739 -0.0127455 0)
(0.971563 -0.00140628 0)
(0.980163 0.00603391 0)
(0.982375 0.0054388 0)
(0.984561 0.0129078 0)
(0.991672 0.00698612 0)
(0.992984 0.00748667 0)
(0.992786 0.00815943 0)
(0.99466 0.00470899 0)
(0.992563 0.00646722 0)
(1.00176 -0.00163065 0)
(0.998617 -0.00150618 0)
(0.993951 -0.00537907 0)
(0.9926 0.00880447 0)
(1.00622 0.0109582 0)
(1.01323 -0.00147692 0)
(1.01199 -0.0108957 0)
(1.00223 -0.0234635 0)
(0.990643 -0.018545 0)
(0.983238 -0.0178681 0)
(0.976432 -0.0125586 0)
(0.972345 -0.0013942 0)
(0.980373 0.0054873 0)
(0.982688 0.00526681 0)
(0.984567 0.0120981 0)
(0.991439 0.00711395 0)
(0.993096 0.00706727 0)
(0.992718 0.00821027 0)
(0.994611 0.00505689 0)
(0.993006 0.00624277 0)
(1.0017 -0.00160806 0)
(0.998587 -0.00145312 0)
(0.994126 -0.00510858 0)
(0.992891 0.00833109 0)
(1.00592 0.010608 0)
(1.01265 -0.0016597 0)
(1.01136 -0.0105992 0)
(1.00196 -0.0226237 0)
(0.990866 -0.0181699 0)
(0.983561 -0.0171173 0)
(0.977154 -0.0123515 0)
(0.973222 -0.00141176 0)
(0.980722 0.00499728 0)
(0.983127 0.00505265 0)
(0.98471 0.0113267 0)
(0.991279 0.00719767 0)
(0.993261 0.00669546 0)
(0.992719 0.00817383 0)
(0.99455 0.0054201 0)
(0.993441 0.00599628 0)
(1.00165 -0.0015809 0)
(0.998554 -0.00140833 0)
(0.994341 -0.00482696 0)
(0.993153 0.00784778 0)
(1.00564 0.0102547 0)
(1.01208 -0.00182474 0)
(1.01075 -0.0103102 0)
(1.00168 -0.0217671 0)
(0.991092 -0.0177956 0)
(0.983884 -0.0163707 0)
(0.97789 -0.012125 0)
(0.974142 -0.00146679 0)
(0.981142 0.00455665 0)
(0.983619 0.00480028 0)
(0.984931 0.0105993 0)
(0.991145 0.00723731 0)
(0.99345 0.00635364 0)
(0.992775 0.00807454 0)
(0.994477 0.00577482 0)
(0.993844 0.00577231 0)
(1.0016 -0.0015498 0)
(0.998518 -0.00137213 0)
(0.994602 -0.00453599 0)
(0.993387 0.00736152 0)
(1.00536 0.0098948 0)
(1.01153 -0.00196839 0)
(1.01017 -0.0100307 0)
(1.00141 -0.0208932 0)
(0.991326 -0.017421 0)
(0.984205 -0.0156333 0)
(0.978626 -0.0118703 0)
(0.975071 -0.0015577 0)
(0.981591 0.00416554 0)
(0.98412 0.00452268 0)
(0.985201 0.00990332 0)
(0.991018 0.0072565 0)
(0.99365 0.00604715 0)
(0.992877 0.00790969 0)
(0.994397 0.00611169 0)
(0.994209 0.00559502 0)
(1.00155 -0.00151413 0)
(0.998481 -0.00134545 0)
(0.994897 -0.00423588 0)
(0.993607 0.00687336 0)
(1.00509 0.0095258 0)
(1.011 -0.00208936 0)
(1.00962 -0.00976824 0)
(1.00118 -0.0200044 0)
(0.991573 -0.0170411 0)
(0.984525 -0.0149101 0)
(0.979352 -0.0115797 0)
(0.97599 -0.00168029 0)
(0.982048 0.00381799 0)
(0.984607 0.00423476 0)
(0.985508 0.00922421 0)
(0.990889 0.00725095 0)
(0.993846 0.00578963 0)
(0.993027 0.00765291 0)
(0.99432 0.00642699 0)
(0.994516 0.00547053 0)
(1.00149 -0.00147357 0)
(0.998441 -0.00132766 0)
(0.99521 -0.00393101 0)
(0.993827 0.00638529 0)
(1.00483 0.00914589 0)
(1.01049 -0.00218452 0)
(1.00908 -0.00951653 0)
(1.00098 -0.0191079 0)
(0.991835 -0.0166473 0)
(0.984849 -0.0142125 0)
(0.980065 -0.0112511 0)
(0.976889 -0.00183423 0)
(0.982504 0.00350132 0)
(0.985066 0.00394246 0)
(0.985842 0.00855639 0)
(0.990764 0.00720615 0)
(0.994026 0.00558597 0)
(0.993219 0.00732789 0)
(0.994256 0.00667879 0)
(0.994754 0.00542329 0)
(1.00142 -0.00142857 0)
(0.9984 -0.001318 0)
(0.995523 -0.0036236 0)
(0.994059 0.00590335 0)
(1.00457 0.00875172 0)
(1.00998 -0.00225295 0)
(1.00856 -0.00927112 0)
(1.0008 -0.0182066 0)
(0.992116 -0.0162373 0)
(0.985185 -0.0135505 0)
(0.980767 -0.0108848 0)
(0.977771 -0.00201333 0)
(0.982958 0.00320574 0)
(0.985498 0.00366114 0)
(0.986199 0.00790155 0)
(0.990649 0.00713381 0)
(0.994179 0.00542219 0)
(0.993447 0.00695411 0)
(0.994215 0.00683034 0)
(0.994916 0.00545709 0)
(1.00136 -0.00137809 0)
(0.998362 -0.00131727 0)
(0.995821 -0.00331726 0)
(0.99431 0.00543518 0)
(1.00431 0.00834036 0)
(1.00947 -0.0022948 0)
(1.00806 -0.00903383 0)
(1.00065 -0.017306 0)
(0.992415 -0.0158084 0)
(0.985539 -0.0129175 0)
(0.981461 -0.0104829 0)
(0.978643 -0.00220009 0)
(0.983415 0.00292201 0)
(0.985906 0.00340225 0)
(0.986577 0.00726535 0)
(0.990553 0.00702348 0)
(0.994296 0.00529182 0)
(0.993701 0.00655675 0)
(0.994208 0.00687378 0)
(0.995006 0.0055473 0)
(1.00129 -0.00132246 0)
(0.998329 -0.00132233 0)
(0.996098 -0.0030186 0)
(0.994582 0.00498264 0)
(1.00405 0.00791328 0)
(1.00895 -0.00231423 0)
(1.00756 -0.00880193 0)
(1.00051 -0.0164132 0)
(0.992729 -0.0153521 0)
(0.985916 -0.0123158 0)
(0.982151 -0.010049 0)
(0.979513 -0.00238731 0)
(0.983884 0.00264586 0)
(0.986301 0.00316827 0)
(0.986971 0.00665167 0)
(0.990486 0.00686093 0)
(0.994377 0.0052027 0)
(0.993974 0.00615681 0)
(0.99424 0.00682075 0)
(0.995034 0.00566806 0)
(1.00123 -0.00126309 0)
(0.998305 -0.00132948 0)
(0.99635 -0.00272872 0)
(0.994873 0.00454541 0)
(1.00379 0.00747155 0)
(1.00841 -0.00231227 0)
(1.00706 -0.00857314 0)
(1.00037 -0.0155373 0)
(0.993054 -0.0148683 0)
(0.98632 -0.0117522 0)
(0.982838 -0.00958973 0)
(0.980388 -0.00256746 0)
(0.984372 0.00237044 0)
(0.986689 0.00295762 0)
(0.987384 0.00606505 0)
(0.990461 0.00665734 0)
(0.994425 0.005143 0)
(0.994252 0.00577558 0)
(0.994323 0.00666194 0)
(0.99502 0.005797 0)
(1.00117 -0.00119968 0)
(0.998292 -0.00133943 0)
(0.996582 -0.00244722 0)
(0.995178 0.00412507 0)
(1.00352 0.00701644 0)
(1.00785 -0.00229012 0)
(1.00658 -0.00834334 0)
(1.00022 -0.0146774 0)
(0.993384 -0.0143587 0)
(0.986752 -0.0112216 0)
(0.983523 -0.00911495 0)
(0.981268 -0.00272386 0)
(0.984884 0.00209418 0)
(0.987079 0.0027707 0)
(0.987813 0.00550799 0)
(0.990485 0.00640106 0)
(0.994447 0.00508668 0)
(0.994523 0.00544378 0)
(0.994459 0.00640064 0)
(0.994988 0.0058736 0)
(1.00112 -0.00113295 0)
(0.998292 -0.00134784 0)
(0.996797 -0.00217869 0)
(0.995489 0.00372196 0)
(1.00326 0.00655016 0)
(1.00728 -0.00224921 0)
(1.0061 -0.0081125 0)
(1.00007 -0.0138346 0)
(0.993715 -0.0138214 0)
(0.987207 -0.0107203 0)
(0.984204 -0.00863122 0)
(0.982152 -0.00285872 0)
(0.985423 0.00181991 0)
(0.987471 0.0025979 0)
(0.988252 0.00499181 0)
(0.990561 0.00609901 0)
(0.99446 0.00502946 0)
(0.994776 0.00515522 0)
(0.994638 0.00608899 0)
(0.994965 0.00586842 0)
(1.00106 -0.00106346 0)
(0.998303 -0.0013546 0)
(0.997 -0.00192397 0)
(0.995801 0.0033387 0)
(1.00301 0.00607471 0)
(1.00671 -0.00218865 0)
(1.00564 -0.00788254 0)
(0.999912 -0.0130196 0)
(0.994041 -0.0132608 0)
(0.987685 -0.0102464 0)
(0.98488 -0.00814216 0)
(0.983032 -0.00296223 0)
(0.985989 0.00154347 0)
(0.987869 0.00244209 0)
(0.988701 0.00452767 0)
(0.99069 0.00576905 0)
(0.994472 0.00495058 0)
(0.995009 0.00490825 0)
(0.994854 0.00576375 0)
(0.99497 0.00577393 0)
(1.00101 -0.000991918 0)
(0.998325 -0.00136135 0)
(0.997194 -0.00168136 0)
(0.996108 0.00297668 0)
(1.00277 0.00559525 0)
(1.00613 -0.00211225 0)
(1.00519 -0.00764475 0)
(0.999762 -0.0122425 0)
(0.994359 -0.012668 0)
(0.988181 -0.00979949 0)
(0.985548 -0.00766472 0)
(0.983901 -0.00303438 0)
(0.986579 0.0012585 0)
(0.988275 0.00229732 0)
(0.989152 0.00410546 0)
(0.990866 0.00541944 0)
(0.994496 0.00483649 0)
(0.99522 0.00469146 0)
(0.995089 0.00544074 0)
(0.995022 0.00559115 0)
(1.00096 -0.000919396 0)
(0.998357 -0.00136588 0)
(0.997381 -0.00145098 0)
(0.996407 0.00263688 0)
(1.00254 0.00510769 0)
(1.00556 -0.00202147 0)
(1.00476 -0.00739461 0)
(0.99962 -0.0115089 0)
(0.99467 -0.0120535 0)
(0.98869 -0.00936875 0)
(0.98621 -0.00720133 0)
(0.984753 -0.00307244 0)
(0.98719 0.000970367 0)
(0.988692 0.00214869 0)
(0.989604 0.00373472 0)
(0.991085 0.00505831 0)
(0.994536 0.00470278 0)
(0.995416 0.00448896 0)
(0.995334 0.00514337 0)
(0.995115 0.005357 0)
(1.00091 -0.000845415 0)
(0.998398 -0.00137168 0)
(0.997562 -0.00123235 0)
(0.996694 0.0023206 0)
(1.00232 0.00461557 0)
(1.005 -0.0019195 0)
(1.00434 -0.00712841 0)
(0.99949 -0.0108188 0)
(0.994973 -0.0114361 0)
(0.98921 -0.00894399 0)
(0.986864 -0.00675542 0)
(0.985583 -0.00307159 0)
(0.987817 0.000686019 0)
(0.989122 0.00199423 0)
(0.990054 0.0034143 0)
(0.991339 0.0046937 0)
(0.994599 0.00454181 0)
(0.995599 0.00429218 0)
(0.995581 0.00485958 0)
(0.995244 0.00511083 0)
(1.00085 -0.000772229 0)
(0.998446 -0.00137494 0)
(0.997739 -0.00103216 0)
(0.996967 0.0020309 0)
(1.00212 0.00412906 0)
(1.00446 -0.00181578 0)
(1.00394 -0.00683524 0)
(0.999373 -0.0101692 0)
(0.99527 -0.010823 0)
(0.989739 -0.00852714 0)
(0.987513 -0.00632433 0)
(0.986387 -0.00303854 0)
(0.988456 0.000412248 0)
(0.989569 0.00182706 0)
(0.990502 0.00313211 0)
(0.991622 0.00434464 0)
(0.994685 0.00435483 0)
(0.995774 0.00408555 0)
(0.995833 0.00458044 0)
(0.995399 0.00486104 0)
(1.0008 -0.000700053 0)
(0.998501 -0.00137219 0)
(0.997912 -0.000855599 0)
(0.997226 0.00177499 0)
(1.00194 0.00364449 0)
(1.00394 -0.00172028 0)
(1.00356 -0.00651375 0)
(0.999269 -0.00954776 0)
(0.995561 -0.010217 0)
(0.990277 -0.0081159 0)
(0.988158 -0.00590464 0)
(0.987163 -0.00297366 0)
(0.989101 0.000150023 0)
(0.990033 0.00164391 0)
(0.99095 0.00288443 0)
(0.991929 0.00401288 0)
(0.994792 0.00414915 0)
(0.995944 0.00388541 0)
(0.996088 0.00430815 0)
(0.995576 0.00460738 0)
(1.00075 -0.000630969 0)
(0.998562 -0.00136116 0)
(0.998082 -0.000705024 0)
(0.997468 0.00156059 0)
(1.00177 0.00316446 0)
(1.00344 -0.00164244 0)
(1.00319 -0.00617247 0)
(0.999177 -0.00894688 0)
(0.995848 -0.0096223 0)
(0.990822 -0.00771455 0)
(0.988801 -0.00550199 0)
(0.987909 -0.00288051 0)
(0.989749 -8.23815e-05 0)
(0.990521 0.00144177 0)
(0.991401 0.00265643 0)
(0.992253 0.00369692 0)
(0.994923 0.00392675 0)
(0.996114 0.00369393 0)
(0.996345 0.00403719 0)
(0.995772 0.00435601 0)
(1.0007 -0.000566273 0)
(0.998627 -0.0013361 0)
(0.99825 -0.000588988 0)
(0.997693 0.00138399 0)
(1.00162 0.0027096 0)
(1.00297 -0.00158465 0)
(1.00284 -0.00581866 0)
(0.999097 -0.00836228 0)
(0.996128 -0.00904574 0)
(0.991374 -0.00733042 0)
(0.989445 -0.00512219 0)
(0.988628 -0.00275552 0)
(0.990391 -0.000273995 0)
(0.991029 0.00123243 0)
(0.991859 0.00243643 0)
(0.992593 0.00340887 0)
(0.995077 0.00369155 0)
(0.996281 0.00349237 0)
(0.996604 0.00376946 0)
(0.995995 0.00409992 0)
(1.00065 -0.000507432 0)
(0.998695 -0.00129189 0)
(0.998416 -0.000508882 0)
(0.997903 0.00123735 0)
(1.00148 0.00228156 0)
(1.00253 -0.00156006 0)
(1.00251 -0.00546258 0)
(0.999028 -0.0077883 0)
(0.996401 -0.00847701 0)
(0.99193 -0.00696137 0)
(0.990093 -0.00477228 0)
(0.989321 -0.00259287 0)
(0.991024 -0.00043537 0)
(0.991556 0.00101654 0)
(0.992329 0.00220918 0)
(0.992945 0.00313661 0)
(0.995248 0.00344949 0)
(0.996453 0.0032848 0)
(0.996864 0.00350845 0)
(0.996238 0.00382716 0)
(1.00061 -0.000455615 0)
(0.998764 -0.00122976 0)
(0.998579 -0.000458554 0)
(0.998097 0.00110844 0)
(1.00134 0.00189406 0)
(1.00213 -0.00155734 0)
(1.00221 -0.00512038 0)
(0.998972 -0.00722382 0)
(0.996665 -0.00790394 0)
(0.992486 -0.00659742 0)
(0.990749 -0.00445778 0)
(0.989991 -0.00241264 0)
(0.991638 -0.000551006 0)
(0.992096 0.000798209 0)
(0.992815 0.00197213 0)
(0.993314 0.0028574 0)
(0.995439 0.00320702 0)
(0.996627 0.00306376 0)
(0.997121 0.00324558 0)
(0.996505 0.00354709 0)
(1.00056 -0.000409791 0)
(0.998832 -0.00115354 0)
(0.998738 -0.000431285 0)
(0.998277 0.000988271 0)
(1.00121 0.00157404 0)
(1.00175 -0.0015561 0)
(1.00193 -0.00480047 0)
(0.998931 -0.00666917 0)
(0.99692 -0.00732658 0)
(0.993037 -0.0062226 0)
(0.991411 -0.00417992 0)
(0.990645 -0.00224485 0)
(0.99223 -0.000612747 0)
(0.992641 0.000598673 0)
(0.993313 0.00173066 0)
(0.993702 0.00257445 0)
(0.995647 0.00296111 0)
(0.996805 0.00284459 0)
(0.99738 0.00298544 0)
(0.996793 0.00325593 0)
(1.00051 -0.000370584 0)
(0.998898 -0.0010636 0)
(0.998891 -0.000422129 0)
(0.998447 0.000864763 0)
(1.00109 0.00131474 0)
(1.00141 -0.00154209 0)
(1.00168 -0.00450621 0)
(0.998907 -0.00613746 0)
(0.997166 -0.00674714 0)
(0.993577 -0.00583084 0)
(0.992074 -0.0039294 0)
(0.991289 -0.00209857 0)
(0.992801 -0.000642846 0)
(0.99318 0.000422927 0)
(0.993819 0.0014859 0)
(0.994109 0.00229746 0)
(0.995883 0.00270349 0)
(0.996989 0.00263197 0)
(0.997629 0.00273316 0)
(0.997101 0.00294974 0)
(1.00047 -0.000337197 0)
(0.998961 -0.000968768 0)
(0.999036 -0.00041874 0)
(0.998608 0.000727385 0)
(1.00097 0.00110836 0)
(1.00108 -0.0014998 0)
(1.00146 -0.00422528 0)
(0.998906 -0.00564492 0)
(0.997406 -0.00616818 0)
(0.9941 -0.00542954 0)
(0.992733 -0.00370049 0)
(0.991925 -0.00197964 0)
(0.993353 -0.00065953 0)
(0.993709 0.000266436 0)
(0.994328 0.00125417 0)
(0.994531 0.00202902 0)
(0.99614 0.00244577 0)
(0.997187 0.00240783 0)
(0.99787 0.00250292 0)
(0.997416 0.00266286 0)
(1.00043 -0.000307016 0)
(0.999021 -0.000875339 0)
(0.999171 -0.000408469 0)
(0.998764 0.000572064 0)
(1.00087 0.000941648 0)
(1.00078 -0.00142511 0)
(1.00126 -0.00394914 0)
(0.998928 -0.00519876 0)
(0.997643 -0.00560178 0)
(0.9946 -0.00501408 0)
(0.993381 -0.00347925 0)
(0.992556 -0.00188784 0)
(0.993889 -0.000674725 0)
(0.994224 0.000131753 0)
(0.994838 0.00102731 0)
(0.994964 0.00176603 0)
(0.996417 0.00219498 0)
(0.997401 0.00217544 0)
(0.998112 0.0022755 0)
(0.99772 0.00240354 0)
(1.00038 -0.000278375 0)
(0.999076 -0.000788031 0)
(0.999292 -0.00038614 0)
(0.998914 0.000406936 0)
(1.00078 0.000792123 0)
(1.0005 -0.0013053 0)
(1.00108 -0.00366477 0)
(0.998974 -0.00479109 0)
(0.997884 -0.00507589 0)
(0.995076 -0.00458491 0)
(0.994007 -0.00325743 0)
(0.993177 -0.0018131 0)
(0.994414 -0.000696371 0)
(0.994723 2.74217e-05 0)
(0.995343 0.000817856 0)
(0.995411 0.00150936 0)
(0.996709 0.00195102 0)
(0.997627 0.00195064 0)
(0.998362 0.00203173 0)
(0.998012 0.00216719 0)
(1.00034 -0.000250204 0)
(0.99913 -0.000711467 0)
(0.999397 -0.000350529 0)
(0.999058 0.000245357 0)
(1.0007 0.000640192 0)
(1.00024 -0.00115362 0)
(1.00091 -0.00335804 0)
(0.999037 -0.00440591 0)
(0.998132 -0.00460215 0)
(0.995531 -0.00415473 0)
(0.994604 -0.00302834 0)
(0.993783 -0.00174285 0)
(0.994933 -0.000729372 0)
(0.995211 -7.00071e-05 0)
(0.995835 0.00063667 0)
(0.995865 0.00126456 0)
(0.997021 0.00171634 0)
(0.997857 0.00175039 0)
(0.998618 0.00178409 0)
(0.998302 0.00193803 0)
(1.0003 -0.000219756 0)
(0.999182 -0.000648734 0)
(0.999488 -0.000299729 0)
(0.999191 8.79854e-05 0)
(1.00065 0.000483609 0)
(1.00001 -0.000992597 0)
(1.00075 -0.00302532 0)
(0.999109 -0.00404235 0)
(0.998387 -0.00417715 0)
(0.995968 -0.00374555 0)
(0.995168 -0.00277272 0)
(0.994365 -0.00166277 0)
(0.995438 -0.000757194 0)
(0.99569 -0.000169686 0)
(0.996318 0.000464862 0)
(0.996323 0.00103829 0)
(0.997353 0.00147532 0)
(0.998088 0.00156012 0)
(0.99887 0.001556 0)
(0.998599 0.00169066 0)
(1.00026 -0.000186112 0)
(0.999234 -0.000603728 0)
(0.999563 -0.000236067 0)
(0.999311 -5.79658e-05 0)
(1.00063 0.00031156 0)
(0.999808 -0.000836203 0)
(1.00059 -0.00266055 0)
(0.999181 -0.00368437 0)
(0.998649 -0.00380885 0)
(0.996396 -0.00338047 0)
(0.995702 -0.00250864 0)
(0.994917 -0.00156782 0)
(0.995924 -0.000770687 0)
(0.996153 -0.000258719 0)
(0.99679 0.000303271 0)
(0.996775 0.000833772 0)
(0.997703 0.00123575 0)
(0.998333 0.00136702 0)
(0.999107 0.00136188 0)
(0.998899 0.00144106 0)
(1.00022 -0.000147923 0)
(0.999287 -0.000577239 0)
(0.999626 -0.000171384 0)
(0.999414 -0.000174969 0)
(1.00064 0.00012459 0)
(0.999653 -0.000698818 0)
(1.00044 -0.00226933 0)
(0.99924 -0.00330421 0)
(0.998908 -0.00348135 0)
(0.99682 -0.00305849 0)
(0.996213 -0.00226151 0)
(0.995439 -0.00144656 0)
(0.996389 -0.000776091 0)
(0.996598 -0.000333793 0)
(0.997252 0.000149831 0)
(0.997223 0.000631284 0)
(0.99806 0.00101169 0)
(0.998596 0.00116264 0)
(0.999333 0.00118759 0)
(0.99919 0.0012103 0)
(1.00018 -0.000104441 0)
(0.999341 -0.000564825 0)
(0.999679 -0.000107759 0)
(0.999498 -0.000246982 0)
(1.00066 -6.15812e-05 0)
(0.999549 -0.000590168 0)
(1.0003 -0.00187827 0)
(0.999282 -0.00290904 0)
(0.999156 -0.00317009 0)
(0.997239 -0.00279218 0)
(0.996708 -0.0020384 0)
(0.995931 -0.0013091 0)
(0.996825 -0.000752996 0)
(0.997021 -0.000387444 0)
(0.997691 1.22794e-05 0)
(0.997665 0.000435219 0)
(0.998425 0.000801157 0)
(0.998877 0.000957188 0)
(0.999556 0.00101274 0)
(0.999458 0.00100926 0)
(1.00014 -6.54044e-05 0)
(0.999398 -0.000555592 0)
(0.99973 -6.76278e-05 0)
(0.99956 -0.000279719 0)
(1.00071 -0.000234762 0)
(0.999503 -0.000515964 0)
(1.00019 -0.00150563 0)
(0.999307 -0.00250026 0)
(0.999381 -0.00285795 0)
(0.997651 -0.00257203 0)
(0.997198 -0.00185991 0)
(0.996405 -0.00118929 0)
(0.997236 -0.000709104 0)
(0.997416 -0.00042496 0)
(0.998107 -0.000106481 0)
(0.998096 0.00025369 0)
(0.998793 0.000593662 0)
(0.999168 0.000756232 0)
(0.999786 0.000831569 0)
(0.999706 0.000838374 0)
(1.00011 -1.24488e-05 0)
(0.999456 -0.000587715 0)
(0.999782 -1.99802e-05 0)
(0.999609 -0.000237824 0)
(1.00076 -0.000358766 0)
(0.999515 -0.000480422 0)
(1.00012 -0.00117692 0)
(0.999318 -0.00209093 0)
(0.999575 -0.00254257 0)
(0.998044 -0.00235772 0)
(0.99768 -0.00172632 0)
(0.996868 -0.00108659 0)
(0.997625 -0.000660082 0)
(0.997781 -0.000430411 0)
(0.998496 -0.000198404 0)
(0.998512 9.22452e-05 0)
(0.999163 0.000389447 0)
(0.999474 0.000559062 0)
(1.00003 0.000646263 0)
(0.999941 0.000674611 0)
(1.00008 3.05062e-05 0)
(0.999519 -0.000561513 0)
(0.999856 8.59874e-06 0)
(0.999644 -0.000162768 0)
(1.00082 -0.000435351 0)
(0.999574 -0.000498394 0)
(1.00009 -0.000923174 0)
(0.999321 -0.00171095 0)
(0.999739 -0.00222898 0)
(0.99841 -0.00215451 0)
(0.998152 -0.00162855 0)
(0.997327 -0.00101773 0)
(0.998004 -0.000622344 0)
(0.998121 -0.000422168 0)
(0.998847 -0.000260059 0)
(0.998898 -4.84063e-05 0)
(0.999523 0.000198666 0)
(0.999785 0.00036227 0)
(1.00029 0.000451112 0)
(1.00017 0.000503246 0)
(1.00005 7.26114e-05 0)
(0.999578 -0.000496071 0)
(0.999926 2.35945e-05 0)
(0.999673 -8.22787e-05 0)
(1.00086 -0.000446277 0)
(0.999671 -0.000550578 0)
(1.00011 -0.000751325 0)
(0.999333 -0.0013704 0)
(0.999872 -0.00190473 0)
(0.998739 -0.00195093 0)
(0.998604 -0.0015408 0)
(0.997784 -0.000986288 0)
(0.998377 -0.00059798 0)
(0.998445 -0.000419081 0)
(0.999164 -0.000295016 0)
(0.999251 -0.000158305 0)
(0.999869 2.63648e-05 0)
(1.00009 0.000176944 0)
(1.00056 0.000258515 0)
(1.00042 0.000323479 0)
(1.00002 0.000119617 0)
(0.999634 -0.000454011 0)
(1.00001 5.5097e-05 0)
(0.999699 -1.72629e-06 0)
(1.00088 -0.000391343 0)
(0.999781 -0.00058976 0)
(1.00018 -0.000652466 0)
(0.999367 -0.00107482 0)
(0.999982 -0.00158439 0)
(0.999026 -0.00172309 0)
(0.999025 -0.00144976 0)
(0.998233 -0.000974219 0)
(0.998751 -0.00059868 0)
(0.998759 -0.000421719 0)
(0.999455 -0.000328624 0)
(0.99956 -0.000233218 0)
(1.00019 -0.000125543 0)
(1.00039 -5.56633e-07 0)
(1.00082 7.42982e-05 0)
(1.00067 0.000137259 0)
(1 0.000150225 0)
(0.999686 -0.000378694 0)
(1.00009 6.80253e-05 0)
(0.999732 6.38347e-05 0)
(1.00089 -0.000297219 0)
(0.999892 -0.000585572 0)
(1.00029 -0.00060466 0)
(0.999433 -0.00083828 0)
(1.00008 -0.00129579 0)
(0.999269 -0.00148659 0)
(0.999401 -0.00134966 0)
(0.998664 -0.000963588 0)
(0.999126 -0.000625553 0)
(0.999068 -0.000432273 0)
(0.999732 -0.000361181 0)
(0.999839 -0.000290515 0)
(1.00047 -0.000236451 0)