/*--------------------------------*- C++ -*----------------------------------*\
| =========                 |                                                 |
| \\      /  F ield         | OpenFOAM: The Open Source CFD Toolbox           |
|  \\    /   O peration     | Version:  v1906                                 |
|   \\  /    A nd           | Web:      www.OpenFOAM.com                      |
|    \\/     M anipulation  |                                                 |
\*---------------------------------------------------------------------------*/
FoamFile
{
    version     2.0;
    format      ascii;
    class       volVectorField;
    location    "1.8";
    object      U;
}
// * * * * * * * * * * * * * * * * * * * * * * * * * * * * * * * * * * * * * //

dimensions      [0 1 -1 0 0 0 0];


internalField   nonuniform List<vector> 
9600
(
(0.844408 1.10726e-05 0)
(1.16857 0.00187112 0)
(0.864412 0.00405546 0)
(1.09034 -0.0085995 0)
(0.858133 -0.00214862 0)
(1.19633 0.00160509 0)
(0.812394 0.00316958 0)
(1.11874 0.00958971 0)
(0.864213 -0.0019432 0)
(1.08004 -0.00201104 0)
(0.885344 -0.00702816 0)
(1.10361 -0.00613172 0)
(0.88761 0.00417276 0)
(1.11091 -0.00670297 0)
(0.858177 0.00405266 0)
(1.12086 0.00149446 0)
(0.835005 0.00497442 0)
(1.11214 0.0065795 0)
(0.829781 0.00780349 0)
(1.09744 0.00701073 0)
(0.854238 -0.000200184 0)
(1.15683 0.00188551 0)
(0.87695 0.00451416 0)
(1.07782 -0.00829017 0)
(0.867863 -0.0036011 0)
(1.18064 0.00229687 0)
(0.83238 0.00385859 0)
(1.0985 0.00929047 0)
(0.891393 -0.00162626 0)
(1.06048 -0.00209352 0)
(0.912418 -0.00764021 0)
(1.07921 -0.00595432 0)
(0.917872 0.0037373 0)
(1.07759 -0.00578892 0)
(0.898934 0.00349308 0)
(1.07092 0.00238952 0)
(0.900969 0.00542855 0)
(1.03483 0.00615312 0)
(0.930457 0.00952025 0)
(0.979643 0.00567219 0)
(0.873523 -0.000332079 0)
(1.13372 0.00190941 0)
(0.899351 0.0049864 0)
(1.05931 -0.00813218 0)
(0.888403 -0.00460943 0)
(1.15016 0.00286984 0)
(0.870383 0.00454271 0)
(1.06353 0.00879708 0)
(0.927716 -0.00132951 0)
(1.03242 -0.00232504 0)
(0.946428 -0.00796962 0)
(1.04424 -0.00594603 0)
(0.956533 0.00363467 0)
(1.0394 -0.00534244 0)
(0.947043 0.00352591 0)
(1.02326 0.00241896 0)
(0.956434 0.00603701 0)
(0.989064 0.00575077 0)
(0.969507 0.0103656 0)
(0.96483 0.00644798 0)
(0.899361 -0.000426475 0)
(1.10303 0.00186109 0)
(0.926399 0.00539421 0)
(1.03968 -0.00795351 0)
(0.915592 -0.00542443 0)
(1.11113 0.00309513 0)
(0.914079 0.00528291 0)
(1.02831 0.00830946 0)
(0.95899 -0.00110226 0)
(1.0095 -0.00254724 0)
(0.971922 -0.0080844 0)
(1.01623 -0.00609869 0)
(0.981979 0.00364939 0)
(1.01554 -0.00515053 0)
(0.975492 0.00387213 0)
(1.00088 0.00223946 0)
(0.979551 0.00670472 0)
(0.980134 0.00571903 0)
(0.976365 0.0106622 0)
(0.972704 0.00750926 0)
(0.927249 -0.000474494 0)
(1.07055 0.00176217 0)
(0.952417 0.00575281 0)
(1.02346 -0.00778715 0)
(0.942684 -0.00605146 0)
(1.07242 0.0030952 0)
(0.951073 0.00606663 0)
(1.00444 0.00793883 0)
(0.97947 -0.000975429 0)
(0.997826 -0.00271443 0)
(0.985813 -0.00812259 0)
(1.00133 -0.00626058 0)
(0.992341 0.00358563 0)
(1.00575 -0.00497118 0)
(0.986708 0.00414714 0)
(0.994196 0.00222411 0)
(0.985855 0.00717841 0)
(0.981117 0.00587419 0)
(0.978178 0.010877 0)
(0.976472 0.00833372 0)
(0.952668 -0.000478833 0)
(1.04203 0.00165129 0)
(0.973244 0.00601731 0)
(1.01306 -0.00765933 0)
(0.964425 -0.00644716 0)
(1.04102 0.00299278 0)
(0.975616 0.00672309 0)
(0.994248 0.00771531 0)
(0.990961 -0.000945434 0)
(0.995005 -0.00282657 0)
(0.99242 -0.00809292 0)
(0.995807 -0.0063701 0)
(0.99481 0.00345752 0)
(1.00273 -0.00481338 0)
(0.990191 0.00433161 0)
(0.992948 0.00236212 0)
(0.987443 0.00741889 0)
(0.982638 0.00617116 0)
(0.980141 0.010994 0)
(0.978647 0.00900493 0)
(0.972571 -0.000452615 0)
(1.02102 0.00155131 0)
(0.987392 0.00615814 0)
(1.00812 -0.00755396 0)
(0.979092 -0.006627 0)
(1.01948 0.00284778 0)
(0.988598 0.0071623 0)
(0.993173 0.00759678 0)
(0.997445 -0.000961854 0)
(0.996312 -0.00289336 0)
(0.995843 -0.00799623 0)
(0.994526 -0.00642394 0)
(0.994853 0.00330539 0)
(1.00148 -0.00470029 0)
(0.991219 0.00450551 0)
(0.993125 0.00252646 0)
(0.988583 0.00756657 0)
(0.984345 0.0065553 0)
(0.98268 0.0109527 0)
(0.981503 0.00963182 0)
(0.986036 -0.000413392 0)
(1.00805 0.00147417 0)
(0.995698 0.00618772 0)
(1.00664 -0.00745894 0)
(0.987773 -0.0066423 0)
(1.00652 0.00270155 0)
(0.993953 0.0073955 0)
(0.995685 0.00751173 0)
(1.00153 -0.000981847 0)
(0.998615 -0.00292787 0)
(0.997941 -0.00784317 0)
(0.994536 -0.00642627 0)
(0.994562 0.00315777 0)
(1.00017 -0.00459589 0)
(0.991487 0.00464457 0)
(0.993438 0.00268525 0)
(0.989975 0.00766527 0)
(0.986419 0.00694609 0)
(0.985668 0.0108011 0)
(0.984985 0.0102513 0)
(0.993904 -0.000374509 0)
(1.00137 0.00142045 0)
(1.00004 0.00613924 0)
(1.00651 -0.00737066 0)
(0.992492 -0.00654466 0)
(0.999407 0.00257797 0)
(0.995509 0.00747273 0)
(0.998518 0.0074109 0)
(1.00426 -0.000990191 0)
(1.00061 -0.00293947 0)
(0.999328 -0.00763952 0)
(0.994738 -0.00639021 0)
(0.994355 0.00303667 0)
(0.99862 -0.00447864 0)
(0.991404 0.00471517 0)
(0.9935 0.00285223 0)
(0.99131 0.00767168 0)
(0.988498 0.00732228 0)
(0.988615 0.0105858 0)
(0.988424 0.0108309 0)
(0.997837 -0.000341474 0)
(0.998561 0.00138218 0)
(1.00216 0.00604693 0)
(1.00653 -0.00728516 0)
(0.994909 -0.00637691 0)
(0.995777 0.00247914 0)
(0.995709 0.00744589 0)
(1.00061 0.00727916 0)
(1.006 -0.000985595 0)
(1.00195 -0.00293324 0)
(1.00022 -0.00739578 0)
(0.994894 -0.00632464 0)
(0.994232 0.00294838 0)
(0.997169 -0.00434012 0)
(0.991162 0.00471642 0)
(0.993348 0.00303222 0)
(0.992319 0.00756162 0)
(0.990214 0.00769111 0)
(0.991064 0.0103209 0)
(0.991294 0.0113195 0)
(0.999459 -0.000314127 0)
(0.997669 0.00134963 0)
(1.00323 0.00593621 0)
(1.00635 -0.00719806 0)
(0.996022 -0.00616889 0)
(0.994091 0.002397 0)
(0.995702 0.00735585 0)
(1.00195 0.00711999 0)
(1.00703 -0.000969466 0)
(1.00268 -0.0029137 0)
(1.00072 -0.00712342 0)
(0.995014 -0.0062355 0)
(0.994173 0.00288424 0)
(0.996092 -0.00417414 0)
(0.990943 0.00465802 0)
(0.993155 0.0032211 0)
(0.992991 0.0073531 0)
(0.991449 0.00804993 0)
(0.992852 0.0100287 0)
(0.993411 0.0116864 0)
(0.999933 -0.000289909 0)
(0.997536 0.00131544 0)
(1.00382 0.00582067 0)
(1.00603 -0.0071034 0)
(0.996388 -0.00594408 0)
(0.993455 0.00232027 0)
(0.995852 0.00722875 0)
(1.00277 0.00694248 0)
(1.00758 -0.000943673 0)
(1.00298 -0.00288297 0)
(1.00094 -0.00683288 0)
(0.995128 -0.00612747 0)
(0.994173 0.00282915 0)
(0.995454 -0.00397619 0)
(0.990873 0.00454537 0)
(0.993054 0.00342645 0)
(0.993457 0.00707345 0)
(0.992279 0.00838483 0)
(0.994056 0.00974841 0)
(0.994848 0.0119188 0)
(0.999935 -0.000266461 0)
(0.997627 0.00127587 0)
(1.00421 0.00570534 0)
(1.00569 -0.00699745 0)
(0.996366 -0.0057128 0)
(0.993343 0.00224113 0)
(0.996175 0.00707874 0)
(1.00325 0.00675664 0)
(1.00784 -0.0009093 0)
(1.00302 -0.00284075 0)
(1.00096 -0.0065332 0)
(0.995251 -0.00600406 0)
(0.994228 0.00276917 0)
(0.995173 -0.00374224 0)
(0.990985 0.00438245 0)
(0.99308 0.00365706 0)
(0.993838 0.00674906 0)
(0.992835 0.00868035 0)
(0.994844 0.00952135 0)
(0.995786 0.0120127 0)
(0.999805 -0.00024235 0)
(0.997738 0.00122983 0)
(1.00447 0.00559036 0)
(1.00541 -0.00687776 0)
(0.996205 -0.00548048 0)
(0.993449 0.0021545 0)
(0.996575 0.0069134 0)
(1.0035 0.00656963 0)
(1.00794 -0.000869161 0)
(1.00293 -0.00278518 0)
(1.0009 -0.00623222 0)
(0.995388 -0.00586667 0)
(0.99432 0.00269618 0)
(0.995117 -0.00347467 0)
(0.991242 0.00417822 0)
(0.993202 0.00390841 0)
(0.994194 0.00641099 0)
(0.993227 0.0089214 0)
(0.995365 0.00937478 0)
(0.996403 0.0119743 0)
(0.999688 -0.000216999 0)
(0.997815 0.00117773 0)
(1.00464 0.00547434 0)
(1.00517 -0.00674411 0)
(0.996064 -0.00524951 0)
(0.993618 0.00205986 0)
(0.99696 0.00673582 0)
(1.0036 0.00638593 0)
(1.00793 -0.000827092 0)
(1.0028 -0.00271518 0)
(1.0008 -0.00593423 0)
(0.995547 -0.00571529 0)
(0.994436 0.00260453 0)
(0.99517 -0.0031797 0)
(0.99158 0.00394224 0)
(0.993363 0.00417249 0)
(0.994535 0.00609287 0)
(0.993522 0.00909307 0)
(0.995719 0.00931309 0)
(0.996831 0.0118255 0)
(0.999629 -0.000190468 0)
(0.997859 0.0011209 0)
(1.00473 0.00535589 0)
(1.00497 -0.00659742 0)
(0.996013 -0.00502097 0)
(0.993789 0.00196035 0)
(0.997278 0.0065463 0)
(1.00359 0.00620831 0)
(1.00785 -0.000787227 0)
(1.00265 -0.00263054 0)
(1.00071 -0.00564163 0)
(0.99573 -0.00554793 0)
(0.994559 0.00249004 0)
(0.995259 -0.00286043 0)
(0.991947 0.00368658 0)
(0.993525 0.0044354 0)
(0.994853 0.0058148 0)
(0.993762 0.0091898 0)
(0.995966 0.00932878 0)
(0.997154 0.0116042 0)
(0.999624 -0.000163251 0)
(0.997889 0.00106126 0)
(1.00475 0.00523361 0)
(1.00479 -0.00643901 0)
(0.996059 -0.00479566 0)
(0.993959 0.00186069 0)
(0.997514 0.00634443 0)
(1.0035 0.00603837 0)
(1.00772 -0.000753976 0)
(1.0025 -0.0025306 0)
(1.00064 -0.00535656 0)
(0.995938 -0.0053651 0)
(0.994683 0.00235601 0)
(0.995348 -0.00252241 0)
(0.992311 0.00342362 0)
(0.99367 0.00468134 0)
(0.995142 0.00558713 0)
(0.993978 0.00921625 0)
(0.996144 0.0094025 0)
(0.997423 0.0113437 0)
(0.999652 -0.000135859 0)
(0.997923 0.00100033 0)
(1.00471 0.00510692 0)
(1.00461 -0.00627071 0)
(0.996173 -0.00457431 0)
(0.994137 0.00176485 0)
(0.997683 0.00613061 0)
(1.00336 0.00587638 0)
(1.00756 -0.000728514 0)
(1.00236 -0.00241837 0)
(1.00058 -0.00507936 0)
(0.996168 -0.00516864 0)
(0.994804 0.00221211 0)
(0.995427 -0.00217552 0)
(0.99266 0.00316705 0)
(0.993802 0.00489827 0)
(0.995404 0.00541825 0)
(0.994194 0.0091803 0)
(0.996282 0.00950445 0)
(0.997669 0.011063 0)
(0.999688 -0.000108792 0)
(0.997973 0.000939267 0)
(1.00462 0.00497531 0)
(1.00445 -0.00609309 0)
(0.996319 -0.00435866 0)
(0.994336 0.00167697 0)
(0.997804 0.00590356 0)
(1.00319 0.0057244 0)
(1.00737 -0.000713423 0)
(1.00223 -0.00229425 0)
(1.00052 -0.00481071 0)
(0.996415 -0.00495975 0)
(0.994919 0.00206102 0)
(0.995499 -0.00182598 0)
(0.992992 0.00293496 0)
(0.993932 0.00507856 0)
(0.995644 0.00530534 0)
(0.994426 0.00909155 0)
(0.996395 0.00961534 0)
(0.997907 0.0107818 0)
(0.999713 -8.24945e-05 0)
(0.998049 0.000879263 0)
(1.0045 0.0048378 0)
(1.00429 -0.00590516 0)
(0.996466 -0.00415133 0)
(0.99456 0.00160095 0)
(0.997896 0.00566066 0)
(1.00302 0.00558484 0)
(1.00716 -0.000710651 0)
(1.00211 -0.00215869 0)
(1.00044 -0.0045469 0)
(0.996675 -0.00474564 0)
(0.995028 0.00191433 0)
(0.995569 -0.00148473 0)
(0.99331 0.00273241 0)
(0.99407 0.00522638 0)
(0.995865 0.00523928 0)
(0.994686 0.00896057 0)
(0.996495 0.00972732 0)
(0.99814 0.0105194 0)
(0.999716 -5.73844e-05 0)
(0.998155 0.000821047 0)
(1.00436 0.00469387 0)
(1.00417 -0.00570633 0)
(0.996599 -0.00395454 0)
(0.994808 0.00153794 0)
(0.997969 0.00540347 0)
(1.00287 0.00545374 0)
(1.00693 -0.000715163 0)
(1.00201 -0.00201591 0)
(1.00034 -0.00428405 0)
(0.996945 -0.00453059 0)
(0.995133 0.00178288 0)
(0.995642 -0.00116077 0)
(0.993617 0.0025544 0)
(0.994224 0.00535041 0)
(0.996071 0.00520904 0)
(0.994975 0.00878993 0)
(0.996588 0.00982849 0)
(0.998365 0.0102856 0)
(0.999694 -3.37157e-05 0)
(0.998289 0.000765023 0)
(1.00419 0.00454312 0)
(1.00406 -0.00549674 0)
(0.996712 -0.00376799 0)
(0.995076 0.00148921 0)
(0.99803 0.00513276 0)
(1.00273 0.00533202 0)
(1.00669 -0.000728533 0)
(1.00193 -0.00186775 0)
(1.00023 -0.00401702 0)
(0.99722 -0.00432061 0)
(0.995235 0.00166843 0)
(0.995717 -0.000848083 0)
(0.993919 0.0023991 0)
(0.994395 0.00545305 0)
(0.996262 0.00520848 0)
(0.995293 0.0085818 0)
(0.996681 0.00990859 0)
(0.998573 0.0100888 0)
(0.999649 -1.1963e-05 0)
(0.998448 0.000712449 0)
(1.004 0.00438343 0)
(1.00398 -0.00527377 0)
(0.996808 -0.00359502 0)
(0.995356 0.00145709 0)
(0.998085 0.00484913 0)
(1.0026 0.00521872 0)
(1.00643 -0.000747687 0)
(1.00186 -0.00172146 0)
(1.0001 -0.00374096 0)
(0.997497 -0.00412564 0)
(0.995341 0.00157081 0)
(0.995791 -0.000542897 0)
(0.994219 0.00226599 0)
(0.994582 0.00553472 0)
(0.996439 0.00524145 0)
(0.995634 0.00834089 0)
(0.99678 0.0099602 0)
(0.998757 0.00993676 0)
(0.99959 7.4584e-06 0)
(0.998622 0.000664597 0)
(1.00379 0.00421349 0)
(1.00391 -0.00503705 0)
(0.996898 -0.0034375 0)
(0.995638 0.00143897 0)
(0.99814 0.00455497 0)
(1.00248 0.00511033 0)
(1.00617 -0.000762335 0)
(1.0018 -0.00158603 0)
(0.999965 -0.00344844 0)
(0.997768 -0.00394737 0)
(0.995461 0.00148732 0)
(0.99586 -0.000248294 0)
(0.994521 0.0021478 0)
(0.994784 0.00559145 0)
(0.996603 0.00531331 0)
(0.995991 0.00807302 0)
(0.996893 0.00996879 0)
(0.998909 0.0098291 0)
(0.999526 2.43477e-05 0)
(0.9988 0.000621898 0)
(1.00358 0.00403441 0)
(1.00383 -0.00478804 0)
(0.996993 -0.00329254 0)
(0.995911 0.00143455 0)
(0.9982 0.00425109 0)
(1.00236 0.00500693 0)
(1.0059 -0.000772205 0)
(1.00175 -0.00146573 0)
(0.999833 -0.00313442 0)
(0.998029 -0.0037744 0)
(0.995602 0.00141518 0)
(0.995921 3.92488e-05 0)
(0.99483 0.00204008 0)
(0.995002 0.00561968 0)
(0.996754 0.00542532 0)
(0.996355 0.00778891 0)
(0.997029 0.00991908 0)
(0.999026 0.00976574 0)
(0.999468 3.81922e-05 0)
(0.998971 0.000584672 0)
(1.00338 0.00384449 0)
(1.00375 -0.00452318 0)
(0.997102 -0.00316306 0)
(0.996168 0.0014417 0)
(0.99827 0.00394444 0)
(1.00223 0.00490089 0)
(1.00564 -0.000772465 0)
(1.00171 -0.00136713 0)
(0.999709 -0.00280015 0)
(0.998275 -0.00360616 0)
(0.995771 0.00134211 0)
(0.995973 0.000335708 0)
(0.995145 0.00194799 0)
(0.995238 0.00561598 0)
(0.996894 0.00557294 0)
(0.996717 0.00750467 0)
(0.997194 0.0097981 0)
(0.99911 0.00974749 0)
(0.999424 4.90692e-05 0)
(0.999127 0.000554035 0)
(1.00319 0.00364383 0)
(1.00364 -0.00424434 0)
(0.99723 -0.00304659 0)
(0.996407 0.00145739 0)
(0.998351 0.00363747 0)
(1.0021 0.00478401 0)
(1.00539 -0.000749189 0)
(1.00166 -0.00130001 0)
(0.999596 -0.00245235 0)
(0.998503 -0.00343732 0)
(0.995971 0.00125834 0)
(0.99602 0.000648178 0)
(0.995464 0.00188128 0)
(0.995497 0.00557287 0)
(0.997025 0.00574507 0)
(0.997068 0.00724188 0)
(0.997397 0.00959123 0)
(0.999167 0.00976178 0)
(0.999399 5.6074e-05 0)
(0.999263 0.000531671 0)
(1.00301 0.00343257 0)
(1.00352 -0.00395435 0)
(0.997376 -0.00293957 0)
(0.99663 0.00148242 0)
(0.998443 0.00333623 0)
(1.00197 0.00465081 0)
(1.00515 -0.000695839 0)
(1.00162 -0.00125921 0)
(0.999494 -0.00209854 0)
(0.998713 -0.00325196 0)
(0.996202 0.00116199 0)
(0.996069 0.000967808 0)
(0.995783 0.00184865 0)
(0.995783 0.00548423 0)
(0.997152 0.00592772 0)
(0.997397 0.00702845 0)
(0.997641 0.00929902 0)
(0.999214 0.00977089 0)
(0.999392 5.90012e-05 0)
(0.99938 0.000518711 0)
(1.00286 0.00320768 0)
(1.00337 -0.00365383 0)
(0.997537 -0.00284372 0)
(0.996839 0.0015083 0)
(0.998543 0.00305027 0)
(1.00184 0.004496 0)
(1.00491 -0.0006138 0)
(1.00158 -0.00123727 0)
(0.999404 -0.0017446 0)
(0.998902 -0.00303959 0)
(0.996461 0.00105404 0)
(0.996126 0.00128838 0)
(0.996093 0.0018624 0)
(0.996099 0.00535092 0)
(0.997282 0.00609912 0)
(0.997696 0.00687846 0)
(0.997919 0.00894418 0)
(0.999272 0.00972266 0)
(0.999399 5.8541e-05 0)
(0.999479 0.000515089 0)
(1.00272 0.00297087 0)
(1.00321 -0.00334773 0)
(0.997704 -0.00275049 0)
(0.997041 0.00152805 0)
(0.998648 0.00278561 0)
(1.0017 0.00430934 0)
(1.00468 -0.000504946 0)
(1.00155 -0.00123069 0)
(0.999323 -0.00140645 0)
(0.99907 -0.00279528 0)
(0.996743 0.000940717 0)
(0.996197 0.0015993 0)
(0.996388 0.00192804 0)
(0.996442 0.00518067 0)
(0.997423 0.00623906 0)
(0.997958 0.00679244 0)
(0.99822 0.00856408 0)
(0.999365 0.00957409 0)
(0.999416 5.27371e-05 0)
(0.999563 0.000522207 0)
(1.00259 0.00272632 0)
(1.00305 -0.00303868 0)
(0.997872 -0.00266045 0)
(0.997237 0.00153766 0)
(0.998754 0.00255145 0)
(1.00157 0.00409149 0)
(1.00444 -0.000376769 0)
(1.00152 -0.00122867 0)
(0.999254 -0.00108993 0)
(0.999219 -0.00252094 0)
(0.997043 0.000828023 0)
(0.996288 0.00188984 0)
(0.996663 0.00204559 0)
(0.996807 0.00498647 0)
(0.997584 0.00633054 0)
(0.998183 0.00676096 0)
(0.998523 0.00820368 0)
(0.999504 0.00931659 0)
(0.99944 4.30366e-05 0)
(0.999636 0.000538098 0)
(1.00248 0.00247525 0)
(1.00289 -0.00273179 0)
(0.998037 -0.00256909 0)
(0.997429 0.00152875 0)
(0.99886 0.00235436 0)
(1.00145 0.00384762 0)
(1.00421 -0.000237929 0)
(1.0015 -0.00121891 0)
(0.999197 -0.000801761 0)
(0.999347 -0.00221828 0)
(0.997357 0.000725874 0)
(0.996401 0.0021513 0)
(0.996913 0.00220599 0)
(0.997185 0.0047807 0)
(0.997772 0.00636016 0)
(0.998377 0.00676465 0)
(0.998811 0.00790129 0)
(0.999686 0.00898904 0)
(0.999468 2.94533e-05 0)
(0.9997 0.000562644 0)
(1.00237 0.00221878 0)
(1.00273 -0.002432 0)
(0.998196 -0.00246367 0)
(0.997618 0.00149542 0)
(0.998963 0.00219636 0)
(1.00134 0.0035821 0)
(1.00398 -9.97175e-05 0)
(1.00149 -0.00118953 0)
(0.999154 -0.000541746 0)
(0.999457 -0.0018887 0)
(0.997681 0.000644585 0)
(0.99654 0.00238355 0)
(0.997139 0.00240136 0)
(0.997569 0.0045786 0)
(0.997992 0.00632846 0)
(0.998551 0.00677881 0)
(0.999073 0.00766321 0)
(0.999895 0.00864393 0)
(0.999497 1.09283e-05 0)
(0.999756 0.000596923 0)
(1.00227 0.00196159 0)
(1.00257 -0.00214619 0)
(0.998348 -0.00234174 0)
(0.997805 0.0014345 0)
(0.999062 0.00207196 0)
(1.00123 0.00330912 0)
(1.00375 2.59811e-05 0)
(1.00148 -0.00114078 0)
(0.999128 -0.000302371 0)
(0.999549 -0.00153831 0)
(0.998012 0.000585213 0)
(0.996707 0.00258204 0)
(0.997338 0.00262386 0)
(0.997947 0.00438682 0)
(0.998245 0.00623969 0)
(0.998715 0.00678553 0)
(0.999304 0.00747071 0)
(1.00011 0.00832277 0)
(0.999526 -1.09121e-05 0)
(0.999804 0.000636728 0)
(1.00217 0.0017112 0)
(1.00242 -0.00188515 0)
(0.998493 -0.00219764 0)
(0.997989 0.00134892 0)
(0.999155 0.00197348 0)
(1.00113 0.00304152 0)
(1.00353 0.000139108 0)
(1.00149 -0.00107451 0)
(0.999119 -8.05731e-05 0)
(0.999624 -0.00116969 0)
(0.998346 0.000554532 0)
(0.996905 0.0027362 0)
(0.997513 0.00286414 0)
(0.998311 0.00421317 0)
(0.998532 0.0060947 0)
(0.99888 0.00678106 0)
(0.999509 0.00730436 0)
(1.00032 0.0080379 0)
(0.999556 -3.62373e-05 0)
(0.999845 0.000681313 0)
(1.00208 0.00146623 0)
(1.00228 -0.00165429 0)
(0.998629 -0.00202844 0)
(0.99817 0.00124628 0)
(0.999244 0.00189243 0)
(1.00104 0.00279557 0)
(1.00332 0.000231949 0)
(1.00149 -0.000989657 0)
(0.999131 0.000123236 0)
(0.999684 -0.000789885 0)
(0.998677 0.000555899 0)
(0.997135 0.00283961 0)
(0.997667 0.00311222 0)
(0.998651 0.00407518 0)
(0.998851 0.00589575 0)
(0.999053 0.00676052 0)
(0.999689 0.00716124 0)
(1.00052 0.00777258 0)
(0.999586 -6.3915e-05 0)
(0.999879 0.000726711 0)
(1.00199 0.00123376 0)
(1.00215 -0.00146089 0)
(0.998757 -0.00183917 0)
(0.998347 0.00113504 0)
(0.999328 0.00182076 0)
(1.00095 0.00258165 0)
(1.00311 0.000309066 0)
(1.00151 -0.000883159 0)
(0.999164 0.000313237 0)
(0.999731 -0.000420631 0)
(0.998999 0.000570357 0)
(0.997398 0.00288165 0)
(0.997808 0.00335121 0)
(0.998958 0.00398656 0)
(0.999198 0.00565236 0)
(0.999247 0.0067075 0)
(0.999845 0.00705154 0)
(1.00071 0.00751296 0)
(0.999615 -9.29208e-05 0)
(0.999905 0.000769363 0)
(1.0019 0.00102151 0)
(1.00202 -0.00130501 0)
(0.998876 -0.00163622 0)
(0.998518 0.00102459 0)
(0.99941 0.00175098 0)
(1.00086 0.00240322 0)
(1.00292 0.000389936 0)
(1.00153 -0.000761019 0)
(0.999216 0.00050183 0)
(0.999763 -6.7197e-05 0)
(0.999305 0.000599541 0)
(0.997696 0.00286691 0)
(0.997947 0.00356797 0)
(0.999224 0.0039575 0)
(0.999562 0.00538431 0)
(0.999472 0.00659637 0)
(0.999982 0.00697267 0)
(1.00087 0.00726735 0)
(0.999643 -0.000123272 0)
(0.999924 0.000809083 0)
(1.0018 0.000830979 0)
(1.00191 -0.00118838 0)
(0.998987 -0.00142388 0)
(0.998682 0.000919818 0)
(0.999491 0.00168143 0)
(1.00078 0.00226251 0)
(1.00273 0.000475756 0)
(1.00156 -0.000635835 0)
(0.99929 0.000673604 0)
(0.999782 0.000275066 0)
(0.999588 0.000655113 0)
(0.998024 0.00280572 0)
(0.998094 0.00374633 0)
(0.999445 0.00398648 0)
(0.999927 0.00512582 0)
(0.999738 0.0064186 0)
(1.00011 0.00690762 0)
(1.00101 0.00706629 0)
(0.999671 -0.00015336 0)
(0.999937 0.000842239 0)
(1.00171 0.000666176 0)
(1.0018 -0.00110646 0)
(0.999091 -0.00121602 0)
(0.998837 0.000825112 0)
(0.999574 0.00160967 0)
(1.00071 0.00215575 0)
(1.00255 0.000566427 0)
(1.0016 -0.000508262 0)
(0.999385 0.000816229 0)
(0.999793 0.000607781 0)
(0.999843 0.000743348 0)
(0.998377 0.00271052 0)
(0.998263 0.00387115 0)
(0.999624 0.00405645 0)
(1.00027 0.0049065 0)
(1.00004 0.00618709 0)
(1.00025 0.00682353 0)
(1.00111 0.00691931 0)
(0.999698 -0.000181482 0)
(0.999943 0.000865185 0)
(1.00161 0.000529839 0)
(1.00171 -0.00105409 0)
(0.99919 -0.00101806 0)
(0.998983 0.000744749 0)
(0.999658 0.00153304 0)
(1.00064 0.00208208 0)
(1.00238 0.000674337 0)
(1.00164 -0.000380103 0)
(0.999501 0.000929308 0)
(0.9998 0.00092408 0)
(1.00006 0.000871006 0)
(0.998746 0.00260358 0)
(0.998462 0.00393667 0)
(0.999773 0.00414355 0)
(1.00059 0.00473622 0)
(1.00038 0.00592565 0)
(1.00041 0.00669569 0)
(1.00119 0.00680411 0)
(0.999723 -0.000208367 0)
(0.999944 0.000878414 0)
(1.00151 0.000425219 0)
(1.00163 -0.00103061 0)
(0.999285 -0.00083443 0)
(0.999119 0.000680285 0)
(0.999746 0.00144161 0)
(1.00059 0.00203617 0)
(1.00221 0.000809315 0)
(1.00167 -0.000246393 0)
(0.999639 0.00101137 0)
(0.999811 0.0012132 0)
(1.00025 0.00103473 0)
(0.999119 0.00249998 0)
(0.998693 0.00394309 0)
(0.9999 0.00422811 0)
(1.00087 0.00461514 0)
(1.00073 0.00565921 0)
(1.00062 0.00652448 0)
(1.00126 0.00669506 0)
(0.999747 -0.000229924 0)
(0.999941 0.00087586 0)
(1.0014 0.000351948 0)
(1.00155 -0.0010254 0)
(0.999377 -0.000678175 0)
(0.999242 0.000637754 0)
(0.999838 0.00133148 0)
(1.00054 0.00200544 0)
(1.00204 0.000971261 0)
(1.0017 -9.83312e-05 0)
(0.999796 0.00106227 0)
(0.999832 0.00146328 0)
(1.0004 0.00123119 0)
(0.999486 0.00241576 0)
(0.998957 0.00389766 0)
(1.00002 0.00429411 0)
(1.0011 0.00453261 0)
(1.00108 0.00539793 0)
(1.00086 0.00631362 0)
(1.00133 0.00657397 0)
(0.99977 -0.00024835 0)
(0.999935 0.000862082 0)
(1.00129 0.000305791 0)
(1.00148 -0.00102988 0)
(0.99947 -0.000550721 0)
(0.999352 0.000623202 0)
(0.999934 0.00121379 0)
(1.00052 0.00197093 0)
(1.00187 0.00115752 0)
(1.00172 6.22803e-05 0)
(0.999967 0.00108622 0)
(0.99987 0.00166394 0)
(1.00052 0.00144826 0)
(0.999834 0.00236686 0)
(0.99925 0.00381604 0)
(1.00014 0.00433327 0)
(1.0013 0.00448236 0)
(1.00142 0.00515442 0)
(1.00113 0.00607247 0)
(1.00143 0.00643403 0)
(0.999791 -0.000259865 0)
(0.999927 0.000827412 0)
(1.00117 0.000293631 0)
(1.00141 -0.00104416 0)
(0.999566 -0.000439257 0)
(0.999449 0.000636734 0)
(1.00003 0.00110577 0)
(1.00051 0.00191547 0)
(1.00172 0.00133762 0)
(1.00172 0.000244497 0)
(1.00015 0.00110626 0)
(0.999932 0.00181629 0)
(1.00062 0.00166322 0)
(1.00015 0.00235578 0)
(0.999563 0.00371558 0)
(1.00028 0.00433926 0)
(1.00145 0.00445704 0)
(1.00174 0.00493928 0)
(1.00143 0.00580788 0)
(1.00156 0.00626397 0)
(0.99981 -0.000264637 0)
(0.99992 0.0007753 0)
(1.00105 0.000303842 0)
(1.00135 -0.00104708 0)
(0.999667 -0.00034846 0)
(0.999534 0.000693617 0)
(1.00012 0.00103682 0)
(1.00053 0.00181623 0)
(1.00158 0.00147645 0)
(1.00169 0.000444208 0)
(1.00032 0.00113102 0)
(1.00002 0.00191634 0)
(1.0007 0.00185822 0)
(1.00044 0.00237507 0)
(0.999886 0.00361259 0)
(1.00043 0.00431073 0)
(1.00158 0.0044437 0)
(1.00201 0.00476112 0)
(1.00175 0.00553305 0)
(1.00172 0.00605897 0)
(0.999828 -0.000264387 0)
(0.999913 0.00071118 0)
(1.00092 0.000331951 0)
(1.00128 -0.00102359 0)
(0.999777 -0.000286792 0)
(0.999612 0.000786333 0)
(1.0002 0.0010089 0)
(1.00056 0.00167172 0)
(1.00145 0.00156521 0)
(1.00166 0.000648067 0)
(1.00049 0.00116737 0)
(1.00012 0.00197391 0)
(1.00078 0.0020252 0)
(1.0007 0.00241075 0)
(1.00021 0.00351181 0)
(1.0006 0.00425153 0)
(1.00168 0.00442867 0)
(1.00224 0.00462422 0)
(1.00207 0.00526899 0)
(1.00192 0.00582815 0)
(0.999844 -0.000255024 0)
(0.999911 0.000629236 0)
(1.0008 0.000374759 0)
(1.00122 -0.000972114 0)
(0.999896 -0.000254786 0)
(0.999686 0.000874852 0)
(1.00025 0.00102108 0)
(1.0006 0.00152593 0)
(1.00136 0.00160499 0)
(1.00162 0.000850317 0)
(1.00065 0.00123027 0)
(1.00024 0.00201412 0)
(1.00085 0.00216229 0)
(1.00093 0.00245716 0)
(1.00053 0.00341809 0)
(1.0008 0.00417048 0)
(1.00177 0.00440391 0)
(1.00243 0.00452059 0)
(1.00237 0.00502732 0)
(1.00215 0.00558092 0)
(0.999859 -0.000239878 0)
(0.999912 0.000537176 0)
(1.00068 0.000419702 0)
(1.00115 -0.000884601 0)
(1.00002 -0.000251858 0)
(0.999764 0.00093662 0)
(1.00029 0.00107226 0)
(1.00064 0.00141058 0)
(1.0013 0.00160311 0)
(1.00157 0.00103281 0)
(1.00079 0.00132037 0)
(1.00037 0.00204809 0)
(1.00093 0.00226724 0)
(1.00113 0.00250288 0)
(1.00083 0.00333321 0)
(1.001 0.00407283 0)
(1.00187 0.00436617 0)
(1.00257 0.00444315 0)
(1.00264 0.00481655 0)
(1.00239 0.00532765 0)
(0.999872 -0.00021883 0)
(0.999919 0.00043892 0)
(1.00058 0.000461076 0)
(1.00107 -0.00076602 0)
(1.00015 -0.000267065 0)
(0.999852 0.000967499 0)
(1.00032 0.0011492 0)
(1.00067 0.0013321 0)
(1.00126 0.00157158 0)
(1.00154 0.0011824 0)
(1.00091 0.00142467 0)
(1.0005 0.00208379 0)
(1.00101 0.00235202 0)
(1.00131 0.00253896 0)
(1.00112 0.00325125 0)
(1.00122 0.00395679 0)
(1.00197 0.00430311 0)
(1.00269 0.00437845 0)
(1.00287 0.00463873 0)
(1.00264 0.00507477 0)
(0.999883 -0.000193964 0)
(0.99993 0.000343604 0)
(1.00048 0.000488256 0)
(1.00099 -0.00062013 0)
(1.00028 -0.000286976 0)
(0.999956 0.000954872 0)
(1.00033 0.00124053 0)
(1.00069 0.00130235 0)
(1.00124 0.0015322 0)
(1.00152 0.00128994 0)
(1.00103 0.00152156 0)
(1.00064 0.00212206 0)
(1.00108 0.00242674 0)
(1.00146 0.00257324 0)
(1.00139 0.0031732 0)
(1.00145 0.003833 0)
(1.00208 0.00421418 0)
(1.00278 0.00431431 0)
(1.00305 0.00449716 0)
(1.00289 0.00483512 0)
(0.999894 -0.000166826 0)
(0.999946 0.000256836 0)
(1.00041 0.000498819 0)
(1.0009 -0.000457053 0)
(1.0004 -0.00028797 0)
(1.00008 0.000896856 0)
(1.00035 0.00132269 0)
(1.0007 0.00132183 0)
(1.00123 0.00150311 0)
(1.00152 0.00135937 0)
(1.00114 0.00160371 0)
(1.00077 0.00215737 0)
(1.00116 0.00248999 0)
(1.00159 0.00261066 0)
(1.00163 0.0030991 0)
(1.00169 0.00370455 0)
(1.00221 0.00410396 0)
(1.00286 0.00423376 0)
(1.00319 0.00438241 0)
(1.00311 0.00461998 0)
(0.999904 -0.000139967 0)
(0.999965 0.000184437 0)
(1.00035 0.000490445 0)
(1.00081 -0.000286775 0)
(1.0005 -0.000259542 0)
(1.00021 0.000808989 0)
(1.00038 0.00137693 0)
(1.00069 0.00137461 0)
(1.00122 0.00149226 0)
(1.00153 0.00140277 0)
(1.00126 0.00166701 0)
(1.00091 0.00218683 0)
(1.00123 0.00254292 0)
(1.0017 0.00265151 0)
(1.00185 0.0030356 0)
(1.00192 0.0035706 0)
(1.00236 0.00397949 0)
(1.00295 0.00412924 0)
(1.0033 0.00427417 0)
(1.00329 0.00443317 0)
(0.999913 -0.000114743 0)
(0.999986 0.000129838 0)
(1.00031 0.000465078 0)
(1.00073 -0.000120377 0)
(1.00058 -0.000198295 0)
(1.00036 0.000704758 0)
(1.00044 0.00139149 0)
(1.00069 0.00144348 0)
(1.0012 0.00151271 0)
(1.00155 0.00143542 0)
(1.00137 0.00169938 0)
(1.00105 0.00220023 0)
(1.00132 0.00258059 0)
(1.00179 0.0026904 0)
(1.00204 0.00299077 0)
(1.00214 0.00343987 0)
(1.00251 0.00384779 0)
(1.00304 0.00401178 0)
(1.0034 0.00415985 0)
(1.00344 0.00427654 0)
(0.999922 -9.24866e-05 0)
(1.00001 9.66658e-05 0)
(1.00029 0.000427071 0)
(1.00065 3.39778e-05 0)
(1.00065 -9.98902e-05 0)
(1.0005 0.000605991 0)
(1.00051 0.00135625 0)
(1.00068 0.00150809 0)
(1.00118 0.00156498 0)
(1.00156 0.00147601 0)
(1.00149 0.00171415 0)
(1.0012 0.00219217 0)
(1.00141 0.00260046 0)
(1.00187 0.00272181 0)
(1.0022 0.00295949 0)
(1.00234 0.00332029 0)
(1.00267 0.00370434 0)
(1.00314 0.00388332 0)
(1.00349 0.00402982 0)
(1.00355 0.00413684 0)
(0.999931 -7.45648e-05 0)
(1.00003 8.66092e-05 0)
(1.00029 0.000383279 0)
(1.00059 0.000166054 0)
(1.00069 2.75757e-05 0)
(1.00064 0.000535453 0)
(1.00062 0.00128009 0)
(1.0007 0.00155271 0)
(1.00116 0.00163252 0)
(1.00157 0.00152584 0)
(1.0016 0.00172813 0)
(1.00136 0.00216095 0)
(1.00152 0.00259651 0)
(1.00194 0.00274336 0)
(1.00232 0.00293686 0)
(1.00252 0.00322145 0)
(1.00282 0.00356041 0)
(1.00324 0.00374593 0)
(1.00357 0.00388786 0)
(1.00364 0.00399652 0)
(0.999939 -6.06209e-05 0)
(1.00004 9.41603e-05 0)
(1.0003 0.000341617 0)
(1.00055 0.00026586 0)
(1.00071 0.000167348 0)
(1.00076 0.00050272 0)
(1.00073 0.0011876 0)
(1.00074 0.0015641 0)
(1.00114 0.00170506 0)
(1.00157 0.00158892 0)
(1.0017 0.0017463 0)
(1.00153 0.00211914 0)
(1.00164 0.00256119 0)
(1.00202 0.00274514 0)
(1.00243 0.00291512 0)
(1.00268 0.00313753 0)
(1.00297 0.00342975 0)
(1.00335 0.00360629 0)
(1.00366 0.00374298 0)
(1.00373 0.00384825 0)
(0.999947 -5.07268e-05 0)
(1.00005 0.000115119 0)
(1.00031 0.000307392 0)
(1.00052 0.000333765 0)
(1.00072 0.000304507 0)
(1.00085 0.000511018 0)
(1.00086 0.00109957 0)
(1.00081 0.00153475 0)
(1.00113 0.0017657 0)
(1.00156 0.00166883 0)
(1.00178 0.00177132 0)
(1.00168 0.00208233 0)
(1.00177 0.00250517 0)
(1.0021 0.00271967 0)
(1.00252 0.00288694 0)
(1.00281 0.00305914 0)
(1.00311 0.00330969 0)
(1.00345 0.00347009 0)
(1.00375 0.00359737 0)
(1.00381 0.00369304 0)
(0.999955 -4.38645e-05 0)
(1.00006 0.000143108 0)
(1.00033 0.000286179 0)
(1.00051 0.000373154 0)
(1.00073 0.00042718 0)
(1.00092 0.00055743 0)
(1.00098 0.00103189 0)
(1.0009 0.00147897 0)
(1.00114 0.00179647 0)
(1.00155 0.00174984 0)
(1.00184 0.00181008 0)
(1.00182 0.00204801 0)
(1.00191 0.00244073 0)
(1.0022 0.00267097 0)
(1.0026 0.00284633 0)
(1.00292 0.00298575 0)
(1.00323 0.00319384 0)
(1.00354 0.00333841 0)
(1.00383 0.0034534 0)
(1.00388 0.00353723 0)
(0.999963 -3.86156e-05 0)
(1.00006 0.000171677 0)
(1.00034 0.000280962 0)
(1.00051 0.000394538 0)
(1.00074 0.000526981 0)
(1.00097 0.00062553 0)
(1.00108 0.00099303 0)
(1.001 0.00141478 0)
(1.00118 0.00179875 0)
(1.00154 0.00181477 0)
(1.00187 0.00186607 0)
(1.00194 0.00202456 0)
(1.00205 0.00237048 0)
(1.0023 0.00260467 0)
(1.00268 0.00278633 0)
(1.00302 0.00291003 0)
(1.00333 0.00308104 0)
(1.00363 0.00320584 0)
(1.0039 0.00331167 0)
(1.00394 0.0033834 0)
(0.99997 -3.3461e-05 0)
(1.00006 0.000197319 0)
(1.00035 0.000289478 0)
(1.00052 0.000408477 0)
(1.00075 0.000602167 0)
(1.001 0.000700816 0)
(1.00117 0.00098799 0)
(1.00112 0.00135325 0)
(1.00124 0.00177426 0)
(1.00154 0.0018563 0)
(1.0019 0.00192057 0)
(1.00203 0.00202347 0)
(1.00218 0.0023047 0)
(1.00241 0.00252612 0)
(1.00277 0.00271176 0)
(1.0031 0.00282491 0)
(1.00342 0.00297366 0)
(1.0037 0.00307417 0)
(1.00396 0.00316983 0)
(1.004 0.00323079 0)
(0.999976 -2.74812e-05 0)
(1.00006 0.000218131 0)
(1.00036 0.000309534 0)
(1.00054 0.000420815 0)
(1.00078 0.000653929 0)