/*--------------------------------*- C++ -*----------------------------------*\
| =========                 |                                                 |
| \\      /  F ield         | OpenFOAM: The Open Source CFD Toolbox           |
|  \\    /   O peration     | Version:  v1812                                 |
|   \\  /    A nd           | Web:      www.OpenFOAM.com                      |
|    \\/     M anipulation  |                                                 |
\*---------------------------------------------------------------------------*/
FoamFile
{
    version     2.0;
    format      ascii;
    class       volScalarField;
    location    "0.5";
    object      p;
}
// * * * * * * * * * * * * * * * * * * * * * * * * * * * * * * * * * * * * * //

dimensions      [0 2 -2 0 0 0 0];


internalField   nonuniform List<scalar> 
9600
(
1.13514e-10
0.00444951
0.00432074
0.00306825
0.0030615
0.00360415
0.00392168
0.00294442
0.00392575
0.00320037
0.00263523
0.00264262
0.00185496
0.00273941
0.00199315
0.00366393
0.00354046
0.00515863
0.00599956
0.00761382
3.76647e-07
0.00444834
0.00432439
0.00306786
0.0030655
0.00360386
0.00391658
0.00294799
0.00392792
0.00319255
0.00269927
0.00263296
0.00189634
0.00272429
0.00201123
0.00364156
0.00356052
0.00511712
0.00601672
0.00735967
1.42762e-06
0.00444644
0.0043289
0.00306706
0.0030705
0.0036023
0.00391076
0.00295393
0.00392392
0.00318493
0.00274839
0.00261734
0.00193254
0.00270493
0.00203528
0.0036159
0.00358515
0.00505693
0.00602265
0.00703479
4.27483e-06
0.00444422
0.00433302
0.00306577
0.00307581
0.00360099
0.00390463
0.00296052
0.00391503
0.0031765
0.00279195
0.00259691
0.00197414
0.00268494
0.00206347
0.00358982
0.00360749
0.00498989
0.00599994
0.00673461
9.86481e-06
0.00444147
0.00433651
0.00306391
0.00308219
0.00359986
0.00389749
0.00296801
0.00390169
0.00316734
0.00283258
0.00257383
0.00202288
0.00266431
0.00209414
0.00356224
0.00362742
0.00491517
0.00595474
0.00646861
1.85104e-05
0.00443769
0.00433901
0.0030617
0.00308996
0.00359856
0.00388946
0.00297596
0.00388606
0.00315782
0.0028709
0.00255061
0.00207718
0.00264396
0.00212663
0.0035338
0.00364463
0.00483446
0.00589193
0.00622774
2.99435e-05
0.00443258
0.00434052
0.00305936
0.00309905
0.00359726
0.00388076
0.00298382
0.00386877
0.00314785
0.0029075
0.00252858
0.00213471
0.00262556
0.00215982
0.00350627
0.00365806
0.00475144
0.00581105
0.00600329
4.35895e-05
0.00442609
0.00434124
0.00305703
0.00310932
0.0035962
0.00387145
0.00299124
0.00385064
0.00313735
0.00294314
0.00250832
0.00219383
0.00260986
0.00219281
0.00348155
0.00366576
0.0046688
0.00571111
0.00579056
5.88468e-05
0.00441833
0.00434147
0.00305476
0.00312064
0.00359549
0.00386156
0.00299811
0.00383231
0.00312642
0.00297842
0.00249013
0.00225299
0.00259719
0.00222496
0.00346038
0.00366584
0.00458892
0.00559298
0.005586
7.52536e-05
0.00440955
0.00434146
0.00305252
0.00313284
0.00359511
0.0038512
0.00300446
0.00381418
0.00311528
0.00301365
0.00247419
0.00231086
0.00258829
0.00225499
0.00344295
0.00365786
0.00451313
0.00545855
0.00538609
9.25301e-05
0.00439995
0.00434139
0.00305026
0.00314576
0.00359502
0.00384046
0.00301031
0.00379642
0.00310418
0.00304892
0.00246064
0.0023665
0.00258395
0.00228117
0.0034298
0.00364183
0.00444071
0.00531104
0.00518756
0.000110549
0.00438963
0.00434136
0.00304793
0.00315932
0.00359512
0.00382942
0.00301569
0.00377905
0.00309335
0.00308405
0.0024497
0.00241922
0.00258478
0.00230225
0.00342142
0.00361755
0.00436964
0.00515516
0.00498766
0.000129287
0.00437867
0.00434145
0.00304548
0.00317347
0.00359535
0.00381814
0.00302057
0.00376199
0.00308306
0.00311876
0.00244173
0.00246827
0.00259135
0.00231743
0.00341764
0.0035853
0.00429699
0.00499608
0.00478458
0.000148785
0.00436707
0.00434168
0.00304286
0.0031882
0.00359564
0.00380668
0.00302496
0.0037451
0.00307353
0.00315263
0.00243719
0.00251288
0.00260405
0.00232626
0.00341769
0.00354649
0.00421899
0.00483831
0.00457823
0.000169116
0.00435479
0.00434213
0.00304003
0.00320353
0.00359591
0.00379506
0.00302886
0.00372824
0.00306505
0.00318515
0.00243661
0.00255234
0.00262299
0.00232856
0.00342019
0.00350362
0.00413145
0.00468479
0.00437014
0.000190368
0.00434178
0.00434283
0.00303694
0.00321948
0.00359612
0.00378331
0.00303231
0.00371124
0.00305794
0.0032158
0.00244054
0.00258609
0.00264821
0.00232447
0.00342288
0.0034599
0.00403092
0.00453621
0.00416313
0.00021264
0.00432792
0.00434385
0.00303355
0.0032361
0.00359622
0.0037714
0.00303539
0.00369394
0.00305259
0.00324398
0.00244951
0.00261369
0.00267957
0.00231481
0.00342243
0.0034185
0.00391577
0.00439165
0.00396099
0.000236043
0.00431309
0.00434526
0.0030298
0.0032534
0.00359622
0.00375932
0.00303818
0.00367609
0.00304944
0.0032691
0.00246386
0.00263496
0.00271641
0.00230116
0.00341511
0.0033815
0.00378623
0.00424902
0.00376777
0.000260706
0.0042971
0.00434712
0.00302565
0.00327144
0.00359614
0.00374699
0.00304089
0.00365741
0.00304892
0.00329068
0.00248367
0.00265
0.00275753
0.00228583
0.00339759
0.00334948
0.00364475
0.0041052
0.00358701
0.00028677
0.00427976
0.0043495
0.00302105
0.00329023
0.00359599
0.00373425
0.00304379
0.0036376
0.00305148
0.00330842
0.00250886
0.00265923
0.00280107
0.0022714
0.00336741
0.00332174
0.00349547
0.00395713
0.00342146
0.000314398
0.00426083
0.00435249
0.00301599
0.00330977
0.00359586
0.00372092
0.00304714
0.00361626
0.00305755
0.00332221
0.00253926
0.00266355
0.00284457
0.00226001
0.00332308
0.00329676
0.00334303
0.00380255
0.00327273
0.000343772
0.00424004
0.00435616
0.00301044
0.00333002
0.0035959
0.00370678
0.00305135
0.00359299
0.00306729
0.00333223
0.00257414
0.0026642
0.00288553
0.0022528
0.00326465
0.00327251
0.00319141
0.00363978
0.00314096
0.0003751
0.0042171
0.00436055
0.00300442
0.00335093
0.00359629
0.0036915
0.0030569
0.00356747
0.00308068
0.00333888
0.00261229
0.00266279
0.00292187
0.00225008
0.0031934
0.00324688
0.00304375
0.0034678
0.00302514
0.0004086
0.00419171
0.00436571
0.00299797
0.00337237
0.00359736
0.00367462
0.00306426
0.00353957
0.00309736
0.00334297
0.00265224
0.00266093
0.0029522
0.00225158
0.00311085
0.00321774
0.00290298
0.00328654
0.00292275
0.000444512
0.00416353
0.00437168
0.00299118
0.00339413
0.00359953
0.00365571
0.00307384
0.00350937
0.00311673
0.00334584
0.00269222
0.00265949
0.0029756
0.00225654
0.0030188
0.00318321
0.00277215
0.00309667
0.00282917
0.000483092
0.00413223
0.00437841
0.00298422
0.00341593
0.00360323
0.00363427
0.00308579
0.00347728
0.00313796
0.00334909
0.00273066
0.0026587
0.0029917
0.00226387
0.00291919
0.00314187
0.00265411
0.00289972
0.00273811
0.000524611
0.00409745
0.00438588
0.00297734
0.00343737
0.00360901
0.00360986
0.00310024
0.0034437
0.00315963
0.00335432
0.0027667
0.00265828
0.00300052
0.0022724
0.00281361
0.00309254
0.00255125
0.00269862
0.0026426
0.00056935
0.0040588
0.00439396
0.00297087
0.00345785
0.00361769
0.00358223
0.00311701
0.00338878
0.00317985
0.00336274
0.00280016
0.00265733
0.00300251
0.00228133
0.0027032
0.00303392
0.00246539
0.00249794
0.00253568
0.00061755
0.00401583
0.00440247
0.00296521
0.00347667
0.00363011
0.00355129
0.00313561
0.00335354
0.00319692
0.00337487
0.00283138
0.00265458
0.00299797
0.00229054
0.00258958
0.00296439
0.00239704
0.00230387
0.00241165
0.000669471
0.00396887
0.00441112
0.00296093
0.00349309
0.00364699
0.00351721
0.00315491
0.00332236
0.00320953
0.00339063
0.00286111
0.00264847
0.00298677
0.00230076
0.00247525
0.00288233
0.00234462
0.00212368
0.00226779
0.000725451
0.00391749
0.00441937
0.00295871
0.00350619
0.00366891
0.00348053
0.00317339
0.00329643
0.00321693
0.00340905
0.00289063
0.00263771
0.00296866
0.00231287
0.00236246
0.00278644
0.00230454
0.00196457
0.00210546
0.000785761
0.00386162
0.00442658
0.0029593
0.00351509
0.00369617
0.00344235
0.00318931
0.00327729
0.00321899
0.00342831
0.00292161
0.00262187
0.00294269
0.00232033
0.00225401
0.00267644
0.0022715
0.00183256
0.00193061
0.000850615
0.00380143
0.00443193
0.00296342
0.00351925
0.00372878
0.00340408
0.00320065
0.00326588
0.00321628
0.00344615
0.0029553
0.00260162
0.00290749
0.00233634
0.00215388
0.00255336
0.00223898
0.00173147
0.00175406
0.000920243
0.00373722
0.0044344
0.00297164
0.0035183
0.00376639
0.00336754
0.00320544
0.00326228
0.00321015
0.00346
0.00299198
0.00257875
0.00286177
0.00235337
0.00206623
0.00242005
0.00219978
0.00166104
0.00158987
0.000994776
0.00366952
0.00443285
0.00298439
0.00351215
0.00380818
0.00333491
0.00320239
0.00326644
0.00320244
0.00346717
0.00303109
0.00255604
0.00280515
0.00236837
0.00199415
0.00228142
0.00214754
0.00161466
0.00145111
0.00107426
0.00359913
0.00442596
0.00300192
0.00350113
0.00385284
0.0033085
0.00319087
0.00327694
0.00319557
0.00346558
0.0030712
0.00253659
0.00273846
0.00237887
0.00193868
0.00214276
0.00207939
0.00158241
0.00134567
0.00115869
0.00352707
0.00441237
0.00302418
0.00348578
0.00389888
0.00329053
0.00317079
0.00329118
0.00319203
0.00345497
0.00310972
0.00252285
0.00266339
0.00238215
0.00190011
0.00200886
0.00199652
0.00155495
0.00127217
0.00124789
0.0034546
0.00439085
0.00305072
0.00346708
0.00394454
0.00328268
0.00314314
0.00330531
0.00319319
0.00343636
0.00314371
0.00251627
0.00258329
0.00237556
0.00187849
0.00188472
0.00190097
0.00152519
0.00122305
0.00134154
0.00338304
0.00436036
0.00308093
0.00344631
0.00398798
0.00328592
0.00310974
0.0033155
0.00319923
0.0034116
0.00317126
0.00251746
0.00250501
0.00235631
0.00187204
0.00177678
0.00179534
0.00148768
0.00119044
0.0014391
0.00331389
0.00432022
0.00311375
0.00342489
0.00402764
0.00330031
0.00307268
0.00331969
0.00320962
0.0033827
0.00319152
0.00252626
0.00242168
0.00232145
0.00187545
0.00169227
0.00168604
0.00143834
0.0011665
0.00153981
0.00324871
0.00427043
0.00314769
0.00340432
0.00406234
0.00332485
0.00303441
0.003316
0.00322324
0.00335091
0.00320385
0.00254252
0.00233962
0.00226997
0.00188219
0.00163448
0.00158237
0.00137672
0.00114275
0.00164255
0.00318896
0.00421186
0.00318088
0.00338568
0.00409128
0.00335801
0.00299719
0.00330601
0.00323911
0.00331688
0.00320761
0.00256651
0.00226362
0.00220293
0.00188499
0.00160048
0.00149507
0.00130926
0.0011117
0.00174607
0.00313604
0.00414599
0.00321119
0.00336929
0.00411433
0.00339772
0.00296261
0.00329067
0.00325637
0.00328123
0.00320161
0.0025978
0.00220148
0.00212356
0.00187641
0.00158475
0.00143119
0.00124591
0.00107152
0.00184913
0.00309102
0.00407493
0.00323654
0.00335525
0.00413218
0.00344215
0.00293417
0.00327035
0.00327529
0.00324531
0.00318407
0.00263354
0.0021628
0.00203751
0.00184967
0.00158025
0.00139133
0.00119655
0.00102938
0.00195049
0.00305447
0.00400142
0.00325526
0.00334288
0.00414559
0.00349035
0.00290598
0.00324467
0.00329795
0.00321116
0.00315273
0.00266997
0.00215088
0.00195353
0.00180259
0.001576
0.00137139
0.00116863
0.000997577
0.00204902
0.00302659
0.00392818
0.0032667
0.00333008
0.00415503
0.00354215
0.00287809
0.00321155
0.00332661
0.00318307
0.00310584
0.00270155
0.00216377
0.00188565
0.00174096
0.00156114
0.0013658
0.00116242
0.000986929
0.00214388
0.00300705
0.00385775
0.00327103
0.00331477
0.00416058
0.00359859
0.00285108
0.00316737
0.00336
0.00316906
0.00304579
0.00271556
0.00219709
0.00184588
0.00167345
0.00152982
0.00136428
0.00117212
0.00100267
0.00223445
0.00299503
0.00379251
0.00326912
0.00329465
0.00416133
0.00366109
0.00282551
0.00310884
0.00339504
0.00317622
0.00297425
0.00270333
0.00224058
0.0018389
0.00161369
0.0014837
0.00135579
0.00119116
0.00104118
0.00232033
0.00298933
0.00373414
0.00326299
0.00326688
0.00415486
0.00373069
0.00280513
0.00303195
0.00342396
0.00321021
0.00290899
0.00266395
0.00227729
0.00186016
0.00157811
0.0014318
0.00133401
0.00121047
0.00109208
0.00240144
0.00298861
0.00368363
0.00325523
0.00322975
0.00413786
0.00380715
0.00279755
0.00293462
0.003436
0.00327433
0.00286893
0.00260242
0.00229279
0.00190218
0.001576
0.00138729
0.00130006
0.00122248
0.00114653
0.00247803
0.00299148
0.00364134
0.00324858
0.00318519
0.00410639
0.00388808
0.00281081
0.00281973
0.00341674
0.00336083
0.00286913
0.00252791
0.00227852
0.00195211
0.00160711
0.00136637
0.0012622
0.00122261
0.00119802
0.00255042
0.00299668
0.00360662
0.00324588
0.00313507
0.00405687
0.00396897
0.00285054
0.00269642
0.00335653
0.00345344
0.00291606
0.00246102
0.00223309
0.00199203
0.00166608
0.00138117
0.00123233
0.00121019
0.00124258
0.0026191
0.00300317
0.00357778
0.00324956
0.00308216
0.0039869
0.00404349
0.00292254
0.00257845
0.00325235
0.00353022
0.00300762
0.00242737
0.00216679
0.00200463
0.00174168
0.00143713
0.00122812
0.00119191
0.00127472
0.00268466
0.00301023
0.00355263
0.00326124
0.00303035
0.00389566
0.00410377
0.00302376
0.00248272
0.00310734
0.00356928
0.00313504
0.00244194
0.00209552
0.00198457
0.00181365
0.00152894
0.00126697
0.00118092
0.00128937
0.00274764
0.0030175
0.00352873
0.00328113
0.00298488
0.00378453
0.00414078
0.00314953
0.00242163
0.00293028
0.00355311
0.00327794
0.002512
0.00203989
0.00193815
0.00186397
0.00164266
0.00135858
0.00119981
0.00129254
0.00280841
0.00302506
0.00350383
0.00330803
0.00295036
0.00365744
0.00414788
0.00328897
0.00240781
0.00274171
0.00347483
0.00340748
0.00263607
0.00202334
0.00187638
0.00188415
0.00175925
0.00149427
0.00127101
0.00130128
0.00286695
0.00303343
0.00347611
0.00333917
0.00293089
0.00352109
0.0041203
0.00342918
0.00244491
0.00256742
0.00333949
0.00349499
0.00280198
0.00206662
0.00181676
0.00187186
0.00186018
0.00165732
0.00140154
0.00134077
0.00292298
0.00304335
0.00344486
0.00337038
0.00292963
0.00338434
0.00405597
0.00355587
0.00253082
0.0024292
0.00315861
0.00352206
0.00298411
0.002174
0.00178684
0.00183472
0.00193129
0.00182673
0.00157856
0.00143315
0.0029761
0.00305559
0.00341027
0.00339757
0.0029471
0.00325729
0.00395642
0.00365567
0.00265497
0.00234287
0.00295606
0.00348084
0.00315217
0.00233714
0.00181249
0.00179064
0.00196201
0.00197903
0.00178293
0.00158349
0.00302564
0.00307058
0.00337128
0.00341716
0.0029833
0.00314783
0.00382684
0.00371911
0.00280146
0.00231483
0.0027626
0.00337789
0.0032772
0.00254011
0.00190428
0.00176609
0.00195668
0.00209292
0.00198925
0.00177748
0.00307105
0.00308852
0.00333486
0.00342673
0.00303087
0.00306098
0.00367774
0.00374061
0.00295319
0.00234388
0.00260275
0.00322939
0.0033403
0.00275202
0.00205694
0.00178694
0.00193355
0.00215406
0.00216929
0.00199707
0.00311177
0.00310921
0.00330054
0.00342462
0.00308451
0.00300246
0.00352286
0.00371941
0.00309274
0.00242308
0.00249161
0.00305958
0.00333769
0.00294085
0.00225643
0.00186579
0.00191859
0.00216986
0.00230011
0.002215
0.00314726
0.00313196
0.00327054
0.00341078
0.00313775
0.0029733
0.00337553
0.0036585
0.00320615
0.00253678
0.00243679
0.00289541
0.00327693
0.00308295
0.00247862
0.00200094
0.00193786
0.00216113
0.00237469
0.00240307
0.00317724
0.00315573
0.00324654
0.00338672
0.003184
0.00297064
0.00324647
0.00356542
0.00328372
0.0026668
0.002436
0.00276104
0.00317436
0.00316185
0.00269431
0.00218246
0.0020054
0.00215881
0.00240746
0.00254154
0.00320189
0.00317908
0.00322927
0.00335552
0.00321853
0.00298811
0.00314343
0.0034529
0.00332066
0.00279664
0.00248239
0.00266924
0.00305673
0.0031787
0.00287515
0.00239524
0.0021253
0.0021878
0.00242128
0.00262777
0.00322166
0.00320054
0.00321865
0.00332102
0.00323893
0.00301777
0.00307055
0.00333612
0.00331863
0.0029112
0.00256344
0.00262298
0.00294856
0.00315011
0.00300202
0.00261178
0.00229242
0.00226106
0.00244529
0.00267762
0.00323656
0.00321885
0.00321426
0.00328719
0.00324539
0.00305114
0.0030267
0.00322873
0.00328417
0.00299801
0.00266254
0.00262069
0.00286356
0.00309669
0.0030758
0.00280307
0.00249263
0.00238311
0.00249903
0.00271418
0.00324395
0.00323311
0.00321458
0.00325693
0.00323969
0.00308143
0.0030081
0.00314012
0.0032289
0.00305172
0.00276204
0.00265673
0.00281173
0.00303721
0.00310881
0.00295397
0.00269782
0.00254645
0.00259253
0.0027639
0.00324953
0.00324309
0.00321742
0.00323223
0.00322491
0.00310422
0.00300803
0.00307444
0.0031656
0.00307531
0.00284858
0.00271781
0.00279797
0.00298669
0.00311263
0.00306398
0.00288455
0.00273376
0.00272475
0.00284314
0.0032541
0.0032489
0.00322071
0.0032138
0.00320522
0.00311712
0.00301841
0.00303239
0.00310511
0.00307428
0.00291553
0.00278709
0.00281601
0.00295897
0.00310115
0.00313774
0.00304183
0.00292127
0.00288543
0.00295554
0.00325715
0.00325101
0.00322273
0.00320099
0.00318495
0.00312054
0.0030314
0.0030107
0.00305615
0.003057
0.00296073
0.0028537
0.00285509
0.00295987
0.0030913
0.00318155
0.00316663
0.00309295
0.00305635
0.00309246
0.00325836
0.00325023
0.00322242
0.00319236
0.00316729
0.00311675
0.00304195
0.00300382
0.0030229
0.00303423
0.00298649
0.00291158
0.00290319
0.00298361
0.00309704
0.00320778
0.00325925
0.00323977
0.00321967
0.00323945
0.00325766
0.00324746
0.00321974
0.00318606
0.00315358
0.00310886
0.00304794
0.00300486
0.00300415
0.00301455
0.00299813
0.00295755
0.00295239
0.00302094
0.00312286
0.00323268
0.00332453
0.00335741
0.00336267
0.00337893
0.00325521
0.00324337
0.00321509
0.00318025
0.00314353
0.00310014
0.00304953
0.00300853
0.0029966
0.00300197
0.00300217
0.00299151
0.00299842
0.00306284
0.00316226
0.00326765
0.00337467
0.00344688
0.00348043
0.00350043
0.0032512
0.00323831
0.00320925
0.00317392
0.00313579
0.00309275
0.00304839
0.00301183
0.00299609
0.00299719
0.00300445
0.0030152
0.00303811
0.00310264
0.00320551
0.00331166
0.00342098
0.0035153
0.0035731
0.00360218
0.00324598
0.00323247
0.00320293
0.00316709
0.00312907
0.00308691
0.00304609
0.00301371
0.00299828
0.00299833
0.00300922
0.0030321
0.00306995
0.0031368
0.00324117
0.00335468
0.00346535
0.00356916
0.00364433
0.00368428
0.00324004
0.00322611
0.00319646
0.00316001
0.00312255
0.00308199
0.00304346
0.00301394
0.00300012
0.00300189
0.00301669
0.00304704
0.00309599
0.00316616
0.00326712
0.00338413
0.0034978
0.00360649
0.00369523
0.00374883
0.0032339
0.00321968
0.00319015
0.00315306
0.00311604
0.00307745
0.0030409
0.003013
0.00300033
0.0030041
0.0030232
0.00305963
0.00311868
0.00319933
0.0033023
0.0034189
0.00352815
0.00362371
0.00370027
0.00374747
0.00322767
0.00321333
0.0031845
0.00314726
0.00311043
0.00307404
0.00303965
0.00301276
0.00300099
0.00300664
0.00302893
0.00306773
0.00312816
0.00321102
0.00331458
0.00343451
0.00355485
0.00366149
0.00374624
0.00379819
0.00322139
0.00320534
0.00317534
0.00313702
0.00309871
0.00306226
0.0030289
0.00300248
0.0029909
0.00299775
0.00302308
0.00306561
0.00312814
0.00321284
0.0033174
0.00343576
0.00355511
0.00366058
0.00374241
0.00379157
0.010901
0.00726571
0.000134251
-0.00538476
-0.00653451
-0.00515827
-0.00355967
-0.00236537
-0.00142335
-0.000680827
-0.000249086
-1.12202e-05
0.000254254
0.000575287
0.000906616
0.00122015
0.00146116
0.0016319
0.00178959
0.00194568
0.00209259
0.00224092
0.0023957
0.00257079
0.00278297
0.00301892
0.00324856
0.00346057
0.00365437
0.00384073
0.0040394
0.00424267
0.00442601
0.00459999
0.00479999
0.0050144
0.00520629
0.0054146
0.00567463
0.00592711
0.00614868
0.00638022
0.00662926
0.00688064
0.00713314
0.00738233
0.00762959
0.00789062
0.0081861
0.00849144
0.0087677
0.00904822
0.00937535
0.0097098
0.0100247
0.0103615
0.0107259
0.0110888
0.0114529
0.0118359
0.0122282
0.0126225
0.0130244
0.0134363
0.0138568
0.014281
0.0147151
0.0151598
0.0156176
0.0160841
0.0165601
0.0170448
0.0175324
0.0180289
0.0185302
0.0190455
0.0195668
0.0201005
0.020644
0.0211963
0.0217625
0.022334
0.0229213
0.0235151
0.0241211
0.02474
0.0253651
0.0260082
0.026657
0.0273205
0.0279972
0.0286815
0.0293843
0.030094
0.0308234
0.0315542
0.0323232
0.0330836
0.0338369
0.0346634
0.010306
0.00713696
0.000227696
-0.0052433
-0.00645098
-0.00511932
-0.00353702
-0.00235019
-0.0014118
-0.000670663
-0.000239912
-3.24637e-06
0.000261244
0.000581487
0.000912149
0.00122524
0.00146585
0.0016361
0.00179337
0.00194911
0.00209571
0.00224376
0.0023983
0.00257314
0.00278512
0.00302093
0.00325046
0.00346234
0.00365602
0.00384225
0.00404079
0.00424399
0.00442724
0.0046011
0.00480102
0.0050154
0.00520722
0.00541541
0.00567539
0.00592786
0.00614937
0.00638085
0.00662985
0.0068812
0.00713366
0.00738282
0.00763004
0.00789102
0.00818645
0.0084918
0.00876803
0.0090485
0.00937559
0.00971004
0.010025
0.0103617
0.0107261
0.011089
0.011453
0.011836
0.0122283
0.0126225
0.0130245
0.0134364
0.0138569
0.0142811
0.0147152
0.0151598
0.0156176
0.0160842
0.0165601
0.0170448
0.0175324
0.0180289
0.0185302
0.0190456
0.0195668
0.0201005
0.020644
0.0211963
0.0217625
0.022334
0.0229213
0.0235151
0.0241211
0.02474
0.0253651
0.0260082
0.026657
0.0273205
0.0279972
0.0286815
0.0293843
0.030094
0.0308234
0.0315542
0.0323232
0.0330836
0.0338369
0.0346634
0.0097079
0.00700277
0.000423412
-0.00496629
-0.0062964
-0.0050593
-0.00350787
-0.00233045
-0.00139748
-0.000660082
-0.000231481
4.20658e-06
0.000268223
0.000587819
0.00091768
0.00123018
0.00147034
0.00164014
0.00179702
0.00195239
0.00209862
0.00224637
0.00240065
0.00257528
0.0027871
0.0030228
0.0032522
0.00346395
0.00365751
0.00384362
0.00404207
0.0042452
0.00442835
0.00460209
0.00480193
0.0050163
0.00520805
0.00541612
0.00567608
0.00592855
0.00614999
0.00638142
0.00663039
0.0068817
0.00713412
0.00738326
0.00763044
0.00789137
0.00818678
0.00849213
0.00876833
0.00904874
0.00937581
0.00971026
0.0100251
0.0103618
0.0107262
0.0110891
0.0114531
0.0118361
0.0122284
0.0126226
0.0130246
0.0134365
0.013857
0.0142811
0.0147152
0.0151599
0.0156177
0.0160842
0.0165601
0.0170448
0.0175324
0.0180289
0.0185302
0.0190456
0.0195668
0.0201005
0.020644
0.0211963
0.0217626
0.022334
0.0229213
0.0235151
0.0241211
0.02474
0.0253651
0.0260082
0.026657
0.0273205
0.0279972
0.0286815
0.0293843
0.030094
0.0308234
0.0315542
0.0323232
0.0330836
0.0338369
0.0346636
0.00914873
0.00687734
0.00067762
-0.0046067
-0.00607715
-0.00496953
-0.00346296
-0.00229928
-0.00137549
-0.000645755
-0.000221516
1.28662e-05
0.000276534
0.000595292
0.000923914
0.00123547
0.00147523
0.00164487
0.00180151
0.00195645
0.00210214
0.00224945
0.00240343
0.00257783
0.00278947
0.00302498
0.00325417
0.00346576
0.0036592
0.0038452
0.00404357
0.00424661
0.00442962
0.0046032
0.00480295
0.0050173
0.00520899
0.00541695
0.00567688
0.0059293
0.00615066
0.00638207
0.00663102
0.00688227
0.00713464
0.00738374
0.00763089
0.00789178
0.00818716
0.00849251
0.00876867
0.00904901
0.00937608
0.00971053
0.0100254
0.010362
0.0107264
0.0110893
0.0114533
0.0118362
0.0122285
0.0126227
0.0130246
0.0134365
0.013857
0.0142812
0.0147153
0.0151599
0.0156177
0.0160842
0.0165602
0.0170448
0.0175325
0.018029
0.0185303
0.0190456
0.0195668
0.0201005
0.020644
0.0211963
0.0217626
0.022334
0.0229213
0.0235151
0.0241211
0.02474
0.0253651
0.0260082
0.026657
0.0273205
0.0279972
0.0286815
0.0293843
0.030094
0.0308234
0.0315542
0.0323232
0.0330836
0.0338369
0.0346638
0.008605
0.00673122
0.000940444
-0.00422109
-0.00583103
-0.00486548
-0.00341001
-0.00226025
-0.00134656
-0.000627017
-0.000208889
2.38253e-05
0.000287147
0.000604775
0.000931428
0.00124125
0.00148041
0.00165028
0.00180703
0.00196159
0.00210666
0.00225344
0.00240711
0.00258132
0.00279269
0.00302781
0.00325661
0.00346794
0.0036613
0.00384725
0.00404554
0.00424847
0.0044313
0.00460465
0.00480422
0.00501854
0.00521022
0.0054181
0.0056779
0.00593019
0.00615148
0.00638291
0.00663186
0.00688301
0.00713529
0.00738435
0.00763148
0.00789233
0.00818767
0.008493
0.00876912
0.00904941
0.00937645
0.00971089
0.0100257
0.0103623
0.0107266
0.0110895
0.0114535
0.0118364
0.0122287
0.0126229
0.0130248
0.0134366
0.0138571
0.0142813
0.0147153
0.01516
0.0156178
0.0160843
0.0165602
0.0170449
0.0175325
0.018029
0.0185303
0.0190456
0.0195669
0.0201005
0.020644
0.0211963
0.0217626
0.022334
0.0229213
0.0235151
0.0241211
0.02474
0.0253651
0.0260082
0.026657
0.0273205
0.0279972
0.0286815
0.0293843
0.030094
0.0308234
0.0315542
0.0323231
0.0330836
0.033837
0.0346641
0.00806716
0.00655045
0.00119428
-0.00382538
-0.00556937
-0.00475431
-0.00335507
-0.0022184
-0.00131384
-0.0006051
-0.000193795
3.71001e-05
0.000300001
0.000616153
0.000940086
0.00124733
0.00148564
0.00165606
0.00181327
0.0019676
0.00211205
0.00225829
0.00241178
0.00258598
0.0027971
0.00303162
0.00325971
0.0034706
0.00366386
0.00384986
0.0040481
0.00425092
0.00443361
0.00460665
0.00480589
0.00502013
0.00521191
0.00541973
0.00567925
0.00593129
0.00615255
0.00638408
0.00663302
0.00688401
0.00713613
0.00738516
0.00763232
0.00789314
0.00818839
0.00849366
0.00876977
0.00905001
0.009377
0.00971138
0.0100261
0.0103627
0.010727
0.0110898
0.0114538
0.0118367
0.012229
0.0126231
0.0130249
0.0134368
0.0138573
0.0142814
0.0147155
0.0151601
0.0156179
0.0160844
0.0165603
0.0170449
0.0175326
0.018029
0.0185303
0.0190456
0.0195669
0.0201005
0.020644
0.0211963
0.0217626
0.022334
0.0229213
0.0235151
0.0241211
0.02474
0.0253651
0.0260082
0.026657
0.0273205
0.0279972
0.0286815
0.0293843
0.030094
0.0308234
0.0315542
0.0323231
0.0330836
0.033837
0.0346646
0.0075387
0.00633595
0.00143478
-0.00342175
-0.00529226
-0.00463592
-0.00329913
-0.00217539
-0.00127867
-0.000580641
-0.000176627
5.21435e-05
0.000314433
0.000628813
0.000949494
0.00125355
0.00149074
0.00166183
0.00181972
0.00197398
0.00211787
0.00226363
0.00241715
0.00259168
0.00280276
0.00303659
0.0032637
0.00347387
0.00366695
0.00385301
0.00405122
0.00425398
0.00443664
0.00460939
0.00480812
0.0050222
0.00521422
0.00542201
0.00568103
0.00593262
0.00615391
0.00638568
0.00663464
0.00688538
0.00713725
0.00738624
0.0076335
0.00789432
0.0081894
0.00849457
0.00877069
0.00905092
0.00937782
0.00971209
0.0100268
0.0103633
0.0107276
0.0110903
0.0114542
0.0118371
0.0122293
0.0126234
0.0130252
0.0134371
0.0138575
0.0142816
0.0147156
0.0151602
0.015618
0.0160845
0.0165604
0.0170451
0.0175326
0.0180291
0.0185304
0.0190457
0.0195669
0.0201006
0.020644
0.0211963
0.0217626
0.022334
0.0229213
0.0235151
0.0241211
0.02474
0.0253651
0.0260082
0.026657
0.0273205
0.0279972
0.0286815
0.0293843
0.030094
0.0308234
0.0315542
0.0323231
0.0330836
0.0338371
0.0346651
0.0070292
0.00609473
0.00166009
-0.00301083
-0.00499839
-0.00450905
-0.00324233
-0.00213216
-0.00124173
-0.000553945
-0.000157707
6.84122e-05
0.000329794
0.000642186
0.000959353
0.00125992
0.00149579
0.00166753
0.00182615
0.00198038
0.00212374
0.00226903
0.00242276
0.00259796
0.0028093
0.00304259
0.00326868
0.00347794
0.00367067
0.0038567
0.00405479
0.00425748
0.00444028
0.00461286
0.00481097
0.00502486
0.0052173
0.0054251
0.00568332
0.00593424
0.00615558
0.00638773
0.00663678
0.00688721
0.00713872
0.00738765
0.00763511
0.00789594
0.00819078
0.00849578
0.00877198
0.00905225
0.00937897
0.00971308
0.0100277
0.0103642
0.0107284
0.011091
0.0114549
0.0118377
0.0122299
0.0126239
0.0130257
0.0134374
0.0138579
0.0142819
0.0147159
0.0151605
0.0156182
0.0160847
0.0165606
0.0170452
0.0175328
0.0180292
0.0185305
0.0190458
0.019567
0.0201006
0.0206441
0.0211964
0.0217626
0.022334
0.0229214
0.0235151
0.0241211
0.02474
0.0253651
0.0260082
0.026657
0.0273205
0.0279972
0.0286815
0.0293843
0.030094
0.0308233
0.0315542
0.0323231
0.0330836
0.0338371
0.0346657
0.00654767
0.0058345
0.00186698
-0.00259602
-0.0046885
-0.00437344
-0.00318517
-0.00208966
-0.00120364
-0.000525172
-0.000137106
8.57183e-05
0.000345816
0.000656035
0.000969552
0.00126648
0.00150091
0.00167323
0.00183258
0.0019868
0.0021296
0.00227437
0.00242833
0.00260437
0.00281623
0.00304924
0.00327444
0.00348279
0.00367505
0.00386091
0.0040587
0.00426125
0.00444431
0.00461687
0.00481437
0.00502808
0.00522116
0.00542902
0.00568617
0.00593617
0.00615757
0.00639021
0.00663942
0.00688952
0.00714059
0.00738945
0.00763718
0.00789808
0.00819255
0.00849732
0.00877369
0.00905407
0.00938054
0.00971441
0.010029
0.0103655
0.0107295
0.0110919
0.0114558
0.0118385
0.0122306
0.0126246
0.0130263
0.013438
0.0138583
0.0142823
0.0147163
0.0151608
0.0156185
0.0160849
0.0165608
0.0170454
0.017533
0.0180294
0.0185306
0.0190459
0.0195671
0.0201007
0.0206442
0.0211964
0.0217627
0.0223341
0.0229214
0.0235152
0.0241212
0.02474
0.0253651
0.0260082
0.026657
0.0273205
0.0279972
0.0286815
0.0293843
0.030094
0.0308233
0.0315542
0.0323231
0.0330835
0.0338372
0.0346664
0.00610125
0.00556267
0.00205034
-0.00218345
-0.00436443
-0.00422827
-0.00312721
-0.00204822
-0.00116469
-0.00049424
-0.000114606
0.000104187
0.000362534
0.000670383
0.000980112
0.00127325
0.00150611
0.00167902
0.00183914
0.0019934
0.00213565
0.00227983
0.00243393
0.00261079
0.00282326
0.00305613
0.00328062
0.00348817
0.00368
0.00386559
0.00406292
0.00426519
0.00444853
0.00462116
0.0048181
0.00503175
0.00522569
0.00543371
0.0056896
0.00593844
0.00615986
0.00639303
0.00664245
0.00689224
0.00714284
0.00739165
0.00763975
0.00790072
0.00819472
0.00849917
0.00877581
0.00905638
0.00938254
0.0097161
0.0100307
0.0103672
0.0107309
0.0110932
0.0114569
0.0118396
0.0122316
0.0126254
0.0130271
0.0134387
0.013859
0.0142829
0.0147168
0.0151612
0.0156188
0.0160853
0.0165611
0.0170457
0.0175332
0.0180296
0.0185308
0.0190461
0.0195673
0.0201009
0.0206443
0.0211965
0.0217628
0.0223342
0.0229215
0.0235152
0.0241212
0.0247401
0.0253651
0.0260082
0.026657
0.0273205
0.0279972
0.0286815
0.0293843
0.030094
0.0308233
0.0315542
0.032323
0.0330835
0.0338373
0.0346672
0.00569398
0.00528564
0.00220468
-0.00177932
-0.0040271
-0.00407101
-0.00306686
-0.00200777
-0.00112522
-0.000461186
-9.0015e-05
0.000124003
0.000380062
0.000685317
0.000991109
0.00128029
0.00151147
0.00168496
0.00184595
0.00200036
0.00214215
0.00228574
0.00243988
0.00261741
0.00283035
0.00306305
0.00328689
0.00349377
0.00368525
0.00387061
0.00406743
0.00426934
0.00445289
0.00462561
0.00482202
0.00503569
0.00523068
0.00543898
0.0056935
0.00594105
0.00616244
0.00639614
0.00664577
0.00689523
0.00714538
0.00739421
0.00764277
0.00790384
0.00819724
0.00850128
0.00877828
0.00905915
0.00938493
0.00971814
0.0100328
0.0103692
0.0107326
0.0110947
0.0114584
0.011841
0.0122328
0.0126265
0.0130281
0.0134396
0.0138599
0.0142837
0.0147175
0.0151618
0.0156193
0.0160857
0.0165615
0.0170461
0.0175335
0.0180299
0.0185311
0.0190463
0.0195675
0.0201011
0.0206445
0.0211967
0.0217629
0.0223343
0.0229216
0.0235153
0.0241213
0.0247401
0.0253652
0.0260083
0.0266571
0.0273206
0.0279973
0.0286815
0.0293843
0.030094
0.0308233
0.0315542
0.032323
0.0330834
0.0338374
0.034668
0.00532606
0.00500905
0.0023262
-0.00138827
-0.0036765
-0.00389868
-0.00300247