/*--------------------------------*- C++ -*----------------------------------*\
| =========                 |                                                 |
| \\      /  F ield         | OpenFOAM: The Open Source CFD Toolbox           |
|  \\    /   O peration     | Version:  v1906                                 |
|   \\  /    A nd           | Web:      www.OpenFOAM.com                      |
|    \\/     M anipulation  |                                                 |
\*---------------------------------------------------------------------------*/
FoamFile
{
    version     2.0;
    format      ascii;
    class       surfaceScalarField;
    location    "0.5";
    object      phi;
}
// * * * * * * * * * * * * * * * * * * * * * * * * * * * * * * * * * * * * * //

dimensions      [0 3 -1 0 0 0 0];
oriented        oriented;


internalField   nonuniform List<scalar> 
19000
(
1.172e-06
-9.17745e-07
1.16957e-06
4.2256e-07
1.18626e-06
5.53738e-08
1.18633e-06
-4.55162e-08
1.202e-06
1.27443e-07
1.18922e-06
2.24571e-07
1.17484e-06
1.44348e-07
1.19089e-06
7.11791e-08
1.19514e-06
-1.05926e-08
1.17717e-06
-5.67105e-07
1.20863e-06
-3.26269e-08
1.1846e-06
-6.59458e-07
1.21158e-06
-1.39161e-09
1.18393e-06
-1.37163e-07
1.19018e-06
1.17546e-08
1.17033e-06
1.29098e-07
1.17528e-06
7.32389e-08
1.16298e-06
1.312e-07
1.16155e-06
2.11209e-07
1.40803e-07
1.1357e-06
1.23132e-06
-9.24805e-07
1.23111e-06
4.22767e-07
1.2468e-06
3.96858e-08
1.24819e-06
-4.69091e-08
1.26031e-06
1.1533e-07
1.25218e-06
2.32702e-07
1.23391e-06
1.62618e-07
1.25173e-06
5.33598e-08
1.24932e-06
-8.19063e-09
1.23221e-06
-5.49995e-07
1.25737e-06
-5.77834e-08
1.23784e-06
-6.39927e-07
1.25839e-06
-2.19374e-08
1.24559e-06
-1.2437e-07
1.23803e-06
1.93168e-08
1.23888e-06
1.28251e-07
1.22282e-06
8.9298e-08
1.23389e-06
1.20128e-07
1.20484e-06
2.40259e-07
1.26219e-07
1.21942e-06
1.29031e-06
-9.32327e-07
1.30051e-06
4.12558e-07
1.31043e-06
2.97731e-08
1.31536e-06
-5.18463e-08
1.3223e-06
1.08393e-07
1.32003e-06
2.34976e-07
1.29923e-06
1.83418e-07
1.31424e-06
3.83469e-08
1.30525e-06
7.99358e-10
1.29042e-06
-5.35161e-07
1.30819e-06
-7.55591e-08
1.29714e-06
-6.28879e-07
1.30998e-06
-3.47752e-08
1.31134e-06
-1.25726e-07
1.29596e-06
3.46961e-08
1.30308e-06
1.21129e-07
1.28595e-06
1.0643e-07
1.29128e-06
1.14794e-07
1.27792e-06
2.53625e-07
1.33548e-07
1.27059e-06
1.34933e-06
-9.37555e-07
1.37104e-06
3.90844e-07
1.37422e-06
2.65961e-08
1.3827e-06
-6.03286e-08
1.38615e-06
1.04952e-07
1.38722e-06
2.33899e-07
1.36816e-06
2.02477e-07
1.37646e-06
3.00516e-08
1.36269e-06
1.45679e-08
1.34959e-06
-5.22056e-07
1.36111e-06
-8.70874e-08
1.35656e-06
-6.24326e-07
1.36746e-06
-4.56739e-08
1.37512e-06
-1.33383e-07
1.36382e-06
4.59973e-08
1.36792e-06
1.17021e-07
1.3586e-06
1.15757e-07
1.35652e-06
1.16868e-07
1.35318e-06
2.56964e-07
1.45562e-07
1.34117e-06
1.40934e-06
-9.38538e-07
1.43938e-06
3.60801e-07
1.43723e-06
2.8747e-08
1.44717e-06
-7.02682e-08
1.44986e-06
1.02259e-07
1.45125e-06
2.32513e-07
1.43731e-06
2.16418e-07
1.43827e-06
2.90861e-08
1.42216e-06
3.06784e-08
1.40975e-06
-5.09646e-07
1.41664e-06
-9.39782e-08
1.41462e-06
-6.22302e-07
1.42707e-06
-5.81233e-08
1.4362e-06
-1.42515e-07
1.43311e-06
4.90879e-08
1.43616e-06
1.13967e-07
1.43229e-06
1.19632e-07
1.42922e-06
1.19931e-07
1.42919e-06
2.56994e-07
1.57508e-07
1.41725e-06
1.47192e-06
-9.34782e-07
1.5051e-06
3.27625e-07
1.50044e-06
3.34062e-08
1.50935e-06
-7.91779e-08
1.5127e-06
9.89024e-08
1.51287e-06
2.32344e-07
1.50485e-06
2.24438e-07
1.50089e-06
3.30495e-08
1.48468e-06
4.68892e-08
1.47261e-06
-4.97574e-07
1.47616e-06
-9.75341e-08
1.4737e-06
-6.19842e-07
1.48712e-06
-7.15402e-08
1.49619e-06
-1.51586e-07
1.49996e-06
4.53215e-08
1.50479e-06
1.09131e-07
1.50474e-06
1.19682e-07
1.50284e-06
1.21837e-07
1.50557e-06
2.54257e-07
1.697e-07
1.49338e-06
1.53842e-06
-9.26986e-07
1.57e-06
2.96048e-07
1.56543e-06
3.79748e-08
1.57182e-06
-8.55658e-08
1.57552e-06
9.51961e-08
1.57462e-06
2.3325e-07
1.57154e-06
2.2752e-07
1.56593e-06
3.86513e-08
1.55144e-06
6.13875e-08
1.5398e-06
-4.8594e-07
1.54111e-06
-9.88421e-08
1.53666e-06
-6.1539e-07
1.54919e-06
-8.40703e-08
1.55735e-06
-1.59746e-07
1.56562e-06
3.70522e-08
1.57254e-06
1.02207e-07
1.57601e-06
1.16215e-07
1.57515e-06
1.22698e-07
1.58058e-06
2.4882e-07
1.81808e-07
1.56848e-06
1.6095e-06
-9.16361e-07
1.63664e-06
2.68911e-07
1.63351e-06
4.11027e-08
1.63717e-06
-8.92199e-08
1.64027e-06
9.20941e-08
1.6392e-06
2.34316e-07
1.63967e-06
2.2705e-07
1.63486e-06
4.34613e-08
1.6232e-06
7.30499e-08
1.61211e-06
-4.74851e-07
1.61208e-06
-9.88109e-08
1.60507e-06
-6.08381e-07
1.61553e-06
-9.45303e-08
1.62185e-06
-1.66063e-07
1.6326e-06
2.63048e-08
1.64047e-06
9.43365e-08
1.64684e-06
1.09841e-07
1.64649e-06
1.23051e-07
1.65398e-06
2.41324e-07
1.9315e-07
1.64264e-06
1.68527e-06
-9.04059e-07
1.70714e-06
2.47046e-07
1.70556e-06
4.26805e-08
1.70706e-06
-9.07209e-08
1.70901e-06
9.01462e-08
1.70866e-06
2.34658e-07
1.71152e-06
2.24197e-07
1.7086e-06
4.63788e-08
1.70007e-06
8.15757e-08
1.68947e-06
-4.64245e-07
1.6888e-06
-9.8142e-08
1.67921e-06
-5.9879e-07
1.68741e-06
-1.02733e-07
1.69114e-06
-1.69793e-07
1.70283e-06
1.4615e-08
1.71024e-06
8.69269e-08
1.71847e-06
1.01616e-07
1.71804e-06
1.23474e-07
1.72673e-06
2.32632e-07
2.03136e-07
1.71675e-06
1.76557e-06
-8.9091e-07
1.78267e-06
2.29947e-07
1.7821e-06
4.32507e-08
1.78223e-06
-9.08438e-08
1.78309e-06
8.92774e-08
1.78402e-06
2.33728e-07
1.78832e-06
2.199e-07
1.78741e-06
4.72912e-08
1.78174e-06
8.72485e-08
1.77141e-06
-4.53919e-07
1.77059e-06
-9.73248e-08
1.75863e-06
-5.86822e-07
1.765e-06
-1.09108e-07
1.76579e-06
-1.70582e-07
1.7774e-06
3.00088e-09
1.78325e-06
8.10828e-08
1.79221e-06
9.26507e-08
1.79126e-06
1.24425e-07
1.80026e-06
2.23639e-07
2.11308e-07
1.79208e-06
1.85023e-06
-8.77392e-07
1.86362e-06
2.1656e-07
1.86343e-06
4.34366e-08
1.86281e-06
-9.02233e-08
1.86296e-06
8.91238e-08
1.8654e-06
2.31296e-07
1.87036e-06
2.14937e-07
1.87107e-06
4.65794e-08
1.86778e-06
9.0542e-08
1.85748e-06
-4.43625e-07
1.85683e-06
-9.66727e-08
1.84276e-06
-5.72749e-07
1.84792e-06
-1.14265e-07
1.84576e-06
-1.68421e-07
1.85673e-06
-7.97573e-09
1.86039e-06
7.74258e-08
1.86918e-06
8.38615e-08
1.8675e-06
1.261e-07
1.87595e-06
2.15193e-07
2.17309e-07
1.86995e-06
1.93913e-06
-8.63682e-07
1.94989e-06
2.05802e-07
1.94966e-06
4.36675e-08
1.94872e-06
-8.92899e-08
1.94846e-06
8.93917e-08
1.95239e-06
2.27356e-07
1.95743e-06
2.09897e-07
1.95925e-06
4.47615e-08
1.95792e-06
9.18735e-08
1.94744e-06
-4.33147e-07
1.94715e-06
-9.63829e-08
1.93123e-06
-5.5683e-07
1.93571e-06
-1.18746e-07
1.93082e-06
-1.63527e-07
1.94093e-06
-1.8082e-08
1.94224e-06
7.61087e-08
1.95019e-06
7.59114e-08
1.94789e-06
1.28405e-07
1.95508e-06
2.08005e-07
2.20911e-07
1.95147e-06
2.03225e-06
-8.4974e-07
2.0413e-06
1.96747e-07
2.0408e-06
4.41657e-08
2.03985e-06
-8.83319e-08
2.03925e-06
8.99843e-08
2.04456e-06
2.22052e-07
2.04934e-06
2.05118e-07
2.05179e-06
4.23035e-08
2.0521e-06
9.15704e-08
2.04128e-06
-4.2233e-07
2.04149e-06
-9.65866e-08
2.02394e-06
-5.39284e-07
2.02815e-06
-1.22958e-07
2.02087e-06
-1.56247e-07
2.03008e-06
-2.72949e-08
2.02929e-06
7.69052e-08
2.03595e-06
6.92538e-08
2.03335e-06
1.30997e-07
2.03878e-06
2.02577e-07
2.22072e-07
2.03762e-06
2.12967e-06
-8.35409e-07
2.13778e-06
1.88635e-07
2.1369e-06
4.50467e-08
2.13613e-06
-8.75612e-08
2.13517e-06
9.09429e-08
2.14162e-06
2.156e-07
2.14604e-06
2.00703e-07
2.1488e-06
3.95443e-08
2.15044e-06
8.9928e-08
2.13918e-06
-4.11073e-07
2.13997e-06
-9.73732e-08
2.12098e-06
-5.20294e-07
2.12522e-06
-1.27199e-07
2.11597e-06
-1.46998e-07
2.12438e-06
-3.57022e-08
2.12197e-06
7.93106e-08
2.12703e-06
6.41931e-08
2.12465e-06
1.33376e-07
2.12811e-06
1.99119e-07
2.21008e-07
2.12917e-06
2.23158e-06
-8.20503e-07
2.23938e-06
1.80839e-07
2.23802e-06
4.64083e-08
2.2376e-06
-8.71442e-08
2.2362e-06
9.23406e-08
2.24357e-06
2.08236e-07
2.24767e-06
1.96604e-07
2.25052e-06
3.66915e-08
2.25321e-06
8.72384e-08
2.24143e-06
-3.99296e-07
2.24286e-06
-9.87988e-08
2.22257e-06
-5.00011e-07
2.22706e-06
-1.31683e-07
2.21629e-06
-1.36226e-07
2.22399e-06
-4.34048e-08
2.22066e-06
8.26443e-08
2.2239e-06
6.09454e-08
2.22228e-06
1.35001e-07
2.22391e-06
1.97488e-07
2.18233e-07
2.22669e-06
2.33824e-06
-8.0487e-07
2.34623e-06
1.7285e-07
2.34428e-06
4.83642e-08
2.34434e-06
-8.72077e-08
2.34246e-06
9.42196e-08
2.35053e-06
2.00166e-07
2.35442e-06
1.92716e-07
2.35725e-06
3.38581e-08
2.36073e-06
8.3762e-08
2.34836e-06
-3.86925e-07
2.35045e-06
-1.00894e-07
2.32901e-06
-4.78564e-07
2.33387e-06
-1.36546e-07
2.32202e-06
-1.24377e-07
2.32905e-06
-5.04298e-08
2.32553e-06
8.61605e-08
2.32679e-06
5.96863e-08
2.32639e-06
1.35402e-07
2.3266e-06
1.97273e-07
2.14429e-07
2.33041e-06
2.44994e-06
-7.88411e-07
2.4585e-06
1.64282e-07
2.45583e-06
5.10349e-08
2.45647e-06
-8.78398e-08
2.4541e-06
9.6582e-08
2.46272e-06
1.91546e-07
2.4665e-06
1.88939e-07
2.46924e-06
3.11131e-08
2.47333e-06
7.96805e-08
2.46028e-06
-3.73877e-07
2.46305e-06
-1.03669e-07
2.44057e-06
-4.56076e-07
2.44583e-06
-1.41815e-07
2.43335e-06
-1.1189e-07
2.43959e-06
-5.66752e-08
2.43659e-06
8.91589e-08
2.43577e-06
6.05149e-08
2.43682e-06
1.34348e-07
2.43619e-06
1.97906e-07
2.10274e-07
2.44034e-06
2.56695e-06
-7.7107e-07
2.57636e-06
1.54874e-07
2.57287e-06
5.45259e-08
2.57413e-06
-8.90948e-08
2.5713e-06
9.94042e-08
2.58036e-06
1.8249e-07
2.58411e-06
1.85191e-07
2.5867e-06
2.85236e-08
2.5913e-06
7.50762e-08
2.5775e-06
-3.60074e-07
2.58094e-06
-1.07112e-07
2.55755e-06
-4.32691e-07
2.56313e-06
-1.47393e-07
2.55045e-06
-9.92067e-08
2.55567e-06
-6.18951e-08
2.55376e-06
9.10646e-08
2.5509e-06
6.33743e-08
2.55328e-06
1.31975e-07
2.55248e-06
1.987e-07
2.06347e-07
2.55641e-06
2.68958e-06
-7.5282e-07
2.69999e-06
1.44466e-07
2.6956e-06
5.89146e-08
2.6975e-06
-9.09997e-08
2.69426e-06
1.02649e-07
2.70366e-06
1.73087e-07
2.70745e-06
1.81398e-07
2.7098e-06
2.61763e-08
2.71493e-06
6.99448e-08
2.70031e-06
-3.45449e-07
2.70437e-06
-1.1118e-07
2.68028e-06
-4.08595e-07
2.68595e-06
-1.53059e-07
2.67351e-06
-8.67717e-08
2.67737e-06
-6.57587e-08
2.67694e-06
9.15001e-08
2.6723e-06
6.80096e-08
2.67556e-06
1.28721e-07
2.67528e-06
1.98974e-07
2.03048e-07
2.67858e-06
2.81809e-06
-7.33645e-07
2.82959e-06
1.32974e-07
2.82425e-06
6.42475e-08
2.82681e-06
-9.35581e-08
2.82319e-06
1.06269e-07
2.83285e-06
1.63428e-07
2.83678e-06
1.77472e-07
2.83877e-06
2.4187e-08
2.84448e-06
6.42281e-08
2.82901e-06
-3.29971e-07
2.83361e-06
-1.15785e-07
2.80906e-06
-3.84041e-07
2.81449e-06
-1.58493e-07
2.80273e-06
-7.50159e-08
2.80491e-06
-6.79338e-08
2.80609e-06
9.0323e-08
2.80011e-06
7.39824e-08
2.80369e-06
1.25147e-07
2.80446e-06
1.98208e-07
2.00542e-07
2.80696e-06
2.95279e-06
-7.13538e-07
2.96541e-06
1.20355e-07
2.95911e-06
7.0543e-08
2.9623e-06
-9.67504e-08
2.95838e-06
1.10196e-07
2.96818e-06
1.53625e-07
2.97235e-06
1.733e-07
2.97385e-06
2.26921e-08
2.98022e-06
5.78569e-08
2.96391e-06
-3.13659e-07
2.9689e-06
-1.20773e-07
2.94421e-06
-3.59351e-07
2.94902e-06
-1.63311e-07
2.93833e-06
-6.43181e-08
2.93858e-06
-6.81909e-08
2.94127e-06
8.76371e-08
2.93451e-06
8.07385e-08
2.9379e-06
1.21763e-07
2.94e-06
1.96106e-07
1.98769e-07
2.94177e-06
3.09397e-06
-6.92497e-07
3.10772e-06
1.06596e-07
3.10047e-06
7.77937e-08
3.10425e-06
-1.00533e-07
3.10011e-06
1.14339e-07
3.10992e-06
1.43819e-07
3.11448e-06
1.68738e-07
3.11534e-06
2.18327e-08
3.12241e-06
5.07828e-08
3.10535e-06
-2.96598e-07
3.11049e-06
-1.25912e-07
3.08606e-06
-3.34922e-07
3.08984e-06
-1.67096e-07
3.0805e-06
-5.49715e-08
3.07877e-06
-6.64605e-08
3.08266e-06
8.37467e-08
3.07569e-06
8.77076e-08
3.07852e-06
1.18929e-07
3.08201e-06
1.92615e-07
1.97481e-07
3.0833e-06
3.24194e-06
-6.70526e-07
3.25683e-06
9.17054e-08
3.24866e-06
8.59674e-08
3.25296e-06
-1.04832e-07
3.24872e-06
1.18576e-07
3.25834e-06
1.34195e-07
3.26347e-06
1.63616e-07
3.26355e-06
2.17442e-08
3.27134e-06
4.29987e-08
3.25368e-06
-2.78944e-07
3.25867e-06
-1.30894e-07
3.23493e-06
-3.11184e-07
3.2373e-06
-1.69462e-07
3.22946e-06
-4.71369e-08
3.22585e-06
-6.28487e-08
3.23053e-06
7.90663e-08
3.22385e-06
9.43916e-08
3.22594e-06
1.16834e-07
3.2307e-06
1.87859e-07
1.96331e-07
3.23185e-06
3.39704e-06
-6.47637e-07
3.41304e-06
7.57061e-08
3.404e-06
9.50042e-08
3.40872e-06
-1.09545e-07
3.40455e-06
1.22747e-07
3.41376e-06
1.24981e-07
3.41964e-06
1.57731e-07
3.41885e-06
2.2543e-08
3.42728e-06
3.45627e-08
3.40928e-06
-2.60946e-07
3.41373e-06
-1.35344e-07
3.39112e-06
-2.8857e-07
3.39176e-06
-1.70098e-07
3.38543e-06
-4.08139e-08
3.3802e-06
-5.76118e-08
3.38525e-06
7.40113e-08
3.37923e-06
1.00412e-07
3.38052e-06
1.15546e-07
3.38632e-06
1.82055e-07
1.94947e-07
3.38771e-06
3.55963e-06
-6.23852e-07
3.57669e-06
5.86418e-08
3.56688e-06
1.04812e-07
3.57187e-06
-1.1453e-07
3.56796e-06
1.26654e-07
3.57648e-06
1.16456e-07
3.58335e-06
1.50862e-07
3.58159e-06
2.43097e-08
3.59053e-06
2.56182e-08
3.57252e-06
-2.42933e-07
3.57604e-06
-1.38869e-07
3.55489e-06
-2.67419e-07
3.55366e-06
-1.68868e-07
3.54866e-06
-3.58082e-08
3.54217e-06
-5.11232e-08
3.54724e-06
6.89422e-08
3.54214e-06
1.05513e-07
3.54262e-06
1.15065e-07
3.54922e-06
1.75448e-07
1.93008e-07
3.55116e-06
3.73006e-06
-5.99202e-07
3.74812e-06
4.05765e-08
3.73767e-06
1.15264e-07
3.74274e-06
-1.19605e-07
3.73934e-06
1.30059e-07
3.74685e-06
1.08948e-07
3.75494e-06
1.42771e-07
3.75218e-06
2.70691e-08
3.76139e-06
1.64057e-08
3.74377e-06
-2.25313e-07
3.74598e-06
-1.41077e-07
3.72649e-06
-2.47935e-07
3.72346e-06
-1.65833e-07
3.71943e-06
-3.17783e-08
3.71212e-06
-4.38169e-08
3.71691e-06
6.41569e-08
3.71289e-06
1.09535e-07
3.71263e-06
1.1532e-07
3.71976e-06
1.68319e-07
1.90249e-07
3.72252e-06
3.90872e-06
-5.73733e-07
3.9277e-06
2.15993e-08
3.91677e-06
1.26191e-07
3.92171e-06
-1.24546e-07
3.91908e-06
1.32694e-07
3.92523e-06
1.02797e-07
3.93472e-06
1.33273e-07
3.93104e-06
3.07488e-08
3.94019e-06
7.2581e-09
3.9234e-06
-2.08525e-07
3.92397e-06
-1.41643e-07
3.90617e-06
-2.30135e-07
3.90158e-06
-1.61243e-07
3.89812e-06
-2.83211e-08
3.89037e-06
-3.60667e-08
3.89468e-06
5.98527e-08
3.89186e-06
1.12356e-07
3.89096e-06
1.1622e-07
3.8983e-06
1.60976e-07
1.86464e-07
3.90209e-06
4.09602e-06
-5.47504e-07
4.11579e-06
1.82588e-09
4.10461e-06
1.37379e-07
4.10914e-06
-1.29084e-07
4.10756e-06
1.34277e-07
4.11206e-06
9.8298e-08
4.12304e-06
1.22295e-07
4.11864e-06
3.51461e-08
4.12731e-06
-1.41366e-09
4.11177e-06
-1.9298e-07
4.11049e-06
-1.40367e-07
4.09421e-06
-2.13853e-07
4.08842e-06
-1.55454e-07
4.08519e-06
-2.50858e-08
4.07723e-06
-2.81118e-08
4.081e-06
5.60872e-08
4.07942e-06
1.13929e-07
4.07802e-06
1.17621e-07
4.08525e-06
1.53751e-07
1.81526e-07
4.09018e-06
4.29239e-06
-5.20589e-07
4.31281e-06
-1.85975e-08
4.30163e-06
1.48561e-07
4.30545e-06
-1.32901e-07
4.3052e-06
1.34525e-07
4.30782e-06
9.56756e-08
4.32021e-06
1.09902e-07
4.31542e-06
3.99382e-08
4.32317e-06
-9.16589e-09
4.3092e-06
-1.79007e-07
4.30604e-06
-1.37209e-07
4.29096e-06
-1.98773e-07
4.28435e-06
-1.48839e-07
4.2811e-06
-2.18397e-08
4.27308e-06
-2.00863e-08
4.27631e-06
5.28571e-08
4.27596e-06
1.14271e-07
4.27429e-06
1.19294e-07
4.28102e-06
1.47022e-07
1.754e-07
4.28715e-06
4.49827e-06
-4.93083e-07
4.51916e-06
-3.94898e-08
4.5083e-06
1.59416e-07
4.51104e-06
-1.35637e-07
4.51239e-06
1.33174e-07
4.51303e-06
9.50414e-08
4.52659e-06
9.63355e-08
4.52185e-06
4.46794e-08
4.52822e-06
-1.55345e-08
4.51601e-06
-1.66799e-07
4.51113e-06
-1.32332e-07
4.49687e-06
-1.84508e-07
4.48973e-06
-1.41694e-07
4.48642e-06
-1.85326e-08
4.47836e-06
-1.20246e-08
4.48104e-06
5.01757e-08
4.48189e-06
1.13419e-07
4.48022e-06
1.20962e-07
4.48613e-06
1.41112e-07
1.68223e-07
4.49331e-06
4.71413e-06
-4.65095e-07
4.73528e-06
-6.064e-08
4.72512e-06
1.69575e-07
4.72639e-06
-1.36908e-07
4.72955e-06
1.30014e-07
4.72824e-06
9.63502e-08
4.74255e-06
8.20271e-08
4.73838e-06
4.88498e-08
4.74297e-06
-2.01303e-08
4.73252e-06
-1.56341e-07
4.72627e-06
-1.26085e-07
4.71239e-06
-1.70632e-07
4.70496e-06
-1.34256e-07
4.70168e-06
-1.52549e-08
4.69356e-06
-3.91199e-09
4.69566e-06
4.80801e-08
4.69762e-06
1.11457e-07
4.69625e-06
1.22331e-07
4.70114e-06
1.36221e-07
1.60325e-07
4.70904e-06
4.94046e-06
-4.36756e-07
4.96162e-06
-8.1798e-08
4.95257e-06
1.78622e-07
4.95199e-06
-1.36326e-07
4.95709e-06
1.24915e-07
4.95403e-06
9.94117e-08
4.9685e-06
6.75481e-08
4.96545e-06
5.19055e-08
4.96797e-06
-2.26555e-08
4.9591e-06
-1.47465e-07
4.95192e-06
-1.18907e-07
4.93804e-06
-1.56751e-07
4.93045e-06
-1.26667e-07
4.92736e-06
-1.21692e-08
4.91924e-06
4.20926e-09
4.92066e-06
4.66594e-08
4.9236e-06
1.08519e-07
4.92283e-06
1.23106e-07
4.92668e-06
1.32371e-07
1.52205e-07
4.9348e-06
5.17777e-06
-4.08213e-07
5.19865e-06
-1.02677e-07
5.19116e-06
1.86113e-07
5.18838e-06
-1.3355e-07
5.19542e-06
1.17877e-07
5.19096e-06
1.03875e-07
5.20494e-06
5.35655e-08
5.20349e-06
5.33548e-08
5.20383e-06
-2.29934e-08
5.19622e-06
-1.39852e-07
5.18854e-06
-1.11232e-07
5.1744e-06
-1.42606e-07
5.16664e-06
-1.18913e-07
5.16392e-06
-9.4483e-09
5.15596e-06
1.2173e-08
5.15659e-06
4.60231e-08
5.1603e-06
1.0481e-07
5.16034e-06
1.23066e-07
5.16335e-06
1.29371e-07
1.44427e-07
5.17112e-06
5.42661e-06
-3.79634e-07
5.44689e-06
-1.22954e-07
5.44139e-06
1.91611e-07
5.43616e-06
-1.28326e-07
5.445e-06
1.09039e-07
5.4396e-06
1.09279e-07
5.4524e-06
4.07648e-08
5.45294e-06
5.28183e-08
5.45117e-06
-2.12274e-08
5.44435e-06
-1.33036e-07
5.43669e-06
-1.03571e-07
5.42206e-06
-1.27969e-07
5.41402e-06
-1.1088e-07
5.41184e-06
-7.26541e-09
5.40425e-06
1.97644e-08
5.40404e-06
4.62364e-08
5.40825e-06
1.00595e-07
5.40923e-06
1.22082e-07
5.41171e-06
1.26892e-07
1.37437e-07
5.4187e-06
5.68753e-06
-3.51201e-07
5.70684e-06
-1.42269e-07
5.70372e-06
1.94732e-07
5.69595e-06
-1.20558e-07
5.7063e-06
9.86849e-08
5.70049e-06
1.15091e-07
5.71148e-06
2.97773e-08
5.71419e-06
5.01054e-08
5.71062e-06
-1.7658e-08
5.70401e-06
-1.26421e-07
5.69679e-06
-9.63543e-08
5.68177e-06
-1.12945e-07
5.67316e-06
-1.02272e-07
5.67163e-06
-5.73962e-09
5.66463e-06
2.67672e-08
5.66358e-06
4.72845e-08
5.66804e-06
9.61405e-08
5.66994e-06
1.20178e-07
5.67229e-06
1.24544e-07
1.31437e-07
5.67829e-06
5.96111e-06
-3.23115e-07
5.97906e-06
-1.60224e-07
5.97861e-06
1.95181e-07
5.96839e-06
-1.1033e-07
5.97986e-06
8.72149e-08
5.9742e-06
1.20744e-07
5.98289e-06
2.10941e-08
5.98769e-06
4.5299e-08
5.98282e-06
-1.27886e-08
5.9758e-06
-1.19399e-07
5.96927e-06
-8.98189e-08
5.95423e-06
-9.79043e-08
5.94482e-06
-9.28638e-08
5.94381e-06
-4.72834e-09
5.93766e-06
3.29173e-08
5.93583e-06
4.91078e-08
5.9403e-06
9.16778e-08
5.94303e-06
1.17445e-07
5.94551e-06
1.22067e-07
1.26311e-07
5.95063e-06
6.24796e-06
-2.95583e-07
6.26413e-06
-1.76398e-07
6.26653e-06
1.92782e-07
6.25414e-06
-9.79368e-08
6.26625e-06
7.51018e-08
6.26128e-06
1.25717e-07
6.26738e-06
1.49909e-08
6.2739e-06
3.87733e-08
6.26837e-06
-7.25955e-09
6.26041e-06
-1.11438e-07
6.2546e-06
-8.40056e-08
6.23999e-06
-8.32938e-08
6.22975e-06
-8.26219e-08
6.22898e-06
-3.96289e-09
6.22388e-06
3.8017e-08
6.22141e-06
5.15815e-08
6.22567e-06
8.74215e-08
6.22912e-06
1.13992e-07
6.23186e-06
1.19324e-07
1.21763e-07
6.23641e-06
6.5487e-06
-2.68816e-07
6.56264e-06
-1.90336e-07
6.56795e-06
1.8747e-07
6.55387e-06
-8.38506e-08
6.56611e-06
6.28568e-08
6.56228e-06
1.29547e-07
6.56574e-06
1.15345e-08
6.57336e-06
3.11522e-08
6.56785e-06
-1.75138e-09
6.5586e-06
-1.02191e-07
6.55332e-06
-7.87168e-08
6.53962e-06
-6.96031e-08
6.52866e-06
-7.16522e-08
6.52784e-06
-3.14413e-09
6.52391e-06
4.1947e-08
6.52097e-06
5.45134e-08
6.52478e-06
8.36193e-08
6.5289e-06
1.0987e-07
6.53192e-06
1.16299e-07
1.17486e-07
6.5362e-06
6.864e-06
-2.43026e-07
6.87522e-06
-2.01556e-07
6.88342e-06
1.79272e-07
6.86827e-06
-6.8707e-08
6.88012e-06
5.10102e-08
6.87782e-06
1.31846e-07
6.87873e-06
1.06256e-08
6.88673e-06
2.31582e-08
6.88176e-06
3.21012e-09
6.8713e-06
-9.17234e-08
6.86614e-06
-7.3556e-08
6.8536e-06
-5.70679e-08
6.84222e-06
-6.02722e-08
6.8411e-06
-2.02503e-09
6.83833e-06
4.47153e-08
6.83521e-06
5.76338e-08
6.83835e-06
8.048e-08
6.84297e-06
1.05249e-07
6.8464e-06
1.12875e-07
1.13357e-07
6.85053e-06
7.19452e-06
-2.18413e-07
7.20253e-06
-2.09562e-07
7.21351e-06
1.68288e-07
7.19805e-06
-5.32447e-08
7.20902e-06
4.00428e-08
7.20846e-06
1.32403e-07
7.20712e-06
1.19672e-08
7.21479e-06
1.54868e-08
7.21066e-06
7.33872e-09
7.19936e-06
-8.04253e-08
7.19392e-06
-6.81076e-08
7.18257e-06
-4.57228e-08
7.17103e-06
-4.87326e-08
7.16954e-06
-5.38537e-10
7.16783e-06
4.64323e-08
7.16482e-06
6.06364e-08
7.16715e-06
7.81585e-08
7.17202e-06
1.00378e-07
7.17593e-06
1.08967e-07
1.09265e-07
7.18002e-06
7.54097e-06
-1.95155e-07
7.54539e-06
-2.13984e-07
7.5589e-06
1.54772e-07
7.5439e-06
-3.82383e-08
7.55358e-06
3.03607e-08
7.55478e-06
1.31204e-07
7.55166e-06
1.50811e-08
7.55838e-06
8.76975e-09
7.55523e-06
1.04935e-08
7.54346e-06
-6.86608e-08
7.53761e-06
-6.22505e-08
7.52731e-06
-3.54291e-08
7.51574e-06
-3.71604e-08
7.51384e-06
1.35988e-09
7.51312e-06
4.71571e-08
7.51046e-06
6.32908e-08
7.51201e-06
7.66131e-08
7.51681e-06
9.55742e-08
7.52114e-06
1.04637e-07
1.0504e-07
7.52537e-06
7.90406e-06
-1.73399e-07
7.90476e-06
-2.14685e-07
7.92034e-06
1.39187e-07
7.90652e-06
-2.44147e-08
7.91462e-06
2.22648e-08
7.91737e-06
1.28448e-07
7.91312e-06
1.93357e-08
7.91847e-06
3.41414e-09
7.91602e-06
1.29491e-08
7.90423e-06
-5.68729e-08
7.89802e-06
-5.60429e-08
7.8887e-06
-2.61104e-08
7.87715e-06
-2.56118e-08
7.8747e-06
3.80927e-09
7.87489e-06
4.69704e-08
7.87285e-06
6.53351e-08
7.87375e-06
7.57146e-08
7.87821e-06
9.11131e-08
7.88278e-06
1.0006e-07
1.00558e-07
7.88727e-06
8.28453e-06
-1.5325e-07
8.28165e-06
-2.11799e-07
8.29862e-06
1.22217e-07
8.28661e-06
-1.24056e-08
8.29299e-06
1.588e-08
8.29695e-06
1.24493e-07
8.29212e-06
2.41626e-08
8.29606e-06
-5.25399e-10
8.29383e-06
1.5174e-08
8.28224e-06
-4.52751e-08
8.27587e-06
-4.96803e-08
8.26764e-06
-1.78794e-08
8.2562e-06
-1.41734e-08
8.25292e-06
7.09025e-09
8.25387e-06
4.60197e-08
8.25274e-06
6.64676e-08
8.25313e-06
7.53284e-08
8.25711e-06
8.71278e-08
8.26171e-06
9.54617e-08
9.58874e-08
8.26638e-06
8.68317e-06
-1.34762e-07
8.67708e-06
-2.05709e-07
8.69458e-06
1.04719e-07
8.68484e-06
-2.66775e-09
8.68962e-06
1.11032e-08
8.69433e-06
1.19782e-07
8.68931e-06
2.91857e-08
8.69208e-06
-3.30036e-09
8.68975e-06
1.75045e-08
8.67817e-06
-3.36952e-08
8.67185e-06
-4.33616e-08
8.66493e-06
-1.0956e-08
8.65385e-06
-3.09653e-09
8.64946e-06
1.14885e-08
8.65082e-06
4.46519e-08
8.65086e-06
6.6436e-08
8.65098e-06
7.52073e-08
8.65441e-06
8.36914e-08
8.65891e-06
9.09626e-08
9.12831e-08
8.66352e-06
9.10079e-06
-1.17936e-07
9.09209e-06
-1.97002e-07
9.10919e-06
8.76114e-08
9.10195e-06
4.57694e-09
9.10546e-06
7.58914e-09
9.11043e-06
1.14815e-07
9.10541e-06
3.4202e-08
9.10736e-06
-5.24901e-09
9.10488e-06
1.99822e-08
9.09299e-06
-2.17964e-08
9.08664e-06
-3.70198e-08
9.08123e-06
-5.54569e-09
9.07098e-06
7.15694e-09
9.06544e-06
1.703e-08
9.06666e-06
4.34273e-08
9.06781e-06
6.52844e-08
9.0682e-06
7.48225e-08
9.07098e-06
8.09146e-08
9.0753e-06
8.66382e-08
8.69127e-08
9.07967e-06
9.53824e-06
-1.0272e-07
9.52763e-06
-1.86385e-07
9.54348e-06
7.17559e-08
9.53872e-06
9.34316e-09
9.54144e-06
4.86821e-09
9.54629e-06
1.09958e-07
9.54116e-06
3.93408e-08
9.54268e-06
-6.77531e-09
9.54041e-06
2.22589e-08
9.52785e-06
-9.24106e-09
9.52098e-06
-3.01497e-08
9.51728e-06
-1.84471e-09
9.50839e-06
1.60426e-08
9.50195e-06
2.34712e-08
9.5024e-06
4.29794e-08
9.50444e-06
6.32488e-08
9.50555e-06
7.37047e-08
9.50773e-06
7.87384e-08
9.5118e-06
8.25682e-08
8.27929e-08
9.51592e-06
9.99643e-06
-8.90105e-08
9.9846e-06
-1.74561e-07
9.99857e-06
5.77868e-08
9.99599e-06
1.1925e-08
9.99843e-06
2.42214e-09
1.00031e-05
1.05297e-07
9.99745e-06
4.49876e-08
9.99874e-06
-8.06384e-09
9.99733e-06
2.3669e-08
9.98413e-06
3.95382e-09
9.97601e-06
-2.20235e-08
9.97374e-06
4.16659e-10
9.96687e-06
2.29172e-08
9.95997e-06
3.03678e-08
9.95926e-06
4.36969e-08
9.96171e-06
6.07916e-08
9.96368e-06
7.17376e-08
9.96572e-06
7.67018e-08
9.96935e-06
7.89327e-08
7.87991e-08
9.97335e-06
1.04763e-05
-7.66624e-08
1.04639e-05
-1.62186e-07
1.04756e-05
4.60742e-08
1.04747e-05
1.28697e-08
1.04774e-05
-2.48947e-10
1.04819e-05
1.0076e-07
1.04755e-05
5.14063e-08
1.04762e-05
-8.83064e-09
1.04765e-05
2.34098e-08
1.04632e-05
1.72201e-08
1.04531e-05
-1.19247e-08
1.04515e-05
2.02931e-09
1.04471e-05
2.73858e-08
1.04404e-05
3.70042e-08
1.04385e-05
4.55962e-08
1.04408e-05
5.85558e-08
1.04435e-05
6.90181e-08
1.04459e-05
7.42835e-08
1.0449e-05
7.57872e-08
7.48793e-08
1.0453e-05
1.09789e-05
-6.55057e-08
1.09665e-05
-1.49834e-07
1.09759e-05
3.67218e-08
1.09759e-05
1.28659e-08
1.09791e-05
-3.46594e-09
1.09838e-05
9.60574e-08
1.09765e-05
5.86836e-08
1.09762e-05
-8.48922e-09
1.09786e-05
2.10213e-08
1.09663e-05
2.94418e-08
1.09539e-05
4.67515e-10
1.09518e-05
4.1278e-09
1.09497e-05
2.95274e-08
1.09442e-05
4.25227e-08
1.09413e-05
4.84456e-08
1.09428e-05
5.70954e-08
1.0946e-05
6.58352e-08
1.0949e-05
7.12311e-08
1.0952e-05
7.28089e-08
7.11475e-08
1.09557e-05
1.15052e-05
-5.53736e-08
1.14934e-05
-1.37973e-07
1.15005e-05
2.96242e-08
1.15007e-05
1.26228e-08
1.15046e-05
-7.32976e-09
1.15098e-05
9.07851e-08
1.15019e-05
6.66307e-08
1.14997e-05
-6.24412e-09
1.15042e-05
1.65073e-08
1.14942e-05
3.94273e-08
1.148e-05
1.4623e-08
1.14761e-05
8.0235e-09
1.14758e-05
2.98204e-08
1.14721e-05
4.62611e-08
1.14687e-05
5.18206e-08
1.14692e-05
5.6581e-08
1.14724e-05
6.27256e-08
1.1476e-05
6.76118e-08
1.14792e-05
6.95879e-08
6.76978e-08
1.14826e-05
1.20566e-05
-4.61235e-08
1.20455e-05
-1.2689e-07
1.20507e-05
2.44329e-08
1.20505e-05
1.28126e-08
1.20548e-05
-1.16474e-08
1.20611e-05
8.44912e-08
1.20529e-05
7.48162e-08
1.20482e-05
-1.53148e-09
1.2054e-05
1.06775e-08
1.20475e-05
4.59527e-08
1.20326e-05
2.95541e-08
1.20262e-05
1.44134e-08
1.20267e-05
2.93429e-08
1.2025e-05
4.79178e-08
1.20218e-05
5.50373e-08
1.20214e-05
5.69375e-08
1.20239e-05
6.0231e-08
1.20279e-05
6.36892e-08
1.20315e-05
6.58994e-08
6.43799e-08
1.20349e-05
1.26341e-05
-3.76536e-08
1.26239e-05
-1.167e-07
1.26277e-05
2.06677e-08
1.26265e-05
1.3971e-08
1.26309e-05
-1.60501e-08
1.26385e-05
7.6895e-08
1.26308e-05
8.25565e-08
1.26234e-05
5.86301e-09
1.26292e-05
4.90289e-09
1.2627e-05
4.81784e-08
1.26126e-05
4.38777e-08
1.26038e-05
2.32814e-08
1.26037e-05
2.94269e-08
1.26039e-05
4.7715e-08
1.26017e-05
5.72239e-08
1.26006e-05
5.80034e-08
1.26023e-05
5.85849e-08
1.26061e-05
5.99061e-08
1.26102e-05
6.17365e-08
6.0926e-08
1.26137e-05
1.32392e-05
-2.99034e-08
1.32298e-05
-1.07365e-07
1.32327e-05
1.77802e-08
1.32303e-05
1.64007e-08
1.32342e-05
-1.99694e-08
1.32433e-05
6.78664e-08
1.32368e-05
8.90506e-08
1.32269e-05
1.57563e-08
1.32311e-05
6.59305e-10
1.32332e-05
4.61057e-08
1.32211e-05
5.59174e-08
1.32102e-05
3.41811e-08
1.32086e-05
3.11187e-08
1.32101e-05
4.62096e-08
1.32094e-05
5.78529e-08
1.32082e-05
5.92641e-08
1.32091e-05
5.77014e-08
1.32122e-05
5.67459e-08
1.32166e-05
5.73286e-08
5.70833e-08
1.32205e-05
1.38731e-05
-2.28697e-08
1.38645e-05
-9.86901e-08
1.3867e-05
1.52663e-08
1.38633e-05
2.00432e-08
1.3866e-05
-2.26459e-08
1.38764e-05
5.74808e-08
1.38719e-05
9.35201e-08
1.38602e-05
2.74962e-08
1.38615e-05
-6.68292e-10
1.38671e-05
4.05442e-08
1.38588e-05
6.41656e-08
1.38469e-05
4.61112e-08
1.38431e-05
3.48602e-08
1.3845e-05
4.43305e-08
1.3846e-05
5.6888e-08
1.38453e-05
5.99754e-08
1.38457e-05
5.72425e-08
1.38481e-05
5.43467e-08
1.38525e-05
5.30099e-08
5.28974e-08
1.38566e-05
1.45374e-05
-1.65921e-08
1.45291e-05
-9.03582e-08
1.45317e-05
1.26386e-08
1.4527e-05
2.46926e-08
1.45278e-05
-2.34287e-08
1.45393e-05
4.60376e-08
1.45374e-05
9.53403e-08
1.45247e-05
4.02381e-08
1.45225e-05
1.48652e-09
1.45299e-05
3.31773e-08
1.45264e-05
6.77028e-08
1.45149e-05
5.76163e-08
1.45091e-05
4.05778e-08
1.45105e-05
4.29877e-08
1.45127e-05
5.46359e-08
1.45131e-05
5.96371e-08
1.45134e-05
5.69271e-08
1.45152e-05
5.25891e-08
1.4519e-05
4.92038e-08
4.84528e-08
1.45234e-05
1.52334e-05
-1.11505e-08
1.52251e-05
-8.20147e-08
1.52281e-05
9.59252e-09
1.52229e-05
2.98964e-08
1.52214e-05
-2.18855e-08
1.52332e-05
3.42188e-08
1.52344e-05
9.41412e-08
1.52218e-05
5.28321e-08
1.52162e-05
7.09784e-09
1.52234e-05
2.59918e-08
1.52246e-05
6.65193e-08
1.52151e-05
6.70565e-08
1.5208e-05
4.77386e-08
1.5208e-05
4.29413e-08
1.52112e-05
5.14611e-08
1.52128e-05
5.80253e-08
1.52133e-05
5.64121e-08
1.52148e-05
5.11523e-08
1.52176e-05
4.63509e-08
4.39912e-08
1.52221e-05
1.59628e-05
-6.62288e-09
1.59542e-05
-7.33704e-08
1.59577e-05
6.05477e-09
1.59525e-05
3.50438e-08
1.59485e-05
-1.78427e-08
1.59599e-05
2.28655e-08
1.59641e-05
8.99006e-08
1.59528e-05
6.41667e-08
1.59443e-05
1.55345e-08
1.59495e-05
2.08379e-08
1.59547e-05
6.13126e-08
1.59487e-05
7.30869e-08
1.59409e-05
5.54778e-08
1.59394e-05
4.44475e-08
1.59428e-05
4.81018e-08
1.59457e-05
5.50497e-08
1.59469e-05
5.52825e-08
1.59481e-05
4.99485e-08
1.59502e-05
4.4218e-08
4.02235e-08
1.5954e-05
1.6727e-05
-3.06785e-09
1.67179e-05
-6.4239e-08
1.67218e-05
2.18654e-09
1.67174e-05
3.94457e-08
1.6711e-05
-1.14465e-08
1.67209e-05
1.29797e-08
1.67279e-05
8.28707e-08
1.67188e-05
7.3264e-08
1.67086e-05
2.5708e-08
1.67106e-05
1.88687e-08
1.67183e-05
5.36525e-08
1.67164e-05
7.49354e-08
1.67092e-05
6.26802e-08
1.67064e-05
4.72368e-08
1.6709e-05
4.54803e-08
1.6713e-05
5.10656e-08
1.67152e-05
5.31043e-08
1.67163e-05
4.88767e-08
1.6718e-05
4.25139e-08
3.75581e-08
1.67206e-05
1.75278e-05
-4.90192e-10
1.75182e-05
-5.46278e-08
1.7522e-05
-1.64454e-09
1.75189e-05
4.25046e-08
1.75107e-05
-3.1789e-09
1.75181e-05
5.5444e-09
1.75274e-05
7.35383e-08
1.75212e-05
7.94573e-08
1.75105e-05
3.64707e-08
1.75093e-05
2.01038e-08
1.75172e-05
4.56975e-08
1.75195e-05
7.2629e-08
1.75142e-05
6.80419e-08
1.75104e-05
5.09898e-08
1.75118e-05
4.40901e-08
1.75161e-05
4.67988e-08
1.75193e-05
4.98392e-08
1.75207e-05
4.75416e-08
1.75218e-05
4.13698e-08
3.57581e-08
1.75236e-05
1.83667e-05
1.15471e-09
1.83568e-05
-4.46976e-08
1.83601e-05
-4.94412e-09
1.83587e-05
4.38301e-08
1.83494e-05
6.14631e-09
1.83536e-05
1.32451e-09
1.83644e-05
6.27919e-08
1.83616e-05
8.22395e-08
1.83513e-05
4.67782e-08
1.83475e-05
2.38968e-08
1.8354e-05
3.92061e-08
1.83595e-05
6.71705e-08
1.8357e-05
7.04892e-08
1.83529e-05
5.51348e-08
1.8353e-05
4.3971e-08
1.83567e-05
4.31058e-08
1.83605e-05
4.59961e-08
1.83625e-05
4.55348e-08
1.83632e-05
4.06434e-08
3.45348e-08
1.83645e-05
1.92456e-05
1.97668e-09
1.92356e-05
-3.47353e-08
1.92379e-05
-7.26872e-09
1.92384e-05
4.33757e-08
1.9229e-05
1.55621e-08
1.92297e-05
5.61601e-10