/*--------------------------------*- C++ -*----------------------------------*\
| =========                 |                                                 |
| \\      /  F ield         | OpenFOAM: The Open Source CFD Toolbox           |
|  \\    /   O peration     | Version:  v1812                                 |
|   \\  /    A nd           | Web:      www.OpenFOAM.com                      |
|    \\/     M anipulation  |                                                 |
\*---------------------------------------------------------------------------*/
FoamFile
{
    version     2.0;
    format      ascii;
    class       volVectorField;
    location    "0.5";
    object      U;
}
// * * * * * * * * * * * * * * * * * * * * * * * * * * * * * * * * * * * * * //

dimensions      [0 1 -1 0 0 0 0];


internalField   nonuniform List<vector> 
9600
(
(0.870377 -0.00919203 0)
(1.12983 0.00457823 0)
(0.878296 0.000810221 0)
(1.14112 -0.000581679 0)
(0.900377 0.00195148 0)
(1.14667 0.00332441 0)
(0.899115 0.00222044 0)
(1.10212 0.00151317 0)
(0.944839 -0.000124664 0)
(1.09347 -0.0125075 0)
(0.929447 -9.62376e-05 0)
(1.13005 -0.0172269 0)
(0.907476 0.000499414 0)
(1.15557 -0.00469287 0)
(0.882147 0.000444762 0)
(1.14464 0.00420374 0)
(0.866894 0.00278246 0)
(1.13533 0.00548881 0)
(0.857141 0.00936438 0)
(1.12729 0.00697336 0)
(0.881687 -0.00926702 0)
(1.12288 0.00463599 0)
(0.896005 0.000545162 0)
(1.13038 -0.000591085 0)
(0.918229 0.0017079 0)
(1.13176 0.00349326 0)
(0.922717 0.00255224 0)
(1.08501 0.00112713 0)
(0.96651 -0.000233149 0)
(1.0689 -0.0119921 0)
(0.950095 -0.00113152 0)
(1.09696 -0.0165273 0)
(0.932499 -0.000386908 0)
(1.11569 -0.00389173 0)
(0.925975 0.000461446 0)
(1.09119 0.00465533 0)
(0.936433 0.00321978 0)
(1.058 0.00521814 0)
(0.958329 0.0107883 0)
(1.01019 0.00550734 0)
(0.899246 -0.0093473 0)
(1.10718 0.0046082 0)
(0.92601 0.000393171 0)
(1.10884 -0.000627786 0)
(0.949295 0.00154812 0)
(1.10579 0.00361672 0)
(0.958507 0.00290091 0)
(1.06161 0.00080546 0)
(0.992032 -0.000103928 0)
(1.03974 -0.011681 0)
(0.975938 -0.00164881 0)
(1.05918 -0.0161534 0)
(0.967595 -0.000866268 0)
(1.07038 -0.00371067 0)
(0.977171 0.000875442 0)
(1.04195 0.00447929 0)
(0.989434 0.0039056 0)
(1.01585 0.00489305 0)
(0.995652 0.0114317 0)
(0.998036 0.00629904 0)
(0.920026 -0.00941026 0)
(1.08455 0.00443467 0)
(0.958514 0.00031868 0)
(1.08064 -0.000721989 0)
(0.981622 0.00149385 0)
(1.07697 0.00361883 0)
(0.990813 0.00324011 0)
(1.04169 0.000591145 0)
(1.00946 0.000132456 0)
(1.01662 -0.0113998 0)
(0.993691 -0.00194462 0)
(1.02898 -0.0160153 0)
(0.991878 -0.00110314 0)
(1.04042 -0.00392046 0)
(1.0066 0.00138813 0)
(1.02295 0.00424562 0)
(1.0109 0.00439016 0)
(1.0116 0.0048642 0)
(1.00555 0.0117173 0)
(1.00821 0.00717162 0)
(0.940894 -0.00943591 0)
(1.05951 0.00413364 0)
(0.985086 0.000321125 0)
(1.05261 -0.00085167 0)
(1.0052 0.00146143 0)
(1.05181 0.00358187 0)
(1.01078 0.00352245 0)
(1.02848 0.000513895 0)
(1.01615 0.000437296 0)
(1.00273 -0.011115 0)
(1.00065 -0.00214603 0)
(1.0094 -0.0159435 0)
(1.0009 -0.0014066 0)
(1.0239 -0.00420105 0)
(1.01585 0.00166253 0)
(1.01959 0.00412572 0)
(1.01833 0.0046601 0)
(1.01614 0.00500144 0)
(1.01311 0.0118723 0)
(1.0159 0.00776877 0)
(0.959229 -0.0094153 0)
(1.0367 0.00376504 0)
(1.00176 0.00036765 0)
(1.03019 -0.000980302 0)
(1.01672 0.00141841 0)
(1.03279 0.00356455 0)
(1.01813 0.00370382 0)
(1.02026 0.00055341 0)
(1.0157 0.000769421 0)
(0.996023 -0.0108425 0)
(1.00103 -0.00226448 0)
(0.998163 -0.0158743 0)
(1.00044 -0.00178462 0)
(1.01327 -0.00446159 0)
(1.01481 0.00162017 0)
(1.01788 0.00400339 0)
(1.0204 0.00473996 0)
(1.01882 0.0051102 0)
(1.01856 0.0118194 0)
(1.02076 0.00833201 0)
(0.973632 -0.00935207 0)
(1.01894 0.00339257 0)
(1.00906 0.0004257 0)
(1.0152 -0.00108019 0)
(1.0185 0.00136592 0)
(1.01937 0.00357179 0)
(1.0173 0.0037885 0)
(1.01456 0.00065134 0)
(1.01259 0.00108284 0)
(0.99365 -0.0105832 0)
(0.999357 -0.00231382 0)
(0.992497 -0.0157765 0)
(0.996691 -0.0021578 0)
(1.00505 -0.00472428 0)
(1.01 0.00138515 0)
(1.01426 0.00380045 0)
(1.01911 0.00463756 0)
(1.0186 0.00516848 0)
(1.0203 0.0115987 0)
(1.02256 0.00893266 0)
(0.983954 -0.00925702 0)
(1.00682 0.00306304 0)
(1.00997 0.000472702 0)
(1.00648 -0.00114244 0)
(1.01492 0.00131589 0)
(1.01013 0.00358919 0)
(1.01307 0.00380461 0)
(1.01023 0.000753016 0)
(1.00951 0.00134703 0)
(0.993633 -0.0103373 0)
(0.997951 -0.0023231 0)
(0.990355 -0.0156228 0)
(0.993046 -0.00248331 0)
(0.998772 -0.00495659 0)
(1.00452 0.00106367 0)
(1.00943 0.00351721 0)
(1.01554 0.00441302 0)
(1.01603 0.00521003 0)
(1.01875 0.0112712 0)
(1.02131 0.00952962 0)
(0.990846 -0.00914156 0)
(0.999423 0.002796 0)
(1.00771 0.000499374 0)
(1.00184 -0.00117121 0)
(1.0097 0.00128049 0)
(1.004 0.0036025 0)
(1.00859 0.00377391 0)
(1.00704 0.000825653 0)
(1.00742 0.00154817 0)
(0.994735 -0.0101057 0)
(0.997382 -0.002311 0)
(0.990251 -0.0154065 0)
(0.99058 -0.00274811 0)
(0.99448 -0.00510946 0)
(0.999696 0.000688469 0)
(1.00449 0.00322387 0)
(1.01084 0.00411669 0)
(1.01193 0.00524058 0)
(1.01499 0.010869 0)
(1.01781 0.0100756 0)
(0.995237 -0.00901458 0)
(0.995369 0.00258842 0)
(1.00458 0.000510914 0)
(0.999477 -0.00117808 0)
(1.00488 0.00126258 0)
(1.00023 0.00359992 0)
(1.00515 0.00371206 0)
(1.00486 0.000859877 0)
(1.00628 0.00168705 0)
(0.99619 -0.0098837 0)
(0.99743 -0.00229018 0)
(0.991115 -0.0151308 0)
(0.989231 -0.00295033 0)
(0.991888 -0.00517203 0)
(0.995931 0.000292954 0)
(1.00007 0.00298619 0)
(1.00594 0.00377041 0)
(1.00713 0.00527425 0)
(1.01011 0.0104372 0)
(1.01308 0.0105382 0)
(0.99798 -0.00888186 0)
(0.993371 0.0024279 0)
(1.00171 0.000514523 0)
(0.998307 -0.00117292 0)
(1.00113 0.00125732 0)
(0.998176 0.00357484 0)
(1.00294 0.00363293 0)
(1.00343 0.00085969 0)
(1.00574 0.00177288 0)
(0.997576 -0.00966459 0)
(0.997702 -0.00227053 0)
(0.992272 -0.0147985 0)
(0.988597 -0.00310683 0)
(0.990468 -0.00514587 0)
(0.993168 -8.79127e-05 0)
(0.996352 0.00282556 0)
(1.00139 0.00340685 0)
(1.0023 0.00533696 0)
(1.00494 0.0100231 0)
(1.00796 0.0108867 0)
(0.999704 -0.00874626 0)
(0.992481 0.00230107 0)
(0.999435 0.000516074 0)
(0.997769 -0.00116198 0)
(0.998453 0.00125891 0)
(0.997181 0.00352549 0)
(1.00163 0.00354794 0)
(1.00242 0.000834284 0)
(1.00539 0.00181672 0)
(0.998716 -0.00944272 0)
(0.997911 -0.00225753 0)
(0.993372 -0.014416 0)
(0.988315 -0.00323746 0)
(0.989721 -0.0050326 0)
(0.991199 -0.000441104 0)
(0.993324 0.00274614 0)
(0.997446 0.00306406 0)
(0.997882 0.00543449 0)
(1.00009 0.00966117 0)
(1.00309 0.0111019 0)
(1.0008 -0.00860831 0)
(0.992108 0.00219648 0)
(0.99777 0.000520977 0)
(0.997566 -0.00114909 0)
(0.99662 0.00126481 0)
(0.996725 0.00345319 0)
(1.00087 0.00346518 0)
(1.00165 0.000793203 0)
(1.00504 0.00182579 0)
(0.999563 -0.00921451 0)
(0.997946 -0.00225447 0)
(0.994276 -0.0139898 0)
(0.988184 -0.00335544 0)
(0.989313 -0.00484068 0)
(0.98985 -0.000763501 0)
(0.990937 0.00274699 0)
(0.994261 0.00276688 0)
(0.994183 0.00554992 0)
(0.995936 0.00938069 0)
(0.998874 0.0111832 0)
(1.0015 -0.00846705 0)
(0.991944 0.00210547 0)
(0.996611 0.000529248 0)
(0.997526 -0.00113746 0)
(0.995427 0.00127516 0)
(0.996488 0.00336153 0)
(1.00039 0.00338822 0)
(1.00104 0.000743651 0)
(1.00462 0.001805 0)
(1.00013 -0.00897807 0)
(0.99783 -0.0022651 0)
(0.994946 -0.013523 0)
(0.988142 -0.00347308 0)
(0.989074 -0.0045809 0)
(0.989007 -0.00105393 0)
(0.989173 0.00281646 0)
(0.991891 0.00253191 0)
(0.991377 0.00565658 0)
(0.992722 0.00919932 0)
(0.995585 0.011144 0)
(1.00193 -0.00832078 0)
(0.991872 0.00202081 0)
(0.99585 0.00054201 0)
(0.99755 -0.00112949 0)
(0.994712 0.00129118 0)
(0.996334 0.00325418 0)
(1.00007 0.00331791 0)
(1.00059 0.000690784 0)
(1.00418 0.00176093 0)
(1.00046 -0.00873126 0)
(0.997642 -0.00229082 0)
(0.995393 -0.0130212 0)
(0.98819 -0.00359654 0)
(0.988939 -0.00427096 0)
(0.988583 -0.00131591 0)
(0.988004 0.00293292 0)
(0.990312 0.00236815 0)
(0.989514 0.00572581 0)
(0.990517 0.00911829 0)
(0.993308 0.0110157 0)
(1.00215 -0.00816781 0)
(0.991861 0.00193631 0)
(0.995388 0.000561756 0)
(0.997592 -0.00112696 0)
(0.994341 0.00131414 0)
(0.99623 0.00313425 0)
(0.999855 0.00325279 0)
(1.0003 0.000638244 0)
(1.00378 0.00169879 0)
(1.0006 -0.00847246 0)
(0.997452 -0.00233192 0)
(0.995658 -0.0124877 0)
(0.988332 -0.00373001 0)
(0.988885 -0.00392498 0)
(0.988479 -0.00156104 0)
(0.987353 0.00306644 0)
(0.989403 0.00228535 0)
(0.988495 0.00573767 0)
(0.989227 0.00911648 0)
(0.991955 0.0108344 0)
(1.00225 -0.00800688 0)
(0.991907 0.00184713 0)
(0.995134 0.00058932 0)
(0.997636 -0.00113173 0)
(0.994197 0.00134447 0)
(0.996174 0.0030047 0)
(0.999705 0.00318983 0)
(1.00013 0.00058713 0)
(1.00344 0.00162425 0)
(1.00063 -0.00820025 0)
(0.997291 -0.00239046 0)
(0.995795 -0.0119224 0)
(0.988556 -0.00387563 0)
(0.988896 -0.0035522 0)
(0.988588 -0.00178738 0)
(0.987096 0.00318705 0)
(0.988982 0.00229275 0)
(0.98812 0.00569144 0)
(0.988644 0.00915966 0)
(0.991313 0.010632 0)
(1.00226 -0.00783722 0)
(0.992001 0.00174965 0)
(0.995009 0.000626247 0)
(0.99768 -0.0011443 0)
(0.994185 0.00138163 0)
(0.996161 0.0028684 0)
(0.999601 0.00312686 0)
(1.00003 0.000537321 0)
(1.00316 0.00153832 0)
(1.00059 -0.00791109 0)
(0.997163 -0.00246644 0)
(0.995853 -0.0113304 0)
(0.988835 -0.00403019 0)
(0.988957 -0.0031683 0)
(0.988817 -0.00198192 0)
(0.987099 0.00326881 0)
(0.988864 0.00238615 0)
(0.988159 0.0055958 0)
(0.988524 0.00921152 0)
(0.991129 0.0104405 0)
(1.00224 -0.0076584 0)
(0.992129 0.00164163 0)
(0.994954 0.000673459 0)
(0.997725 -0.00116483 0)
(0.994242 0.001425 0)
(0.996178 0.00272589 0)
(0.999526 0.00306464 0)
(0.999979 0.000491562 0)
(1.00292 0.00143955 0)
(1.00052 -0.00760439 0)
(0.997061 -0.00255819 0)
(0.99587 -0.0107193 0)
(0.989146 -0.004185 0)
(0.989048 -0.00278585 0)
(0.989101 -0.00213162 0)
(0.987253 0.00329396 0)
(0.988907 0.00255407 0)
(0.988426 0.00546626 0)
(0.988665 0.00923831 0)
(0.991192 0.0102799 0)
(1.0022 -0.00747031 0)
(0.992278 0.00152189 0)
(0.994933 0.000731782 0)
(0.997771 -0.00119442 0)
(0.994328 0.00147459 0)
(0.996212 0.00257788 0)
(0.999467 0.003002 0)
(0.999942 0.000452825 0)
(1.0027 0.00133327 0)
(1.00043 -0.00727756 0)
(0.996974 -0.00266519 0)
(0.995869 -0.0100924 0)
(0.989475 -0.00434321 0)
(0.989158 -0.00241864 0)
(0.989404 -0.00222737 0)
(0.987489 0.00325613 0)
(0.989021 0.00277963 0)
(0.988797 0.00532457 0)
(0.988937 0.00921624 0)
(0.991361 0.010151 0)
(1.00215 -0.00727295 0)
(0.99244 0.00138994 0)
(0.994925 0.000801597 0)
(0.99782 -0.00123271 0)
(0.994427 0.00152934 0)
(0.996255 0.00242765 0)
(0.999417 0.00293534 0)
(0.99991 0.000419782 0)
(1.00248 0.00121563 0)
(1.00034 -0.00692955 0)
(0.996897 -0.00278269 0)
(0.995858 -0.00945947 0)
(0.989815 -0.00449357 0)
(0.989283 -0.00208121 0)
(0.989709 -0.00226003 0)
(0.987775 0.00316534 0)
(0.989165 0.00303622 0)
(0.989207 0.00518682 0)
(0.989272 0.0091355 0)
(0.991563 0.0100527 0)
(1.0021 -0.00706598 0)
(0.992611 0.00124491 0)
(0.994923 0.000882848 0)
(0.997872 -0.00127851 0)
(0.99453 0.001587 0)
(0.9963 0.00227651 0)
(0.999372 0.00286328 0)
(0.999877 0.000397356 0)
(1.00228 0.00107936 0)
(1.00024 -0.00656366 0)
(0.99683 -0.002907 0)
(0.995842 -0.00882979 0)
(0.990161 -0.00461474 0)
(0.989421 -0.00178066 0)
(0.990008 -0.0022221 0)
(0.988095 0.00304002 0)
(0.989322 0.00330028 0)
(0.989625 0.00506657 0)
(0.98964 0.00900077 0)
(0.991766 0.00998285 0)
(1.00204 -0.00684961 0)
(0.992789 0.00108699 0)
(0.994925 0.000975324 0)
(0.997927 -0.00133162 0)
(0.994635 0.00164767 0)
(0.996347 0.00212506 0)
(0.999332 0.0027839 0)
(0.999842 0.000388034 0)
(1.00208 0.00093046 0)
(1.00014 -0.00618419 0)
(0.99677 -0.00303071 0)
(0.995826 -0.00821046 0)
(0.990511 -0.00469882 0)
(0.989575 -0.00152815 0)
(0.990299 -0.00212691 0)
(0.988443 0.00288539 0)
(0.98949 0.00355533 0)
(0.990038 0.00497085 0)
(0.990034 0.00881559 0)
(0.991963 0.00992731 0)
(1.00199 -0.00662397 0)
(0.992974 0.000916805 0)
(0.994929 0.00107799 0)
(0.997985 -0.00139139 0)
(0.994743 0.00170908 0)
(0.996393 0.00197924 0)
(0.999297 0.00269029 0)
(0.999805 0.000395538 0)
(1.00189 0.000764593 0)
(1.00004 -0.00579489 0)
(0.996719 -0.00314349 0)
(0.995809 -0.00761787 0)
(0.990862 -0.00473528 0)
(0.989745 -0.00132226 0)
(0.990583 -0.0019797 0)
(0.988818 0.00271176 0)
(0.98967 0.00379273 0)
(0.990439 0.00490263 0)
(0.99045 0.00857986 0)
(0.992153 0.00987097 0)
(1.00193 -0.0063892 0)
(0.993168 0.000734281 0)
(0.994935 0.00119094 0)
(0.998047 -0.00145446 0)
(0.994853 0.00176779 0)
(0.996439 0.00184328 0)
(0.999266 0.0025828 0)
(0.999766 0.000421627 0)
(1.0017 0.000590983 0)
(0.999941 -0.00540312 0)
(0.996676 -0.00323897 0)
(0.995794 -0.00706561 0)
(0.991213 -0.00471565 0)
(0.989933 -0.00115407 0)
(0.990859 -0.00178418 0)
(0.989216 0.00253558 0)
(0.989865 0.00400479 0)
(0.990825 0.00486361 0)
(0.990886 0.00829685 0)
(0.992343 0.00980114 0)
(1.00187 -0.00614544 0)
(0.993369 0.000540354 0)
(0.994944 0.00131216 0)
(0.998112 -0.00152048 0)
(0.994968 0.00182092 0)
(0.996484 0.00171721 0)
(0.999242 0.00245982 0)
(0.999724 0.00046505 0)
(1.00151 0.000413314 0)
(0.999839 -0.00501723 0)
(0.996639 -0.00330613 0)
(0.995783 -0.00655634 0)
(0.991561 -0.00464687 0)
(0.990141 -0.00102028 0)
(0.991128 -0.0015568 0)
(0.989636 0.00236541 0)
(0.99008 0.00418252 0)
(0.99119 0.00485498 0)
(0.99134 0.00797553 0)
(0.992544 0.00970027 0)
(1.00181 -0.00589317 0)
(0.993579 0.000335707 0)
(0.994956 0.00144059 0)
(0.998181 -0.00158732 0)
(0.995088 0.00186471 0)
(0.996527 0.00161046 0)
(0.999224 0.00231219 0)
(0.999679 0.000526385 0)
(1.00133 0.000227242 0)
(0.999738 -0.00464353 0)
(0.996609 -0.00333421 0)
(0.995778 -0.00609098 0)
(0.991908 -0.00453613 0)
(0.990368 -0.000908304 0)
(0.991392 -0.00131006 0)
(0.990072 0.00220955 0)
(0.990318 0.00432314 0)
(0.991533 0.00487752 0)
(0.991807 0.00762992 0)
(0.992766 0.00955205 0)
(1.00175 -0.00563282 0)
(0.993797 0.000121914 0)
(0.994972 0.0015734 0)
(0.998252 -0.00165006 0)
(0.995214 0.00189649 0)
(0.996568 0.0015302 0)
(0.999213 0.00213756 0)
(0.999633 0.000602834 0)
(1.00116 4.30381e-05 0)
(0.99964 -0.00429613 0)
(0.996584 -0.00331643 0)
(0.995778 -0.00566459 0)
(0.992252 -0.00439058 0)
(0.990615 -0.000808958 0)
(0.991651 -0.00105916 0)
(0.990524 0.00206854 0)
(0.990581 0.00442236 0)
(0.991853 0.00492845 0)
(0.99228 0.00727393 0)
(0.993019 0.00934162 0)
(1.00169 -0.00536514 0)
(0.994025 -9.59561e-05 0)
(0.994992 0.00170692 0)
(0.998325 -0.00170621 0)
(0.995348 0.00191091 0)
(0.996606 0.00147604 0)
(0.99921 0.00193782 0)
(0.999587 0.000687588 0)
(1.00099 -0.000128275 0)
(0.999548 -0.00398228 0)
(0.996564 -0.003255 0)
(0.995783 -0.00527131 0)
(0.992594 -0.00421785 0)
(0.990882 -0.000712571 0)
(0.991907 -0.000796239 0)
(0.990986 0.00194218 0)
(0.990875 0.00447184 0)
(0.99215 0.00500139 0)
(0.992749 0.00692896 0)
(0.993311 0.00906166 0)
(1.00162 -0.00509129 0)
(0.994262 -0.000321573 0)
(0.995018 0.00184025 0)
(0.998398 -0.00174936 0)
(0.99549 0.00190346 0)
(0.996642 0.00145206 0)
(0.999214 0.00171747 0)
(0.999542 0.000776249 0)
(1.00083 -0.000269583 0)
(0.999462 -0.00370654 0)
(0.996551 -0.00315193 0)
(0.995795 -0.00490226 0)
(0.992935 -0.00402529 0)
(0.991168 -0.000610757 0)
(0.992159 -0.000528896 0)
(0.991454 0.00183049 0)
(0.9912 0.0044706 0)
(0.992427 0.005087 0)
(0.993204 0.00661783 0)
(0.993645 0.0087135 0)
(1.00156 -0.0048116 0)
(0.994508 -0.000554663 0)
(0.995051 0.00196786 0)
(0.998471 -0.00177619 0)
(0.995641 0.00186927 0)
(0.996674 0.00146352 0)
(0.999226 0.00148168 0)
(0.999501 0.000861586 0)
(1.00067 -0.000377143 0)
(0.999385 -0.00347151 0)
(0.996545 -0.00301442 0)
(0.995811 -0.00454317 0)
(0.993276 -0.00382695 0)
(0.991474 -0.000505707 0)
(0.992406 -0.000267451 0)
(0.991923 0.00173537 0)
(0.99156 0.00442043 0)
(0.992691 0.00517004 0)
(0.993633 0.00635487 0)
(0.994019 0.00830915 0)
(1.0015 -0.00452795 0)
(0.994764 -0.000785845 0)
(0.995092 0.00208377 0)
(0.998543 -0.00178098 0)
(0.995803 0.00180637 0)
(0.996702 0.00150385 0)
(0.999244 0.00123965 0)
(0.999467 0.000929328 0)
(1.00051 -0.000442899 0)
(0.999318 -0.00327354 0)
(0.996549 -0.00285277 0)
(0.995833 -0.00418664 0)
(0.993616 -0.00362926 0)
(0.991801 -0.000404519 0)
(0.99265 -1.1548e-06 0)
(0.992386 0.00166447 0)
(0.991954 0.00432297 0)
(0.992951 0.00523464 0)
(0.994028 0.00614781 0)
(0.994423 0.00787193 0)
(1.00143 -0.00424101 0)
(0.995028 -0.00101698 0)
(0.995142 0.00218351 0)
(0.998614 -0.00175713 0)
(0.995975 0.00171436 0)
(0.996726 0.00156501 0)
(0.999267 0.000999679 0)
(0.999441 0.000971031 0)
(1.00035 -0.000461173 0)
(0.999259 -0.00310435 0)
(0.996565 -0.00267651 0)
(0.995858 -0.00382457 0)
(0.993955 -0.00342469 0)
(0.992149 -0.000316496 0)
(0.992892 0.00026647 0)
(0.992838 0.00162322 0)
(0.992379 0.00418477 0)
(0.993216 0.005271 0)
(0.994383 0.00599981 0)
(0.994841 0.00743227 0)
(1.00137 -0.00395333 0)
(0.995301 -0.00124417 0)
(0.995202 0.0022613 0)
(0.998682 -0.00170418 0)
(0.996158 0.00159735 0)
(0.996748 0.00164477 0)
(0.999292 0.000773112 0)
(0.999428 0.000978317 0)
(1.0002 -0.000435301 0)
(0.999209 -0.00295557 0)
(0.996597 -0.00249715 0)
(0.995888 -0.00345199 0)
(0.994289 -0.00320458 0)
(0.992521 -0.000244534 0)
(0.993135 0.000531802 0)
(0.993272 0.00161833 0)
(0.99283 0.00401484 0)
(0.993496 0.00526181 0)
(0.9947 0.00590246 0)
(0.995252 0.00703048 0)
(1.0013 -0.00366602 0)
(0.99558 -0.00146089 0)
(0.995275 0.00231323 0)
(0.998747 -0.00161665 0)
(0.996354 0.00145868 0)
(0.996767 0.00173243 0)
(0.999317 0.000574663 0)
(0.999428 0.000945815 0)
(1.00004 -0.000375095 0)
(0.999166 -0.00281489 0)
(0.996647 -0.00232692 0)
(0.995923 -0.00306465 0)
(0.994616 -0.00297295 0)
(0.992915 -0.00019078 0)
(0.993386 0.00077787 0)
(0.993683 0.00164372 0)
(0.993299 0.00382935 0)
(0.993802 0.00519779 0)
(0.994987 0.00583006 0)
(0.995637 0.00669984 0)
(1.00123 -0.00338089 0)
(0.995866 -0.00166584 0)
(0.995361 0.00233379 0)
(0.998808 -0.00149546 0)
(0.996559 0.00129989 0)
(0.996787 0.00182242 0)
(0.999338 0.000410302 0)
(0.999444 0.000871561 0)
(0.999895 -0.000286146 0)
(0.999126 -0.00266825 0)
(0.996719 -0.00217707 0)
(0.995966 -0.00267229 0)
(0.994931 -0.00272342 0)
(0.99333 -0.00015392 0)
(0.993647 0.000999367 0)
(0.99407 0.00169475 0)
(0.993778 0.00364333 0)
(0.994137 0.00508852 0)
(0.99526 0.00574618 0)
(0.995983 0.00644428 0)
(1.00117 -0.0031008 0)
(0.996156 -0.00185382 0)
(0.995463 0.00231734 0)
(0.998864 -0.00134608 0)
(0.996775 0.00113138 0)
(0.996809 0.00190662 0)
(0.999354 0.000286691 0)
(0.999476 0.000762582 0)
(0.999757 -0.000181047 0)
(0.999088 -0.00249974 0)
(0.996811 -0.00204349 0)
(0.99602 -0.00229538 0)
(0.995232 -0.00244679 0)
(0.993762 -0.000129821 0)
(0.993925 0.00119383 0)
(0.994432 0.00177613 0)
(0.994258 0.00346239 0)
(0.994499 0.00494849 0)
(0.995531 0.0056333 0)
(0.996294 0.00623722 0)
(1.0011 -0.0028268 0)
(0.996447 -0.00201944 0)
(0.99558 0.00226721 0)
(0.998916 -0.00117109 0)
(0.997 0.000958575 0)
(0.996835 0.00197467 0)
(0.99936 0.000211054 0)
(0.999524 0.000631746 0)
(0.999632 -7.52931e-05 0)
(0.999049 -0.00230487 0)
(0.996922 -0.00191726 0)
(0.996089 -0.00193637 0)
(0.995516 -0.00214292 0)
(0.994206 -0.000106738 0)
(0.994224 0.00135065 0)
(0.994772 0.00188337 0)
(0.994732 0.0032873 0)
(0.994885 0.00477516 0)
(0.995808 0.0055003 0)
(0.99658 0.00604719 0)
(1.00103 -0.00256203 0)
(0.99674 -0.00215792 0)
(0.995714 0.00218305 0)
(0.998964 -0.000978723 0)
(0.99723 0.000787783 0)
(0.996869 0.00202087 0)
(0.999356 0.000177958 0)
(0.999585 0.000486549 0)
(0.999526 2.32321e-05 0)
(0.99901 -0.00208515 0)
(0.997051 -0.00179258 0)
(0.996177 -0.0016047 0)
(0.995782 -0.00183088 0)
(0.994655 -8.14485e-05 0)
(0.994548 0.00146684 0)
(0.99509 0.00201497 0)
(0.995189 0.00314106 0)
(0.995294 0.00456129 0)
(0.996099 0.00534852 0)
(0.996851 0.00585569 0)
(1.00097 -0.00230755 0)
(0.997029 -0.00226378 0)
(0.995865 0.0020632 0)
(0.999007 -0.000777209 0)
(0.997463 0.000626601 0)
(0.996911 0.00203792 0)
(0.99934 0.000183492 0)
(0.999657 0.000342026 0)
(0.999442 0.000107594 0)
(0.998972 -0.00184988 0)
(0.997193 -0.00166244 0)
(0.996284 -0.00130315 0)
(0.99603 -0.00151231 0)
(0.995104 -4.87218e-05 0)
(0.994902 0.00153697 0)
(0.995394 0.00214972 0)
(0.995618 0.00304451 0)
(0.995718 0.00432529 0)
(0.996408 0.00516792 0)
(0.997117 0.00566022 0)
(1.0009 -0.00206679 0)
(0.997313 -0.00233116 0)
(0.996033 0.00191499 0)
(0.999047 -0.000578245 0)
(0.997696 0.000483982 0)
(0.996964 0.00202623 0)
(0.999313 0.000223823 0)
(0.999736 0.000210781 0)
(0.99938 0.000175754 0)
(0.998936 -0.0016054 0)
(0.997346 -0.00152667 0)
(0.996414 -0.00102557 0)
(0.996263 -0.00119006 0)
(0.995542 -2.98297e-06 0)
(0.995282 0.00156789 0)
(0.995697 0.00226633 0)
(0.996014 0.00299489 0)
(0.996144 0.00409853 0)
(0.996739 0.00494669 0)
(0.997386 0.00544998 0)
(1.00084 -0.00184159 0)
(0.99759 -0.00235517 0)
(0.996215 0.00173894 0)
(0.999083 -0.000391452 0)
(0.997925 0.000362117 0)
(0.997028 0.00199049 0)
(0.999276 0.000289243 0)
(0.999817 0.000101786 0)
(0.999343 0.000231653 0)
(0.998903 -0.00135847 0)
(0.997508 -0.00138646 0)
(0.996566 -0.000771033 0)
(0.996482 -0.000870196 0)
(0.995966 5.38536e-05 0)
(0.995686 0.00156426 0)
(0.996005 0.00235904 0)
(0.99638 0.00297964 0)
(0.996554 0.00390651 0)
(0.997084 0.00470189 0)
(0.997669 0.00521256 0)
(1.00078 -0.00163184 0)
(0.997855 -0.0023382 0)
(0.996408 0.00154083 0)
(0.999118 -0.000224176 0)
(0.998149 0.000265449 0)
(0.997105 0.00193482 0)
(0.999231 0.00036595 0)
(0.999898 2.27702e-05 0)
(0.999329 0.000278376 0)
(0.998873 -0.00111337 0)
(0.997676 -0.00124241 0)
(0.996741 -0.000546106 0)
(0.996687 -0.000545687 0)
(0.996367 0.000136698 0)
(0.996112 0.00152043 0)
(0.996329 0.00241525 0)
(0.996723 0.00298143 0)
(0.996942 0.00374809 0)
(0.997429 0.00446548 0)
(0.997966 0.00494824 0)
(1.00071 -0.00143881 0)
(0.998106 -0.00228549 0)
(0.996611 0.00133444 0)
(0.999152 -8.57259e-05 0)
(0.998364 0.00019275 0)
(0.997191 0.00186885 0)
(0.999179 0.00044623 0)
(0.999978 -3.51304e-05 0)
(0.999336 0.00032447 0)
(0.998847 -0.000864472 0)
(0.997846 -0.00109855 0)
(0.996942 -0.000355282 0)
(0.996886 -0.000232706 0)
(0.996734 0.000256462 0)
(0.996547 0.00145333 0)
(0.996676 0.00242106 0)
(0.997048 0.00298951 0)
(0.997305 0.00362022 0)
(0.997763 0.00425484 0)
(0.998269 0.00467416 0)
(1.00065 -0.00126328 0)
(0.99834 -0.00219998 0)
(0.996818 0.00112819 0)
(0.999187 2.04539e-05 0)
(0.99857 0.000135826 0)
(0.997286 0.00179729 0)
(0.99912 0.000528288 0)
(1.00006 -7.60761e-05 0)
(0.999366 0.000375846 0)
(0.998824 -0.000608573 0)
(0.998013 -0.000959661 0)
(0.997166 -0.000195265 0)
(0.997083 7.67348e-05 0)
(0.997065 0.000419058 0)
(0.996977 0.00139706 0)
(0.997049 0.00236985 0)
(0.997371 0.00298479 0)
(0.997645 0.00352338 0)
(0.998078 0.00407081 0)
(0.998559 0.00442465 0)
(1.00059 -0.00110437 0)
(0.998557 -0.00209016 0)
(0.997027 0.000932139 0)
(0.999222 9.70445e-05 0)
(0.998766 9.24567e-05 0)
(0.997388 0.00172369 0)
(0.999056 0.000611629 0)
(1.00013 -0.000111196 0)
(0.99942 0.000425108 0)
(0.9988 -0.000332471 0)
(0.998171 -0.000810876 0)
(0.997419 -8.2104e-05 0)
(0.99729 0.00035994 0)
(0.997356 0.000622221 0)
(0.997383 0.00137303 0)
(0.99744 0.00227783 0)
(0.997703 0.00294421 0)
(0.997966 0.00343893 0)
(0.998374 0.00390496 0)
(0.998824 0.00421324 0)
(1.00054 -0.000960509 0)
(0.998755 -0.00196541 0)
(0.997233 0.000756467 0)
(0.999259 0.000142538 0)
(0.998953 5.72376e-05 0)
(0.997496 0.00165665 0)
(0.998984 0.000699732 0)
(1.0002 -0.000143005 0)
(0.999501 0.000461473 0)
(0.99878 -5.01367e-05 0)
(0.998306 -0.00062863 0)
(0.997689 -1.5504e-05 0)
(0.997518 0.000579116 0)
(0.997615 0.000847762 0)
(0.997752 0.00139094 0)
(0.997835 0.00217134 0)
(0.99805 0.00285971 0)
(0.998277 0.00335407 0)
(0.998656 0.00375991 0)
(0.999061 0.00403445 0)
(1.00048 -0.000830894 0)
(0.998935 -0.00183147 0)
(0.997432 0.000607399 0)
(0.999295 0.000162137 0)
(0.999133 2.06998e-05 0)
(0.99761 0.0015915 0)
(0.998902 0.00080237 0)
(1.00025 -0.000166736 0)
(0.999609 0.000478467 0)
(0.998769 0.000235446 0)
(0.998413 -0.000414873 0)
(0.997965 2.30381e-05 0)
(0.997774 0.000728639 0)
(0.997856 0.00106712 0)
(0.998075 0.00145922 0)
(0.998218 0.00207902 0)
(0.998411 0.00273178 0)
(0.998592 0.00325071 0)
(0.998927 0.00362173 0)
(0.999276 0.00387236 0)
(1.00042 -0.000714478 0)
(0.999096 -0.0016947 0)
(0.997623 0.000486792 0)
(0.999328 0.000166198 0)
(0.999307 -2.4656e-05 0)
(0.997734 0.00152569 0)
(0.99881 0.000921265 0)
(1.0003 -0.000176661 0)
(0.999748 0.000448981 0)
(0.998771 0.000528439 0)
(0.998481 -0.000148734 0)
(0.998231 5.86231e-05 0)
(0.998062 0.000800388 0)
(0.998096 0.00125197 0)
(0.998355 0.001568 0)
(0.998564 0.00202589 0)
(0.998775 0.00258384 0)
(0.998916 0.00311344 0)
(0.999195 0.00347951 0)
(0.999482 0.00370802 0)
(1.00037 -0.000608092 0)
(0.999242 -0.00156294 0)
(0.997804 0.000393033 0)
(0.999355 0.000162053 0)
(0.999474 -7.62851e-05 0)
(0.997869 0.00145046 0)
(0.998709 0.00105298 0)
(1.00031 -0.000154029 0)
(0.999917 0.000366798 0)
(0.998807 0.000780534 0)
(0.998508 0.000182477 0)
(0.998462 0.000128908 0)
(0.998373 0.000808628 0)
(0.998353 0.00138823 0)
(0.998602 0.00169 0)
(0.998864 0.00201232 0)
(0.999121 0.00245051 0)
(0.999248 0.00294009 0)
(0.999464 0.00332946 0)
(0.999686 0.00353505 0)
(1.00032 -0.00051085 0)
(0.999373 -0.00143871 0)
(0.997975 0.000323684 0)
(0.999375 0.000159944 0)
(0.999632 -0.000135944 0)
(0.99802 0.00135932 0)
(0.998604 0.00119641 0)
(1.00029 -8.90026e-05 0)
(1.00011 0.000258626 0)
(0.99889 0.000958425 0)
(0.998508 0.00054451 0)
(0.998637 0.000262726 0)
(0.998691 0.000784176 0)
(0.998635 0.00145805 0)
(0.99883 0.00181051 0)
(0.999118 0.00203204 0)
(0.99943 0.00234695 0)
(0.999579 0.00274652 0)
(0.999741 0.00315512 0)
(0.999889 0.00336089 0)
(1.00027 -0.000422321 0)
(0.999491 -0.00132348 0)
(0.998136 0.000272517 0)
(0.999385 0.000168249 0)
(0.999781 -0.00019848 0)
(0.998189 0.00124827 0)
(0.998503 0.00133478 0)
(1.00023 2.70387e-05 0)
(1.0003 0.000136806 0)
(0.99903 0.00104566 0)
(0.998498 0.000903704 0)
(0.998747 0.000473353 0)
(0.998991 0.000772382 0)
(0.998949 0.00144764 0)
(0.999058 0.00190482 0)
(0.999328 0.00208679 0)
(0.999688 0.00227889 0)
(0.999891 0.00256774 0)
(1.00003 0.00294875 0)
(1.00009 0.00318936 0)
(1.00023 -0.000340318 0)
(0.999595 -0.00121909 0)
(0.998291 0.000234452 0)
(0.999386 0.000192228 0)
(0.999916 -0.000261676 0)
(0.998379 0.00111695 0)
(0.998416 0.00145952 0)
(1.00013 0.000189978 0)
(1.00049 3.89254e-05 0)
(0.999232 0.00102966 0)
(0.998505 0.0012253 0)
(0.998792 0.000748643 0)
(0.999241 0.000804403 0)
(0.999278 0.00139169 0)
(0.99931 0.0019345 0)
(0.999507 0.00215177 0)
(0.999889 0.00224983 0)
(1.00016 0.00241805 0)
(1.00032 0.00271891 0)
(1.0003 0.0030008 0)
(1.00018 -0.000265576 0)
(0.999689 -0.00112299 0)
(0.99844 0.000203021 0)
(0.999376 0.000234729 0)
(1.00003 -0.000313531 0)
(0.99859 0.000956834 0)
(0.998352 0.00155421 0)
(0.999984 0.000398022 0)
(1.00064 -1.83046e-05 0)
(0.999489 0.00092136 0)
(0.998557 0.00146475 0)
(0.998785 0.00105978 0)
(0.999422 0.000886316 0)
(0.999599 0.00132996 0)
(0.999589 0.00190762 0)
(0.999683 0.00219011 0)
(1.00003 0.0022599 0)
(1.00036 0.00231048 0)
(1.00059 0.00249226 0)
(1.00053 0.00277552 0)
(1.00014 -0.000197939 0)
(0.999772 -0.00103401 0)
(0.998587 0.00017301 0)
(0.999359 0.000291534 0)
(1.00013 -0.000338362 0)
(0.998819 0.000777944 0)
(0.998327 0.00160132 0)
(0.999809 0.000632173 0)
(1.00074 -1.24819e-05 0)
(0.999787 0.000763337 0)
(0.998677 0.00159267 0)
(0.998748 0.00137786 0)
(0.999525 0.00103339 0)
(0.999891 0.0012724 0)
(0.999888 0.00183455 0)
(0.999872 0.00218705 0)
(1.00015 0.00227358 0)
(1.00049 0.00225382 0)
(1.00081 0.00229852 0)
(1.00077 0.00252046 0)
(1.00011 -0.000137915 0)
(0.999846 -0.000945593 0)
(0.998735 0.000137981 0)
(0.999336 0.000360129 0)
(1.0002 -0.000334853 0)
(0.99906 0.000596806 0)
(0.998345 0.00160376 0)
(0.999621 0.000869323 0)
(1.00078 7.29474e-05 0)
(1.00009 0.00060099 0)
(0.998876 0.00159501 0)
(0.998718 0.00165413 0)
(0.999545 0.00124594 0)
(1.00012 0.00125336 0)
(1.0002 0.00171722 0)
(1.00009 0.00214268 0)
(1.00025 0.00225987 0)
(1.00056 0.00222483 0)
(1.00096 0.00216089 0)
(1.001 0.00226601 0)
(1.00008 -8.7387e-05 0)
(0.99991 -0.000853313 0)
(0.998885 9.62331e-05 0)
(0.999314 0.000429774 0)
(1.00024 -0.000292002 0)
(0.999308 0.000415828 0)
(0.998415 0.00155136 0)
(0.999435 0.00109536 0)
(1.00074 0.000221856 0)
(1.00038 0.000467298 0)
(0.99915 0.00148859 0)
(0.998734 0.00184624 0)
(0.999503 0.00147688 0)
(1.00027 0.00129548 0)
(1.00049 0.00158855 0)
(1.00033 0.00204299 0)
(1.00036 0.00222625 0)
(1.0006 0.00219149 0)
(1.00101 0.00208146 0)
(1.00118 0.00205134 0)
(1.00005 -4.64104e-05 0)
(0.999964 -0.000756486 0)
(0.999037 4.8778e-05 0)
(0.999299 0.000493578 0)
(1.00025 -0.000212815 0)
(0.999548 0.000253471 0)
(0.998538 0.00144351 0)
(0.999273 0.00128268 0)
(1.00065 0.000420327 0)
(1.00062 0.000395059 0)
(0.999481 0.00131309 0)
(0.998816 0.00193666 0)
(0.99943 0.00169482 0)
(1.00032 0.0013856 0)
(1.00074 0.00149072 0)
(1.00059 0.0018816 0)
(1.00049 0.00215689 0)
(1.00062 0.00214539 0)
(1.00101 0.00202841 0)
(1.00127 0.00190883 0)
(1.00003 -1.52283e-05 0)
(1.00001 -0.000652762 0)
(0.999191 -3.68191e-07 0)
(0.999297 0.000543 0)
(1.00023 -0.000103134 0)
(0.99977 0.000122896 0)
(0.998713 0.00129242 0)
(0.999152 0.00141958 0)
(1.00051 0.000636401 0)
(1.00078 0.000398599 0)
(0.999837 0.00111853 0)
(0.998985 0.00190539 0)
(0.99936 0.00187761 0)
(1.00029 0.00151051 0)
(1.0009 0.00143995 0)
(1.00086 0.00170618 0)
(1.00066 0.00202664 0)
(1.00064 0.002094 0)
(1.00097 0.00197821 0)
(1.00129 0.00183186 0)
(1.00001 5.45244e-06 0)
(1.00004 -0.000544019 0)
(0.999341 -4.29441e-05 0)
(0.999313 0.000569299 0)
(1.00019 2.42737e-05 0)
(0.999961 3.51772e-05 0)
(0.99893 0.00111593 0)
(0.999084 0.00149722 0)
(1.00035 0.000852722 0)
(1.00087 0.000468082 0)
(1.00018 0.00095219 0)
(0.999234 0.00177126 0)
(0.999335 0.00197878 0)
(1.0002 0.00165042 0)
(1.00097 0.0014341 0)
(1.00108 0.00156117 0)
(1.00087 0.00184939 0)
(1.0007 0.00201455 0)
(1.00092 0.00193886 0)
(1.00124 0.00178875 0)
(0.999998 1.76654e-05 0)
(1.00006 -0.000433697 0)
(0.999485 -7.75086e-05 0)
(0.999348 0.000572924 0)
(1.00013 0.000159227 0)
(1.00012 -1.39207e-07 0)
(0.999176 0.000929794 0)
(0.999079 0.00150694 0)
(1.00018 0.00104737 0)