/*--------------------------------*- C++ -*----------------------------------*\
| =========                 |                                                 |
| \\      /  F ield         | OpenFOAM: The Open Source CFD Toolbox           |
|  \\    /   O peration     | Version:  v1812                                 |
|   \\  /    A nd           | Web:      www.OpenFOAM.com                      |
|    \\/     M anipulation  |                                                 |
\*---------------------------------------------------------------------------*/
FoamFile
{
    version     2.0;
    format      ascii;
    class       surfaceScalarField;
    location    "5.6";
    object      phi;
}
// * * * * * * * * * * * * * * * * * * * * * * * * * * * * * * * * * * * * * //

dimensions      [0 3 -1 0 0 0 0];
oriented        oriented;


internalField   nonuniform List<scalar> 
19000
(
1.16915e-06
3.4038e-07
1.13676e-06
-1.23611e-06
1.17316e-06
2.05509e-06
1.13405e-06
-1.94732e-06
1.1563e-06
5.1713e-08
1.19101e-06
4.70791e-07
1.15872e-06
5.76932e-07
1.13298e-06
3.56523e-07
1.1685e-06
1.68169e-06
1.08251e-06
-9.69455e-07
1.13353e-06
8.13184e-07
1.06927e-06
-8.02673e-07
1.12252e-06
-4.69643e-07
1.09876e-06
-5.56801e-07
1.13726e-06
-5.77652e-07
1.15668e-06
-1.96454e-08
1.16289e-06
-2.3054e-07
1.17376e-06
1.70942e-07
1.18204e-06
1.11329e-07
3.33654e-07
1.18329e-06
1.22518e-06
3.39462e-07
1.19339e-06
-1.20432e-06
1.22507e-06
2.02341e-06
1.1873e-06
-1.90955e-06
1.20597e-06
3.30385e-08
1.24944e-06
4.27325e-07
1.21174e-06
6.14628e-07
1.18779e-06
3.80479e-07
1.21874e-06
1.65074e-06
1.1413e-06
-8.92018e-07
1.17705e-06
7.77435e-07
1.12761e-06
-7.53235e-07
1.16892e-06
-5.10952e-07
1.16056e-06
-5.48444e-07
1.18566e-06
-6.02752e-07
1.23358e-06
-6.75618e-08
1.21224e-06
-2.09196e-07
1.2562e-06
1.26978e-07
1.22797e-06
1.39554e-07
2.92871e-07
1.26876e-06
1.28432e-06
3.37925e-07
1.25221e-06
-1.17221e-06
1.28044e-06
1.99517e-06
1.24428e-06
-1.87338e-06
1.26063e-06
1.66936e-08
1.30571e-06
3.82239e-07
1.27068e-06
6.49665e-07
1.24475e-06
4.06407e-07
1.27308e-06
1.62241e-06
1.20933e-06
-8.28274e-07
1.2336e-06
7.53163e-07
1.20568e-06
-7.25309e-07
1.22647e-06
-5.31744e-07
1.23632e-06
-5.58291e-07
1.2428e-06
-6.0923e-07
1.29485e-06
-1.1961e-07
1.27088e-06
-1.85234e-07
1.30236e-06
9.55059e-08
1.2949e-06
1.47008e-07
2.86304e-07
1.30147e-06
1.34623e-06
3.35801e-07
1.31515e-06
-1.14113e-06
1.33908e-06
1.97124e-06
1.30634e-06
-1.84064e-06
1.31823e-06
4.79537e-09
1.36271e-06
3.37762e-07
1.33453e-06
6.77845e-07
1.3065e-06
4.34438e-07
1.33186e-06
1.59705e-06
1.28473e-06
-7.81148e-07
1.29921e-06
7.3869e-07
1.28607e-06
-7.12171e-07
1.29095e-06
-5.36631e-07
1.31116e-06
-5.785e-07
1.30825e-06
-6.06314e-07
1.34924e-06
-1.60609e-07
1.33927e-06
-1.75258e-07
1.35138e-06
8.33901e-08
1.35687e-06
1.41523e-07
2.8479e-07
1.35838e-06
1.41066e-06
3.33493e-07
1.38223e-06
-1.1127e-06
1.40209e-06
1.95138e-06
1.37271e-06
-1.81126e-06
1.38049e-06
-2.97791e-09
1.42165e-06
2.96598e-07
1.40301e-06
6.96487e-07
1.37487e-06
4.62578e-07
1.39769e-06
1.57423e-06
1.364e-06
-7.47463e-07
1.37343e-06
7.2926e-07
1.36604e-06
-7.04776e-07
1.36249e-06
-5.33087e-07
1.38183e-06
-5.97839e-07
1.37895e-06
-6.0343e-07
1.40937e-06
-1.91034e-07
1.41213e-06
-1.78015e-07
1.4178e-06
7.77204e-08
1.4225e-06
1.3682e-07
2.80958e-07
1.42633e-06
1.47744e-06
3.31734e-07
1.45319e-06
-1.08845e-06
1.47022e-06
1.93435e-06
1.44251e-06
-1.78355e-06
1.4481e-06
-8.56253e-09
1.48388e-06
2.6081e-07
1.47452e-06
7.05856e-07
1.44957e-06
4.87525e-07
1.47087e-06
1.55293e-06
1.44501e-06
-7.21604e-07
1.45302e-06
7.21257e-07
1.44507e-06
-6.9683e-07
1.4379e-06
-5.25919e-07
1.45084e-06
-6.10783e-07
1.4505e-06
-6.03088e-07
1.47549e-06
-2.16016e-07
1.48491e-06
-1.87435e-07
1.49225e-06
7.03781e-08
1.49598e-06
1.33091e-07
2.77126e-07
1.49981e-06
1.5466e-06
3.31355e-07
1.52767e-06
-1.06953e-06
1.54366e-06
1.91836e-06
1.51541e-06
-1.7553e-06
1.52077e-06
-1.39243e-08
1.55006e-06
2.31513e-07
1.54743e-06
7.08488e-07
1.52864e-06
5.06319e-07
1.54991e-06
1.53165e-06
1.52721e-06
-6.98898e-07
1.53627e-06
7.12191e-07
1.52515e-06
-6.85709e-07
1.5159e-06
-5.16663e-07
1.52124e-06
-6.16121e-07
1.522e-06
-6.03855e-07
1.54384e-06
-2.37853e-07
1.55673e-06
-2.00324e-07
1.567e-06
6.01051e-08
1.5726e-06
1.27488e-07
2.73065e-07
1.57667e-06
1.61854e-06
3.32948e-07
1.60541e-06
-1.0564e-06
1.6221e-06
1.90167e-06
1.59148e-06
-1.72468e-06
1.59767e-06
-2.01168e-08
1.62005e-06
2.09135e-07
1.62105e-06
7.07487e-07
1.61021e-06
5.17152e-07
1.63289e-06
1.50898e-06
1.61092e-06
-6.7693e-07
1.62263e-06
7.00479e-07
1.60755e-06
-6.70623e-07
1.59701e-06
-5.06125e-07
1.59514e-06
-6.14258e-07
1.59522e-06
-6.03935e-07
1.61355e-06
-2.56177e-07
1.62843e-06
-2.15205e-07
1.64072e-06
4.78165e-08
1.64908e-06
1.19128e-07
2.67243e-07
1.6549e-06
1.69391e-06
3.36612e-07
1.68623e-06
-1.04873e-06
1.70486e-06
1.88304e-06
1.67089e-06
-1.69071e-06
1.67807e-06
-2.72966e-08
1.69361e-06
1.93601e-07
1.69597e-06
7.05121e-07
1.69372e-06
5.194e-07
1.71881e-06
1.48389e-06
1.69672e-06
-6.54843e-07
1.7119e-06
6.853e-07
1.69277e-06
-6.51485e-07
1.68204e-06
-4.95402e-07
1.67368e-06
-6.05893e-07
1.67206e-06
-6.02317e-07
1.68584e-06
-2.69952e-07
1.70135e-06
-2.30714e-07
1.71467e-06
3.44907e-08
1.7254e-06
1.08401e-07
2.58569e-07
1.73407e-06
1.77341e-06
3.41919e-07
1.77008e-06
-1.04539e-06
1.79122e-06
1.8619e-06
1.7538e-06
-1.65328e-06
1.76171e-06
-3.52154e-08
1.7711e-06
1.84221e-07
1.77395e-06
7.02269e-07
1.7798e-06
5.13545e-07
1.80771e-06
1.45598e-06
1.78501e-06
-6.32141e-07
1.80368e-06
6.6663e-07
1.78071e-06
-6.28517e-07
1.77104e-06
-4.85734e-07
1.75705e-06
-5.91898e-07
1.75348e-06
-5.98748e-07
1.76197e-06
-2.78446e-07
1.77666e-06
-2.454e-07
1.79027e-06
2.08747e-08
1.80252e-06
9.61536e-08
2.46514e-07
1.81458e-06
1.85757e-06
3.48098e-07
1.85698e-06
-1.0448e-06
1.88066e-06
1.83822e-06
1.84032e-06
-1.61295e-06
1.8487e-06
-4.35922e-08
1.85334e-06
1.79584e-07
1.857e-06
6.98607e-07
1.86933e-06
5.01218e-07
1.89996e-06
1.42535e-06
1.87586e-06
-6.08044e-07
1.8974e-06
6.45093e-07
1.87102e-06
-6.02143e-07
1.86335e-06
-4.78063e-07
1.84486e-06
-5.73406e-07
1.83961e-06
-5.93492e-07
1.84263e-06
-2.81472e-07
1.85513e-06
-2.57897e-07
1.86842e-06
7.58061e-09
1.88096e-06
8.36129e-08
2.31119e-07
1.89636e-06
1.94663e-06
3.5431e-07
1.947e-06
-1.04518e-06
1.97301e-06
1.81222e-06
1.93065e-06
-1.57059e-06
1.9392e-06
-5.21445e-08
1.94096e-06
1.77826e-07
1.94637e-06
6.93195e-07
1.96258e-06
4.85009e-07
1.99556e-06
1.39238e-06
1.96915e-06
-5.81633e-07
1.99272e-06
6.21522e-07
1.96352e-06
-5.72946e-07
1.95819e-06
-4.72732e-07
1.93649e-06
-5.51703e-07
1.93012e-06
-5.87125e-07
1.92815e-06
-2.79508e-07
1.93736e-06
-2.67098e-07
1.94977e-06
-4.82809e-09
1.96102e-06
7.2354e-08
2.13115e-07
1.97903e-06
2.04061e-06
3.59888e-07
2.04036e-06
-1.04493e-06
2.06849e-06
1.78409e-06
2.02497e-06
-1.52707e-06
2.03329e-06
-6.04688e-08
2.03391e-06
1.77213e-07
2.04201e-06
6.85095e-07
2.0592e-06
4.67816e-07
2.09409e-06
1.35748e-06
2.0648e-06
-5.52343e-07
2.08988e-06
5.96445e-07
2.05851e-06
-5.41575e-07
2.05527e-06
-4.69495e-07
2.03149e-06
-5.27928e-07
2.02466e-06
-5.80294e-07
2.01883e-06
-2.73674e-07
2.0241e-06
-2.72373e-07
2.03523e-06
-1.59492e-08
2.0436e-06
6.39789e-08
1.93829e-07
2.06289e-06
2.13943e-06
3.64461e-07
2.13741e-06
-1.04291e-06
2.16758e-06
1.75391e-06
2.12354e-06
-1.48303e-06
2.13113e-06
-6.8053e-08
2.13161e-06
1.76724e-07
2.14292e-06
6.73793e-07
2.15873e-06
4.52e-07
2.19516e-06
1.32105e-06
2.16311e-06
-5.20288e-07
2.18973e-06
5.69828e-07
2.15677e-06
-5.08617e-07
2.15507e-06
-4.67802e-07
2.12998e-06
-5.02835e-07
2.12313e-06
-5.73442e-07
2.11493e-06
-2.65477e-07
2.11618e-06
-2.73621e-07
2.12609e-06
-2.5856e-08
2.13052e-06
5.95437e-08
1.74778e-07
2.14957e-06
2.24301e-06
3.6794e-07
2.23861e-06
-1.03851e-06
2.27085e-06
1.72167e-06
2.22669e-06
-1.43887e-06
2.2331e-06
-7.44647e-08
2.23356e-06
1.76267e-07
2.24804e-06
6.59314e-07
2.26115e-06
4.38887e-07
2.29887e-06
1.28333e-06
2.26473e-06
-4.86144e-07
2.29334e-06
5.41217e-07
2.25925e-06
-4.74525e-07
2.2586e-06
-4.67149e-07
2.23253e-06
-4.7677e-07
2.2257e-06
-5.66607e-07
2.21661e-06
-2.56394e-07
2.21406e-06
-2.71068e-07
2.22335e-06
-3.51466e-08
2.2239e-06
5.89978e-08
1.5729e-07
2.24139e-06
2.35141e-06
3.70407e-07
2.34448e-06
-1.03158e-06
2.37883e-06
1.68732e-06
2.33473e-06
-1.39477e-06
2.33979e-06
-7.95281e-08
2.33963e-06
1.76428e-07
2.35686e-06
6.42082e-07
2.36692e-06
4.28829e-07
2.40589e-06
1.24437e-06
2.37048e-06
-4.50734e-07
2.40154e-06
5.1016e-07
2.36667e-06
-4.39655e-07
2.36678e-06
-4.67262e-07
2.3399e-06
-4.49893e-07
2.33269e-06
-5.59397e-07
2.32387e-06
-2.47578e-07
2.31766e-06
-2.64848e-07
2.32716e-06
-4.46508e-08
2.32481e-06
6.13506e-08
1.42258e-07
2.33984e-06
2.4648e-06
3.72e-07
2.45546e-06
-1.02223e-06
2.49191e-06
1.65087e-06
2.44786e-06
-1.35071e-06
2.45167e-06
-8.33414e-08
2.45012e-06
1.77983e-07
2.46956e-06
6.22641e-07
2.47677e-06
4.21611e-07
2.51716e-06
1.20398e-06
2.4811e-06
-4.14674e-07
2.51469e-06
4.76573e-07
2.47938e-06
-4.04353e-07
2.48013e-06
-4.68006e-07
2.45269e-06
-4.22453e-07
2.44442e-06
-5.51131e-07
2.43666e-06
-2.39818e-07
2.42666e-06
-2.54849e-07
2.43684e-06
-5.48298e-08
2.43292e-06
6.52744e-08
1.30218e-07
2.44496e-06
2.58344e-06
3.72856e-07
2.57189e-06
-1.01069e-06
2.61038e-06
1.61237e-06
2.5662e-06
-1.30653e-06
2.56904e-06
-8.61833e-08
2.56554e-06
1.81483e-07
2.58674e-06
6.01436e-07
2.59151e-06
4.16848e-07
2.63357e-06
1.16192e-06
2.59719e-06
-3.78288e-07
2.63293e-06
4.40825e-07
2.59758e-06
-3.68995e-07
2.59878e-06
-4.6921e-07
2.57123e-06
-3.94901e-07
2.56115e-06
-5.41056e-07
2.55499e-06
-2.33654e-07
2.54113e-06
-2.4099e-07
2.55164e-06
-6.53378e-08
2.5474e-06
6.95107e-08
1.21596e-07
2.55602e-06
2.70758e-06
3.73103e-07
2.6941e-06
-9.97209e-07
2.7345e-06
1.57198e-06
2.68987e-06
-1.2619e-06
2.69212e-06
-8.8427e-08
2.68648e-06
1.87114e-07
2.70919e-06
5.78727e-07
2.71189e-06
4.14155e-07
2.75579e-06
1.11801e-06
2.71922e-06
-3.41723e-07
2.75647e-06
4.03582e-07
2.72142e-06
-3.33952e-07
2.72276e-06
-4.70549e-07
2.69571e-06
-3.67851e-07
2.68316e-06
-5.28506e-07
2.67896e-06
-2.29453e-07
2.66152e-06
-2.23552e-07
2.67137e-06
-7.51853e-08
2.66787e-06
7.30117e-08
1.16672e-07
2.67279e-06
2.83751e-06
3.72859e-07
2.82238e-06
-9.82073e-07
2.86452e-06
1.52984e-06
2.81911e-06
-1.21649e-06
2.82118e-06
-9.04969e-08
2.81351e-06
1.9478e-07
2.8376e-06
5.54642e-07
2.83858e-06
4.13174e-07
2.88426e-06
1.07234e-06
2.84763e-06
-3.05091e-07
2.88561e-06
3.65599e-07
2.85122e-06
-2.99557e-07
2.85221e-06
-4.71545e-07
2.82631e-06
-3.41948e-07
2.81078e-06
-5.1298e-07
2.80873e-06
-2.27403e-07
2.78847e-06
-2.0329e-07
2.79648e-06
-8.31953e-08
2.79455e-06
7.49459e-08
1.15357e-07
2.79586e-06
2.97353e-06
3.72228e-07
2.957e-06
-9.65549e-07
3.00072e-06
1.48612e-06
2.95423e-06
-1.17001e-06
2.95657e-06
-9.28296e-08
2.9471e-06
2.0425e-07
2.97247e-06
5.29266e-07
2.9721e-06
4.13547e-07
3.01927e-06
1.02517e-06
2.98274e-06
-2.68567e-07
3.02073e-06
3.2761e-07
2.9873e-06
-2.66124e-07
2.98738e-06
-4.71632e-07
2.96322e-06
-3.17786e-07
2.94443e-06
-4.94192e-07
2.94447e-06
-2.27438e-07
2.92251e-06
-1.81332e-07
2.92762e-06
-8.83107e-08
2.92794e-06
7.46259e-08
1.17062e-07
2.92624e-06
3.11595e-06
3.71286e-07
3.09826e-06
-9.47861e-07
3.14342e-06
1.44096e-06
3.09561e-06
-1.12219e-06
3.0986e-06
-9.58238e-08
3.08759e-06
2.15264e-07
3.11415e-06
5.02704e-07
3.11278e-06
4.14911e-07
3.161e-06
9.7695e-07
3.12487e-06
-2.32435e-07
3.16216e-06
2.90318e-07
3.13002e-06
-2.33977e-07
3.12862e-06
-4.7024e-07
3.10668e-06
-2.95846e-07
3.08457e-06
-4.72079e-07
3.08633e-06
-2.29196e-07
3.06398e-06
-1.5898e-07
3.06543e-06
-8.97664e-08
3.06842e-06
7.16415e-08
1.2076e-07
3.06472e-06
3.26512e-06
3.70078e-07
3.24642e-06
-9.29167e-07
3.29292e-06
1.39446e-06
3.24361e-06
-1.07288e-06
3.24759e-06
-9.97999e-08
3.23526e-06
2.27592e-07
3.26286e-06
4.75104e-07
3.26088e-06
4.16895e-07
3.30963e-06
9.282e-07
3.27431e-06
-1.97109e-07
3.31022e-06
2.54399e-07
3.27971e-06
-2.03464e-07
3.27633e-06
-4.66863e-07
3.25695e-06
-2.76463e-07
3.23167e-06
-4.46794e-07
3.23457e-06
-2.32099e-07
3.21307e-06
-1.37482e-07
3.21059e-06
-8.72825e-08
3.21608e-06
6.61466e-08
1.25095e-07
3.21175e-06
3.4214e-06
3.68613e-07
3.40178e-06
-9.09552e-07
3.44956e-06
1.34668e-06
3.39865e-06
-1.02197e-06
3.40383e-06
-1.0498e-07
3.39038e-06
2.41035e-07
3.41883e-06
4.46656e-07
3.41662e-06
4.19108e-07
3.46531e-06
8.79508e-07
3.43134e-06
-1.63145e-07
3.46522e-06
2.20524e-07
3.43669e-06
-1.74933e-07
3.43094e-06
-4.61119e-07
3.41426e-06
-2.59774e-07
3.38618e-06
-4.1872e-07
3.38952e-06
-2.35436e-07
3.36992e-06
-1.17881e-07
3.36362e-06
-8.0984e-08
3.37097e-06
5.87904e-08
1.28702e-07
3.36737e-06
3.58515e-06
3.66872e-07
3.56464e-06
-8.89045e-07
3.61365e-06
1.29767e-06
3.56109e-06
-9.69405e-07
3.5676e-06
-1.1149e-07
3.55321e-06
2.55431e-07
3.58226e-06
4.17604e-07
3.58024e-06
4.2113e-07
3.62821e-06
8.3153e-07
3.59628e-06
-1.31213e-07
3.6275e-06
1.89307e-07
3.60123e-06
-1.48662e-07
3.59291e-06
-4.52798e-07
3.57886e-06
-2.45722e-07
3.54855e-06
-3.88411e-07
3.55153e-06
-2.38423e-07
3.53464e-06
-1.00983e-07
3.52492e-06
-7.12666e-08
3.53315e-06
5.05608e-08
1.3037e-07
3.53148e-06
3.75676e-06
3.6482e-07
3.73534e-06
-8.67632e-07
3.78556e-06
1.24745e-06
3.73135e-06
-9.15188e-07
3.73923e-06
-1.19374e-07
3.72403e-06
2.70628e-07
3.7534e-06
3.88238e-07
3.75204e-06
4.22484e-07
3.79858e-06
7.84995e-07
3.76938e-06
-1.02015e-07
3.79748e-06
1.61209e-07
3.7736e-06
-1.2478e-07
3.76267e-06
-4.41873e-07
3.75105e-06
-2.34101e-07
3.71915e-06
-3.56514e-07
3.72102e-06
-2.40294e-07
3.70734e-06
-8.72999e-08
3.69489e-06
-5.88175e-08
3.70283e-06
4.26182e-08
1.29292e-07
3.70391e-06
3.9366e-06
3.6241e-07
3.91425e-06
-8.4528e-07
3.96566e-06
1.19604e-06
3.90981e-06
-8.59342e-07
3.91904e-06
-1.28605e-07
3.90321e-06
2.86465e-07
3.93254e-06
3.58906e-07
3.9324e-06
4.22624e-07
3.97675e-06
7.40647e-07
3.95088e-06
-7.61462e-08
3.97562e-06
1.36465e-07
3.95405e-06
-1.03211e-07
3.94067e-06
-4.28486e-07
3.93115e-06
-2.24585e-07
3.89837e-06
-3.23737e-07
3.89839e-06
-2.40308e-07
3.88822e-06
-7.71305e-08
3.87387e-06
-4.44692e-08
3.88034e-06
3.61522e-08
1.25047e-07
3.88458e-06
4.12507e-06
3.59593e-07
4.10174e-06
-8.21947e-07
4.15433e-06
1.14344e-06
4.09691e-06
-8.01915e-07
4.1074e-06
-1.39098e-07
4.09113e-06
3.02738e-07
4.12001e-06
3.30022e-07
4.1217e-06
4.20934e-07
4.16317e-06
6.99181e-07
4.141e-06
-5.39805e-08
4.16244e-06
1.15031e-07
4.14289e-06
-8.36659e-08
4.12729e-06
-4.12889e-07
4.11956e-06
-2.16856e-07
4.08651e-06
-2.90686e-07
4.08406e-06
-2.37852e-07
4.07744e-06
-7.05181e-08
4.06219e-06
-2.92097e-08
4.06623e-06
3.21078e-08
1.17845e-07
4.07343e-06
4.32257e-06
3.56322e-07
4.29822e-06
-7.97591e-07
4.352e-06
1.08966e-06
4.29305e-06
-7.42969e-07
4.30467e-06
-1.50717e-07
4.28823e-06
3.19176e-07
4.31618e-06
3.02076e-07
4.3203e-06
4.16812e-07
4.35838e-06
6.61105e-07
4.33996e-06
-3.55651e-08
4.35843e-06
9.65584e-08
4.34046e-06
-6.56879e-08
4.32291e-06
-3.95344e-07
4.31671e-06
-2.10652e-07
4.2839e-06
-2.5788e-07
4.27848e-06
-2.32427e-07
4.27522e-06
-6.72662e-08
4.26014e-06
-1.41278e-08
4.26113e-06
3.11164e-08
1.08418e-07
4.27056e-06
4.52954e-06
3.52552e-07
4.50411e-06
-7.7216e-07
4.55909e-06
1.03469e-06
4.49871e-06
-6.82588e-07
4.51126e-06
-1.63275e-07
4.49502e-06
3.35421e-07
4.52145e-06
2.75642e-07
4.52856e-06
4.09707e-07
4.56295e-06
6.2671e-07
4.54803e-06
-2.06369e-08
4.5641e-06
8.04864e-08
4.54721e-06
-4.8805e-08
4.52789e-06
-3.76019e-07
4.52297e-06
-2.05732e-07
4.49091e-06
-2.25825e-07
4.48218e-06
-2.23689e-07
4.48176e-06
-6.68488e-08
4.46804e-06
-4.08089e-10
4.46586e-06
3.32911e-08
9.81694e-08
4.47611e-06
4.74643e-06
3.4824e-07
4.71986e-06
-7.4559e-07
4.77604e-06
9.78501e-07
4.71435e-06
-6.20894e-07
4.7276e-06
-1.76523e-07
4.71201e-06
3.51005e-07
4.73628e-06
2.51378e-07
4.74682e-06
3.99162e-07
4.77751e-06
5.96018e-07
4.7655e-06
-8.62154e-09
4.77989e-06
6.60926e-08
4.76367e-06
-3.25857e-08
4.74266e-06
-3.5501e-07
4.73882e-06
-2.0189e-07
4.70798e-06
-1.94987e-07
4.69578e-06
-2.11484e-07
4.69744e-06
-6.85085e-08
4.68608e-06
1.09482e-08
4.68117e-06
3.81991e-08
8.8743e-08
4.6906e-06
4.9737e-06
3.43334e-07
4.94591e-06
-7.17796e-07
5.00331e-06
9.21101e-07
4.9405e-06
-5.58081e-07
4.95411e-06
-1.90131e-07
4.93975e-06
3.6536e-07
4.96112e-06
2.30007e-07
4.97543e-06
3.84856e-07
5.00268e-06
5.68769e-07
4.99276e-06
1.29358e-09
5.00623e-06
5.26279e-08
4.99041e-06
-1.6767e-08
4.96766e-06
-3.32261e-07
4.96476e-06
-1.98987e-07
4.93569e-06
-1.65918e-07
4.91996e-06
-1.95759e-07
4.92277e-06
-7.13135e-08
4.91447e-06
1.92412e-08
4.90774e-06
4.49334e-08
8.15757e-08
4.91491e-06
5.21187e-06
3.37778e-07
5.18276e-06
-6.88679e-07
5.24134e-06
8.62518e-07
5.17769e-06
-4.94428e-07
5.19127e-06
-2.03711e-07
5.17877e-06
3.77854e-07
5.19657e-06
2.12208e-07
5.21473e-06
3.66693e-07
5.23906e-06
5.44439e-07
5.2303e-06
1.00553e-08
5.24347e-06
3.94571e-08
5.22809e-06
-1.38266e-09
5.2034e-06
-3.07574e-07
5.20134e-06
-1.96932e-07
5.17457e-06
-1.39139e-07
5.15552e-06
-1.76714e-07
5.15836e-06
-7.41516e-08
5.15344e-06
2.41582e-08
5.14612e-06
5.22579e-08
7.75423e-08
5.15015e-06
5.46146e-06
3.31508e-07
5.43092e-06
-6.58135e-07
5.4906e-06
8.02838e-07
5.42648e-06
-4.30315e-07
5.43955e-06
-2.1678e-07
5.42961e-06
3.87794e-07
5.44327e-06
1.98551e-07
5.46511e-06
3.44849e-07
5.48725e-06
5.22307e-07
5.47869e-06
1.86126e-08
5.49198e-06
2.61633e-08
5.47733e-06
1.32719e-08
5.45052e-06
-2.80766e-07
5.44902e-06
-1.95434e-07
5.42523e-06
-1.15351e-07
5.4033e-06
-1.54775e-07
5.40499e-06
-7.58489e-08
5.40326e-06
2.58922e-08
5.39657e-06
5.89492e-08
7.66181e-08
5.39749e-06
5.72301e-06
3.24455e-07
5.69094e-06
-6.26068e-07
5.75156e-06
7.42223e-07
5.68748e-06
-3.66241e-07
5.69948e-06
-2.28776e-07
5.69282e-06
3.94456e-07
5.70193e-06
1.89441e-07
5.727e-06
3.19778e-07
5.74779e-06
5.01515e-07
5.73859e-06
2.78145e-08
5.75213e-06
1.26216e-08
5.7388e-06
2.66074e-08
5.70975e-06
-2.51721e-07
5.70817e-06
-1.93849e-07
5.68813e-06
-9.5311e-08
5.66395e-06
-1.30603e-07
5.66347e-06
-7.53675e-08
5.66438e-06
2.49792e-08
5.65925e-06
6.40818e-08
7.80094e-08
5.65786e-06
5.9971e-06
3.16552e-07
5.96343e-06
-5.92406e-07
6.02473e-06
6.8093e-07
5.96132e-06
-3.02835e-07
5.97159e-06
-2.39048e-07
5.96893e-06
3.97124e-07
5.9733e-06
1.85066e-07
6.00086e-06
2.92222e-07
6.02129e-06
4.81086e-07
6.01073e-06
3.83715e-08
6.0243e-06
-9.50268e-10
6.0131e-06
3.78031e-08
5.98181e-06
-2.20431e-07
5.97933e-06
-1.9136e-07
5.96358e-06
-7.95657e-08
5.93813e-06
-1.05155e-07
5.9347e-06
-7.19395e-08
5.93742e-06
2.22596e-08
5.9343e-06
6.72038e-08
8.04245e-08
5.93189e-06
6.28431e-06
3.07733e-07
6.24901e-06
-5.5711e-07
6.31065e-06
6.19291e-07
6.24866e-06
-2.40848e-07
6.25648e-06
-2.46866e-07
6.25843e-06
3.95172e-07
6.25817e-06
1.8533e-07
6.2872e-06
2.63193e-07
6.30826e-06
4.60027e-07
6.29592e-06
5.0706e-08
6.30904e-06
-1.40634e-08
6.30071e-06
4.61269e-08
6.26751e-06
-1.8723e-07
6.26317e-06
-1.87019e-07
6.25188e-06
-6.82801e-08
6.22634e-06
-7.96069e-08
6.21958e-06
-6.51792e-08
6.22318e-06
1.86587e-08
6.22207e-06
6.83116e-08
8.26975e-08
6.2198e-06
6.58526e-06
2.9794e-07
6.54834e-06
-5.20191e-07
6.60996e-06
5.57673e-07
6.55018e-06
-1.8107e-07
6.5548e-06
-2.51482e-07
6.56181e-06
3.88162e-07
6.55731e-06
1.89833e-07
6.58664e-06
2.33859e-07
6.60917e-06
4.37502e-07
6.59505e-06
6.48222e-08
6.6069e-06
-2.59161e-08
6.60205e-06
5.09797e-08
6.56763e-06
-1.52811e-07
6.56039e-06
-1.7978e-07
6.55335e-06
-6.12399e-08
6.52903e-06
-5.52915e-08
6.51895e-06
-5.50963e-08
6.52243e-06
1.51763e-08
6.52318e-06
6.75654e-08
8.4209e-08
6.52167e-06
6.90061e-06
2.87124e-07
6.86211e-06
-4.81698e-07
6.92332e-06
4.96464e-07
6.86655e-06
-1.24299e-07
6.86726e-06
-2.52189e-07
6.87954e-06
3.75882e-07
6.87145e-06
1.97922e-07
6.89986e-06
2.05447e-07
6.92448e-06
4.12882e-07
6.90893e-06
8.0369e-08
6.91862e-06
-3.56015e-08
6.91744e-06
5.21553e-08
6.88295e-06
-1.18316e-07
6.87184e-06
-1.68671e-07
6.86831e-06
-5.77139e-08
6.84665e-06
-3.36315e-08
6.83361e-06
-4.20486e-08
6.83612e-06
1.26595e-08
6.83835e-06
6.53383e-08
8.47221e-08
6.83784e-06
7.23101e-06
2.75252e-07
7.19103e-06
-4.41722e-07
7.25141e-06
4.36089e-07
7.19842e-06
-7.13131e-08
7.1946e-06
-2.48368e-07
7.21211e-06
3.5837e-07
7.2014e-06
2.08634e-07
7.22757e-06
1.79277e-07
7.25469e-06
3.85766e-07
7.23836e-06
9.66947e-08
7.24495e-06
-4.21868e-08
7.24733e-06
4.97775e-08
7.21403e-06
-8.50195e-08
7.19856e-06
-1.53203e-07
7.19736e-06
-5.65177e-08
7.17947e-06
-1.57404e-08
7.16438e-06
-2.69536e-08
7.16506e-06
1.19769e-08
7.16834e-06
6.20584e-08
8.41967e-08
7.16887e-06
7.57717e-06
2.62311e-07
7.53584e-06
-4.00397e-07
7.59492e-06
3.77009e-07
7.54646e-06
-2.28501e-08
7.53763e-06
-2.39543e-07
7.56004e-06
3.35958e-07
7.54798e-06
2.20695e-07
7.57061e-06
1.56652e-07
7.6002e-06
3.56174e-07
7.58406e-06
1.12832e-07
7.5868e-06
-4.4923e-08
7.59213e-06
4.44436e-08
7.56134e-06
-5.42271e-08
7.54163e-06
-1.33496e-07
7.54123e-06
-5.61128e-08
7.52781e-06
-2.31926e-09
7.51188e-06
-1.10283e-08
7.51017e-06
1.36889e-08
7.51396e-06
5.82713e-08
8.26252e-08
7.51553e-06
7.9398e-06
2.48322e-07
7.89734e-06
-3.57932e-07
7.95459e-06
3.19755e-07
7.91136e-06
2.03759e-08
7.89721e-06
-2.25388e-07
7.92393e-06
3.09238e-07
7.91196e-06
2.32664e-07
7.92991e-06
1.38697e-07
7.96148e-06
3.24609e-07
7.94667e-06
1.27641e-07
7.94511e-06
-4.33639e-08
7.95246e-06
3.70919e-08
7.9252e-06
-2.69691e-08
7.90208e-06
-1.10375e-07
7.9009e-06
-5.49278e-08
7.89189e-06
6.69219e-09
7.87667e-06
4.18354e-09
7.87245e-06
1.79158e-08
7.87604e-06
5.46829e-08
8.01803e-08
7.87848e-06
8.31965e-06
2.33355e-07
8.27637e-06
-3.14657e-07
8.33114e-06
2.64989e-07
8.29385e-06
5.76678e-08
8.27436e-06
-2.05901e-07
8.30449e-06
2.79107e-07
8.29398e-06
2.43174e-07
8.30643e-06
1.26249e-07
8.3391e-06
2.91943e-07
8.32666e-06
1.40076e-07
8.32077e-06
-3.74745e-08
8.32896e-06
2.89082e-08
8.30594e-06
-3.94919e-09
8.28067e-06
-8.51124e-08
8.27755e-06
-5.18011e-08
8.27228e-06
1.19599e-08
8.25896e-06
1.75038e-08
8.2528e-06
2.40746e-08
8.2554e-06
5.20878e-08
7.7042e-08
8.25853e-06
8.71747e-06
2.17546e-07
8.67382e-06
-2.71002e-07
8.72531e-06
2.13492e-07
8.69467e-06
8.8309e-08
8.67e-06
-1.81231e-07
8.70188e-06
2.47228e-07
8.69441e-06
2.50641e-07
8.70114e-06
1.1952e-07
8.7336e-06
2.59482e-07
8.72438e-06
1.49297e-07
8.71444e-06
-2.75284e-08
8.72209e-06
2.12597e-08
8.704e-06
1.41346e-08
8.67807e-06
-5.91781e-08
8.67237e-06
-4.61041e-08
8.66978e-06
1.4548e-08
8.65915e-06
2.8135e-08
8.65197e-06
3.12548e-08
8.65312e-06
5.09413e-08
7.36414e-08
8.65652e-06
9.13407e-06
2.01098e-07
9.09073e-06
-2.27661e-07
9.13792e-06
1.66293e-07
9.11471e-06
1.11528e-07
9.08519e-06
-1.5172e-07
9.11699e-06
2.1543e-07
9.11379e-06
2.53846e-07
9.11519e-06
1.1812e-07
9.14567e-06
2.28998e-07
9.14e-06
1.54972e-07
9.12666e-06
-1.41875e-08
9.13269e-06
1.52248e-08
9.11997e-06
2.68543e-08
9.09502e-06
-3.42289e-08
9.08661e-06
-3.76966e-08
9.08549e-06
1.56765e-08
9.0778e-06
3.58233e-08
9.07046e-06
3.8593e-08
9.07023e-06
5.11742e-08
7.04983e-08
9.07337e-06
9.57028e-06
1.8428e-07
9.52821e-06
-1.85589e-07
9.56993e-06
1.24569e-07
9.55476e-06
1.267e-07
9.52138e-06
-1.18347e-07
9.55088e-06
1.85932e-07
9.5524e-06
2.5233e-07
9.54956e-06
1.20954e-07
9.57644e-06
2.02126e-07
9.57433e-06
1.57083e-07
9.55882e-06
1.32168e-09
9.5624e-06
1.16409e-08
9.55484e-06
3.44139e-08
9.53231e-06
-1.16984e-08
9.5215e-06
-2.68885e-08
9.52066e-06
1.65189e-08
9.51573e-06
4.07543e-08
9.50893e-06
4.53913e-08
9.50769e-06
5.24131e-08
6.79883e-08
9.5102e-06
1.0027e-05
1.67405e-07
9.98725e-06
-1.45834e-07
1.00224e-05
8.94073e-08
1.00152e-05
1.33929e-07
9.97983e-06
-8.2991e-08
1.00047e-05
1.61068e-07
1.00107e-05
2.46299e-07
1.00054e-05
1.26293e-07
1.00278e-05
1.79676e-07
1.00288e-05
1.56075e-07
1.00129e-05
1.72384e-08
1.00136e-05
1.09657e-08
1.00098e-05
3.82346e-08
9.99068e-06
7.40462e-09
9.97818e-06
-1.43839e-08
9.97667e-06
1.80269e-08
9.97393e-06
4.34955e-08
9.9682e-06
5.11163e-08
9.96632e-06
5.42904e-08
6.61256e-08
9.96819e-06
1.05053e-05
1.50793e-07
1.04687e-05
-1.09323e-07
1.04967e-05
6.14907e-08
1.04964e-05
1.34201e-07
1.04613e-05
-4.78973e-08
1.04801e-05
1.42232e-07
1.04899e-05
2.36519e-07
1.04837e-05
1.32452e-07
1.05017e-05
1.61735e-07
1.05051e-05
1.52637e-07
1.04901e-05
3.22511e-08
1.04877e-05
1.33658e-08
1.04862e-05
3.97278e-08
1.04708e-05
2.28485e-08
1.04576e-05
-1.20447e-09
1.04549e-05
2.07588e-08
1.04535e-05
4.48356e-08
1.04493e-05
5.53759e-08
1.0447e-05
5.65904e-08
6.48377e-08
1.04483e-05
1.10061e-05
1.34734e-07
1.09735e-05
-7.66961e-08
1.09942e-05
4.07648e-08
1.09991e-05
1.29307e-07
1.09666e-05
-1.54671e-08
1.09793e-05
1.29584e-07
1.09915e-05
2.24315e-07
1.09856e-05
1.38308e-07
1.09994e-05
1.48002e-07
1.10044e-05
1.47589e-07
1.09909e-05
4.57365e-08
1.0986e-05
1.83316e-08
1.09854e-05
4.02811e-08
1.09733e-05
3.4933e-08
1.09607e-05
1.14456e-08
1.09565e-05
2.49617e-08
1.09558e-05
4.55322e-08
1.0953e-05
5.81408e-08
1.09507e-05
5.88884e-08
6.41639e-08
1.09514e-05
1.15306e-05
1.19465e-07
1.15022e-05
-4.82687e-08
1.15165e-05
2.65114e-08
1.15245e-05
1.21276e-07
1.14965e-05
1.2538e-08
1.15038e-05
1.2225e-07
1.15168e-05
2.1135e-07
1.1512e-05
1.43117e-07
1.15219e-05
1.38031e-07
1.15278e-05
1.41782e-07
1.15162e-05
5.72948e-08
1.15092e-05
2.52969e-08
1.15087e-05
4.08113e-08
1.14996e-05
4.40596e-08
1.14879e-05
2.30827e-08
1.14827e-05
3.02048e-08
1.1482e-05
4.62004e-08
1.14805e-05
5.96464e-08
1.14786e-05
6.07551e-08
6.40658e-08
1.14787e-05
1.20801e-05
1.05169e-07
1.20559e-05
-2.40972e-08
1.20647e-05
1.77965e-08
1.20742e-05
1.11762e-07
1.20512e-05
3.54806e-08
1.20548e-05
1.18712e-07
1.20673e-05
1.98841e-07
1.20636e-05
1.46806e-07
1.20704e-05
1.31254e-07
1.20762e-05
1.35962e-07
1.20668e-05
6.66858e-08
1.20585e-05
3.35794e-08
1.20574e-05
4.19668e-08
1.20506e-05
5.08013e-08
1.20404e-05
3.32743e-08
1.20346e-05
3.60125e-08
1.20336e-05
4.72447e-08
1.20329e-05
6.03315e-08
1.20318e-05
6.18377e-08
6.43672e-08
1.20315e-05
1.26558e-05
9.19808e-08
1.26358e-05
-4.11043e-09
1.26401e-05
1.35134e-08
1.26497e-05
1.02129e-07
1.26317e-05
5.35095e-08
1.2633e-05
1.17356e-07
1.26444e-05
1.87522e-07
1.26414e-05
1.49745e-07
1.26456e-05
1.27054e-07
1.2651e-05
1.30538e-07
1.26437e-05
7.39812e-08
1.26349e-05
4.24027e-08
1.26327e-05
4.41601e-08
1.26278e-05
5.57108e-08
1.26192e-05
4.19339e-08
1.26133e-05
4.18837e-08
1.26118e-05
4.87073e-08
1.26115e-05
6.0651e-08
1.26112e-05
6.21839e-08
6.45314e-08
1.2611e-05
1.32589e-05
7.99872e-08
1.3243e-05
1.18642e-08
1.32439e-05
1.26023e-08
1.32528e-05
9.31816e-08
1.32389e-05
6.7385e-08
1.32391e-05
1.1715e-07
1.32491e-05
1.77586e-07
1.32466e-05
1.52207e-07
1.32488e-05
1.24904e-07
1.32535e-05
1.25789e-07
1.32482e-05
7.93111e-08
1.32395e-05
5.108e-08
1.32363e-05
4.73847e-08
1.32325e-05
5.94881e-08
1.32254e-05
4.90651e-08
1.32197e-05
4.75132e-08
1.3218e-05
5.04335e-08
1.32179e-05
6.08203e-08
1.3218e-05
6.20508e-08
6.42664e-08
1.32182e-05
1.38909e-05
6.92018e-08
1.38789e-05
2.38977e-08
1.38773e-05
1.4214e-08
1.3885e-05
8.54419e-08
1.38742e-05
7.82517e-08
1.38737e-05
1.17646e-07
1.38826e-05
1.68649e-07
1.38807e-05
1.54175e-07
1.3881e-05
1.24536e-07
1.3885e-05
1.21834e-07
1.38813e-05
8.2988e-08
1.38734e-05
5.89606e-08
1.38694e-05
5.13926e-08
1.38661e-05
6.27961e-08
1.38605e-05
5.46917e-08
1.38552e-05
5.278e-08
1.38534e-05
5.22055e-08
1.38534e-05
6.09036e-08
1.38537e-05
6.17477e-08
6.35006e-08
1.38544e-05
1.45533e-05
5.95924e-08
1.45444e-05
3.28068e-08
1.45412e-05
1.73412e-08
1.45474e-05
7.93049e-08
1.45387e-05
8.69529e-08
1.45377e-05
1.18595e-07
1.45461e-05
1.60246e-07
1.4545e-05
1.5535e-07
1.45439e-05
1.25583e-07
1.45467e-05
1.19016e-07
1.45444e-05
8.52656e-08
1.45377e-05
6.5677e-08
1.45334e-05
5.57511e-08
1.45303e-05
6.59054e-08
1.45258e-05
5.91414e-08
1.45211e-05
5.74463e-08
1.45192e-05
5.41142e-08
1.45193e-05
6.07953e-08
1.45198e-05
6.13186e-08
6.25021e-08
1.45208e-05
1.52474e-05
5.10746e-08
1.52411e-05
3.90982e-08
1.52371e-05
2.13565e-08
1.52407e-05
7.57034e-08
1.52337e-05
9.39762e-08
1.52324e-05
1.19888e-07
1.52406e-05
1.51999e-07
1.52409e-05
1.55123e-07
1.5239e-05
1.27428e-07
1.52404e-05
1.17641e-07
1.5239e-05
8.66077e-08
1.52337e-05
7.1045e-08
1.52295e-05
5.99436e-08
1.52265e-05
6.88382e-08
1.52228e-05
6.28666e-08
1.5219e-05
6.12557e-08
1.52169e-05
5.61793e-08
1.52172e-05
6.05464e-08
1.52179e-05
6.06154e-08
6.15465e-08
1.52189e-05
1.59749e-05
4.35491e-08
1.59705e-05
4.34241e-08
1.59652e-05
2.66683e-08
1.59664e-05
7.45649e-08
1.5961e-05
9.93828e-08
1.59592e-05
1.21596e-07
1.59676e-05
1.43686e-07
1.59698e-05
1.52927e-07
1.59678e-05
1.29356e-07
1.59678e-05
1.17711e-07
1.59666e-05
8.77459e-08
1.59627e-05
7.49796e-08
1.5959e-05
6.36249e-08
1.59564e-05
7.14195e-08
1.59533e-05
6.59921e-08
1.59502e-05
6.43839e-08
1.59482e-05
5.81227e-08
1.59483e-05
6.04275e-08
1.59494e-05
5.95746e-08
6.05829e-08
1.59503e-05
1.67371e-05
3.70926e-08
1.6731e-05
4.94723e-08
1.67254e-05
3.22507e-08
1.67265e-05
7.3488e-08
1.67228e-05
1.03128e-07
1.67208e-05
1.23522e-07
1.67289e-05
1.3564e-07
1.67331e-05
1.48679e-07
1.67319e-05
1.30584e-07
1.67306e-05
1.19008e-07
1.67291e-05
8.92489e-08
1.67262e-05
7.79196e-08
1.67234e-05
6.64029e-08
1.67213e-05
7.34726e-08
1.67188e-05
6.84721e-08
1.67162e-05
6.70476e-08
1.67146e-05
5.9684e-08
1.67144e-05
6.0627e-08
1.67158e-05
5.81564e-08
5.95081e-08
1.67169e-05
1.75359e-05
3.15702e-08
1.7532e-05
5.33248e-08
1.75248e-05
3.95197e-08
1.75243e-05
7.39716e-08
1.75217e-05
1.05686e-07
1.75196e-05
1.25673e-07
1.75266e-05
1.28656e-07
1.75325e-05
1.4275e-07
1.75326e-05
1.30438e-07
1.75306e-05
1.21052e-07
1.75285e-05
9.13493e-08
1.7526e-05
8.03962e-08
1.75241e-05
6.83028e-08
1.75227e-05
7.48309e-08
1.75211e-05
7.01676e-08
1.75189e-05
6.9205e-08
1.75176e-05
6.09617e-08
1.75174e-05
6.08781e-08
1.75187e-05
5.67759e-08
5.80625e-08
1.75202e-05
1.83729e-05
2.69957e-08
1.83696e-05
5.66149e-08
1.83624e-05
4.67469e-08
1.83615e-05
7.4892e-08
1.83602e-05
1.06987e-07
1.83576e-05
1.28213e-07
1.83626e-05
1.23669e-07
1.83695e-05
1.35861e-07
1.83714e-05
1.28575e-07
1.83694e-05
1.23059e-07
1.83667e-05
9.40685e-08
1.83643e-05
8.27883e-08
1.83628e-05
6.97322e-08
1.83623e-05
7.53325e-08
1.83615e-05
7.09869e-08
1.83599e-05
7.07782e-08
1.8359e-05
6.19183e-08
1.83589e-05
6.0997e-08
1.83599e-05
5.57511e-08
5.61599e-08
1.83618e-05
1.92501e-05
2.33078e-08
1.92478e-05
5.88641e-08
1.92407e-05
5.38731e-08
1.92391e-05
7.64989e-08
1.92392e-05
1.06927e-07
1.92368e-05