/*--------------------------------*- C++ -*----------------------------------*\
| =========                 |                                                 |
| \\      /  F ield         | OpenFOAM: The Open Source CFD Toolbox           |
|  \\    /   O peration     | Version:  v1812                                 |
|   \\  /    A nd           | Web:      www.OpenFOAM.com                      |
|    \\/     M anipulation  |                                                 |
\*---------------------------------------------------------------------------*/
FoamFile
{
    version     2.0;
    format      ascii;
    class       volScalarField;
    location    "9.6";
    object      p;
}
// * * * * * * * * * * * * * * * * * * * * * * * * * * * * * * * * * * * * * //

dimensions      [0 2 -2 0 0 0 0];


internalField   nonuniform List<scalar> 
9600
(
9.63755e-11
2.25896e-05
-0.000830865
0.000760525
0.00163543
0.000588
0.000810187
0.00128664
0.00233701
0.00262073
0.00407081
0.00494954
0.0084043
0.0103476
0.0153487
0.0147984
0.0198024
0.0208158
0.0268289
0.0336314
-5.43187e-06
3.57902e-05
-0.000829625
0.00076559
0.00162891
0.000581038
0.000803463
0.00128182
0.00234636
0.00263498
0.00407869
0.00494836
0.00841463
0.0103073
0.0153572
0.0147467
0.0198136
0.0207594
0.026937
0.0330519
-1.0725e-05
3.48588e-05
-0.000829608
0.000768409
0.00161263
0.000577302
0.00079646
0.00128004
0.00235821
0.00264774
0.00409293
0.0049502
0.00842354
0.0102595
0.0153594
0.0146854
0.0198034
0.0207047
0.0269565
0.0322759
-1.56354e-05
4.90836e-05
-0.00083018
0.000766235
0.00159595
0.000581007
0.000791245
0.00128016
0.00237164
0.00266261
0.00411732
0.0049562
0.00843161
0.0102049
0.0153548
0.014621
0.0197797
0.0206596
0.0268634
0.0316129
-2.05561e-05
6.3702e-05
-0.000830512
0.000762087
0.00158125
0.000589839
0.00078975
0.00128267
0.00238522
0.00268113
0.00415137
0.00496809
0.00844248
0.0101418
0.015353
0.0145577
0.019754
0.0206238
0.0267269
0.0310025
-2.57471e-05
7.84487e-05
-0.000828871
0.000758558
0.0015677
0.000602168
0.00079281
0.00128756
0.00239861
0.00270379
0.00419387
0.00498795
0.00845603
0.0100719
0.015352
0.0145045
0.0197151
0.0205975
0.0265455
0.0304166
-3.12318e-05
9.34764e-05
-0.000823617
0.000757488
0.00155573
0.000617752
0.000801177
0.00129449
0.00241177
0.00272967
0.00424293
0.00501544
0.00847164
0.00999502
0.0153486
0.0144628
0.0196543
0.0205792
0.0263047
0.0298463
-3.69392e-05
0.000108893
-0.000813568
0.00076041
0.00154622
0.000636945
0.000815616
0.00130335
0.00242489
0.00275758
0.00429551
0.00504753
0.0084876
0.00991236
0.0153392
0.0144338
0.0195689
0.0205659
0.0260041
0.029288
-4.27913e-05
0.000124717
-0.000798319
0.000767876
0.00153961
0.000660265
0.000836994
0.00131425
0.00243818
0.00278667
0.00434835
0.00507946
0.00850144
0.00982601
0.0153179
0.01442
0.0194558
0.0205527
0.0256462
0.0287372
-4.87534e-05
0.000140903
-0.00077836
0.000779465
0.00153574
0.000687889
0.000865673
0.00132739
0.00245194
0.00281702
0.00439932
0.00510616
0.00851034
0.00973889
0.0152793
0.0144217
0.0193122
0.0205342
0.025236
0.0281868
-5.48203e-05
0.000157449
-0.000754762
0.000794086
0.00153402
0.00071925
0.000901124
0.00134263
0.00246641
0.00284916
0.00444827
0.00512669
0.00851158
0.00965496
0.0152192
0.014436
0.0191369
0.0205044
0.0247806
0.0276299
-6.10003e-05
0.00017448
-0.000728698
0.000810413
0.00153368
0.000752978
0.000941798
0.00135931
0.00248173
0.00288355
0.00449635
0.00514437
0.0085035
0.00957849
0.0151357
0.0144573
0.0189318
0.0204569
0.024287
0.0270513
-6.7309e-05
0.000192228
-0.000701077
0.000827302
0.00153402
0.000787239
0.000985588
0.00137636
0.00249786
0.00292055
0.00454524
0.00516502
0.0084856
0.0095133
0.0150292
0.0144802
0.0186997
0.0203845
0.0237624
0.0264488
-7.37413e-05
0.000210947
-0.000672418
0.000844061
0.00153465
0.000820326
0.00103053
0.00139283
0.00251449
0.00296004
0.00459611
0.00519486
0.00845865
0.00946228
0.0149027
0.0144961
0.0184425
0.0202831
0.0232162
0.0258191
-8.02636e-05
0.000230808
-0.000642902
0.000860417
0.00153546
0.000851114
0.00107533
0.00140812
0.00253139
0.00300141
0.00464891
0.00523805
0.00842418
0.00942669
0.0147596
0.0145028
0.0181634
0.0201492
0.0226579
0.0251624
-8.68317e-05
0.00025185
-0.000612499
0.000876292
0.00153662
0.000879188
0.0011195
0.00142211
0.00254844
0.00304432
0.00470253
0.00529551
0.00838326
0.00940576
0.014603
0.0144985
0.0178662
0.0199794
0.0220951
0.0244808
-9.33913e-05
0.000273987
-0.000581101
0.000891669
0.00153851
0.000904613
0.00116303
0.00143505
0.00256554
0.00308887
0.00475558
0.00536522
0.00833624
0.00939664
0.0144345
0.014482
0.0175533
0.0197713
0.0215345
0.0237773
-9.98703e-05
0.000297048
-0.000548591
0.000906516
0.0015415
0.000927612
0.00120608
0.00144731
0.00258251
0.0031355
0.00480675
0.00544388
0.00828316
0.00939509
0.0142549
0.0144522
0.0172264
0.0195236
0.0209817
0.0230564
-0.000106179
0.000320823
-0.000514875
0.000920715
0.0015459
0.000948423
0.00124872
0.00145932
0.00259897
0.00318465
0.00485493
0.00552839
0.00822397
0.00939667
0.0140656
0.0144072
0.016888
0.0192362
0.0204395
0.0223223
-0.000112211
0.00034508
-0.000479873
0.000934087
0.00155199
0.000967253
0.00129087
0.00147152
0.00261436
0.00323667
0.00489939
0.00561606
0.00815892
0.00939733
0.0138682
0.0143445
0.0165403
0.0189109
0.0199075
0.0215792
-0.000117839
0.000369554
-0.000443495
0.000946447
0.00155998
0.000984283
0.00133229
0.00148441
0.00262804
0.00329169
0.00493984
0.00570457
0.00808858
0.00939332
0.0136641
0.0142621
0.0161848
0.0185499
0.0193842
0.0208324
-0.000122916
0.000393963
-0.000405653
0.000957605
0.00157009
0.000999707
0.00137254
0.00149853
0.00263939
0.00334963
0.00497614
0.005792
0.00801404
0.00938111
0.0134545
0.014159
0.0158218
0.018155
0.0188691
0.0200871
-0.000127268
0.000418018
-0.000366253
0.000967386
0.00158242
0.00101374
0.00141119
0.00151438
0.00264796
0.00341029
0.00500823
0.0058764
0.00793696
0.00935778
0.0132401
0.0140346
0.0154519
0.0177288
0.0183601
0.0193476
-0.000130704
0.000441428
-0.000325196
0.000975647
0.00159698
0.00102666
0.00144766
0.00153246
0.00265331
0.0034732
0.00503659
0.00595571
0.00785888
0.00932136
0.013021
0.0138885
0.0150754
0.0172738
0.0178552
0.0186175
-0.000133012
0.000463885
-0.000282404
0.000982278
0.00161374
0.00103888
0.00148128
0.00155311
0.00265518
0.00353752
0.00506204
0.00602788
0.0077805
0.00927062
0.0127969
0.0137211
0.0146916
0.0167926
0.0173533
0.0178995
-0.000133966
0.000485078
-0.000237831
0.00098719
0.00163254
0.00105092
0.00151145
0.00157661
0.00265351
0.00360229
0.00508535
0.00609085
0.00770198
0.00920546
0.0125672
0.0135326
0.0142996
0.0162878
0.016854
0.0171958
-0.000133326
0.00050469
-0.000191455
0.000990351
0.00165308
0.00106339
0.00153764
0.00160301
0.00264833
0.00366646
0.00510756
0.00614293
0.00762333
0.00912564
0.0123311
0.0133247
0.0138995
0.0157604
0.0163566
0.0165115
-0.000130828
0.000522393
-0.00014332
0.000991885
0.0016749
0.00107691
0.00155953
0.00163215
0.00263974
0.00372861
0.00512977
0.00618301
0.00754434
0.00903119
0.012087
0.0130988
0.0134923
0.0152099
0.0158581
0.015853
-0.000126226
0.000537915
-9.35539e-05
0.000991981
0.00169741
0.00109208
0.00157695
0.00166373
0.00262829
0.00378687
0.00515244
0.00621048
0.00746438
0.00892272
0.0118329
0.0128558
0.0130805
0.0146373
0.0153532
0.0152259
-0.000119299
0.000551077
-4.24084e-05
0.000990824
0.00171997
0.00110963
0.00158989
0.00169711
0.00261495
0.00383959
0.00517548
0.00622527
0.00738236
0.00880081
0.0115679
0.0125958
0.0126676
0.0140455
0.014836
0.0146338
-0.000109778
0.000561686
9.75336e-06
0.000988703
0.00174188
0.00113027
0.00159861
0.00173135
0.00260045
0.00388538
0.0051983
0.00622766
0.00729472
0.00866585
0.0112919
0.0123187
0.0122554
0.0134394
0.0143008
0.0140751
-9.74039e-05
0.000569619
6.24957e-05
0.00098601
0.00176238
0.0011545
0.00160347
0.0017655
0.0025855
0.00392278
0.00521984
0.00621816
0.00719981
0.00851786
0.0110044
0.0120249
0.0118448
0.0128248
0.0137419
0.0135443
-8.20008e-05
0.000574904
0.000115299
0.000983193
0.00178096
0.00118241
0.00160494
0.00179862
0.00257068
0.00395081
0.00523888
0.0061971
0.00709773
0.00835668
0.010705
0.0117146
0.0114369
0.0122078
0.0131558
0.0130326
-6.34593e-05
0.000577707
0.000167619
0.000980659
0.00179705
0.00121401
0.00160361
0.00182966
0.00255661
0.00396889
0.00525373
0.00616458
0.00698671
0.00818328
0.0103937
0.0113869
0.0110326
0.0115955
0.0125427
0.0125282
-4.16834e-05
0.000578251
0.000218933
0.000978806
0.00181004
0.00124941
0.00160007
0.00185722
0.00254391
0.00397672
0.00526221
0.00612063
0.00686574
0.00799878
0.010071
0.0110411
0.0106308
0.0109943
0.0119081
0.0120164
-1.66109e-05
0.000576723
0.000268729
0.000978101
0.00181947
0.00128824
0.00159512
0.00188002
0.0025325
0.00397473
0.00526255
0.00606507
0.00673398
0.00780274
0.00973811
0.010678
0.0102275
0.0104082
0.0112614
0.0114859
1.17676e-05
0.000573317
0.000316517
0.000979084
0.00182488
0.00132968
0.00159002
0.00189723
0.00252147
0.00396327
0.00525361
0.00599776
0.00659003
0.00759493
0.00939647
0.0102984
0.00982029
0.00983805
0.0106123
0.0109333
4.34605e-05
0.000568252
0.000361778
0.000982401
0.00182602
0.001374
0.00158616
0.0019081
0.00250921
0.00394277
0.00523448
0.00591839
0.00643286
0.00737541
0.00904651
0.00990365
0.00940854
0.00928267
0.00996774
0.0103615
7.84289e-05
0.000561795
0.000403956
0.000988727
0.00182279
0.00145491
0.00158491
0.00191243
0.00249386
0.00391324
0.00520462
0.00582695
0.0062616
0.00714317
0.00868889
0.00949583
0.00899188
0.00873999
0.00933084
0.00977751
0.0001166
0.000554362
0.000442417
0.000998427
0.00181456
0.00150475
0.00158744
0.00191111
0.00247369
0.00387324
0.00516396
0.00572481
0.0060752
0.00689597
0.0083245
0.00907703
0.00857049
0.0082089
0.00870222
0.00918893
0.000157763
0.000546606
0.000476476
0.00100584
0.00180176
0.00155018
0.00159446
0.00190596
0.00244723
0.00382092
0.0051115
0.0056139
0.00587432
0.00663164
0.00795264
0.00864963
0.00814491
0.00769014
0.00808246
0.00859764
0.000201519
0.000539432
0.000505326
0.00102277
0.00178608
0.00158834
0.00160485
0.00189901
0.00241404
0.0037546
0.00504501
0.00549621
0.00566153
0.00634678
0.00757068
0.0082158
0.00771653
0.00718443
0.00747256
0.00800326
0.000247472
0.00053394
0.000528098
0.00104223
0.00176997
0.00161631
0.00161676
0.00189219
0.00237495
0.00367224
0.0049613
0.00537303
0.00543998
0.00604168
0.00717563
0.00777743
0.00728796
0.00669068
0.00687251
0.00740555
0.000294939
0.000531418
0.000544428
0.00106256
0.00175631
0.00163461
0.00162704
0.0018867
0.00233184
0.00357222
0.00485634
0.00524382
0.00521421
0.0057179
0.0067654
0.00733455
0.00686122
0.00620928
0.00628199
0.00680252
0.000342847
0.000533005
0.000554527
0.00108195
0.00174773
0.00164344
0.00163093
0.00188151
0.00228756
0.00345516
0.00472565
0.005106
0.00498939
0.00537972
0.00633923
0.00688496
0.0064358
0.00574177
0.00570452
0.00619297
0.000390174
0.000539607
0.000559439
0.00109733
0.00174556
0.00164439
0.00162409
0.00187322
0.00224451
0.00332434
0.00456595
0.00495448
0.0047695
0.00503565
0.00589802
0.00642583
0.00601028
0.0052887
0.00514562
0.00557788
0.000436004
0.000551825
0.000560935
0.00110513
0.00174929
0.0016443
0.00160446
0.001857
0.0022028
0.0031842
0.00437873
0.00478386
0.00455364
0.00469469
0.00544593
0.0059558
0.00558291
0.0048484
0.00460934
0.00496308
0.000479573
0.000569678
0.000561354
0.00110246
0.0017564
0.00165006
0.00157348
0.00182659
0.00215998
0.00304013
0.00416879
0.00459045
0.0043367
0.00436066
0.00499007
0.00547493
0.00515016
0.00441597
0.00409623
0.00436113
0.00052024
0.000592775
0.00056337
0.00108732
0.00176213
0.00166504
0.00153411
0.00177636
0.00211123
0.00289783
0.0039427
0.00437333
0.00411403
0.00403555
0.00453601
0.00498332
0.00470933
0.0039882
0.00360262
0.00378381
0.000557572
0.000620384
0.000569377
0.00105911
0.00176082
0.00168979
0.00149185
0.00170407
0.00205038
0.00275941
0.00370843
0.00413388
0.00388141
0.00371844
0.00408914
0.00448366
0.00425975
0.00356609
0.00312326
0.00323117
0.000591609
0.000651168
0.000581206
0.00101954
0.00174552
0.00172046
0.00145477
0.0016136
0.00197054
0.00262181
0.0034729
0.00387606
0.00363522
0.0034049
0.00365125
0.00398034
0.00379981
0.00314937
0.00265758
0.00269805
0.000622625
0.000683477
0.000600273
0.000971488
0.00171063
0.00175335
0.00142888
0.00150958
0.00186699
0.00248071
0.00324149
0.00360771
0.00337592
0.00309049
0.00322089
0.00347694
0.00332682
0.00273418
0.00221048
0.00218031
0.000650866
0.000715231
0.000627057
0.000919225
0.00165372
0.0017799
0.00141595
0.00139871
0.00173772
0.00232734
0.00301307
0.003337
0.00310639
0.00277644
0.0027989
0.00297746
0.00284438
0.00231469
0.00178296
0.00168056
0.000677401
0.000743835
0.000660025
0.00086822
0.0015739
0.0017899
0.00141446
0.00129354
0.00158798
0.00215255
0.00278326
0.00306815
0.00283165
0.00246263
0.00238463
0.00249013
0.00235746
0.0018862
0.00137033
0.00120487
0.000704295
0.000769112
0.000697035
0.000822268
0.00146931
0.00177056
0.00141791
0.00120357
0.00142443
0.00195311
0.00254345
0.00280063
0.00255861
0.00215275
0.00198077
0.00200334
0.00186664
0.00144668
0.000965672
0.000756929
0.000729068
0.000792122
0.000738429
0.000788925
0.00134709
0.00171414
0.00141879
0.00113269
0.00126001
0.00173264
0.00228428
0.0025304
0.00228961
0.00185184
0.00159042
0.00152625
0.00137567
0.000998012
0.000560172
0.000333569
0.000750167
0.000795459
0.000775957
0.000770965
0.00121769
0.00162018
0.00140946
0.00108099
0.00110902
0.00149823
0.00200287
0.00224704
0.0020217
0.00156361
0.00121955
0.00106404
0.000886679
0.000542311
0.000148357
-7.44466e-05
0.000791072
0.000823306
0.000799193
0.000738407
0.00106519
0.00148677
0.00138015
0.00104493
0.000976498
0.00126248
0.00170351
0.00194347
0.00174833
0.00128538
0.000873752
0.000624906
0.000405286
8.52136e-05
-0.00026869
-0.000475604
0.000818452
0.000822235
0.00081206
0.000729448
0.000937627
0.0013249
0.0013168
0.00101387
0.00086177
0.00103558
0.0013913
0.00161688
0.00145863
0.00101225
0.000551816
0.000216588
-6.09317e-05
-0.000375839
-0.00068696
-0.000846751
0.000846155
0.000830516
0.000806624
0.000720845
0.000828515
0.00114745
0.00121349
0.000968636
0.000760822
0.000824327
0.00107929
0.00127241
0.00114776
0.00073455
0.000248759
-0.000156377
-0.000498941
-0.00082957
-0.00112031
-0.00125716
0.000871225
0.000826314
0.000791178
0.000708693
0.000736974
0.000970635
0.00107361
0.000898384
0.000669277
0.000632954
0.000780375
0.000917658
0.000813576
0.000443005
-4.43671e-05
-0.000500537
-0.0009028
-0.0012672
-0.0015536
-0.00167497
0.000886204
0.000825134
0.000767813
0.000687735
0.000659601
0.000804089
0.000904013
0.000796331
0.000574661
0.000457894
0.000500421
0.000568215
0.000464025
0.000134943
-0.000333591
-0.000819112
-0.00126958
-0.00167432
-0.00197458
-0.00208988
0.000893926
0.000805954
0.000748058
0.000664511
0.000591714
0.000651375
0.000719174
0.000661985
0.00046807
0.000299703
0.000244814
0.000234034
0.000108285
-0.000192624
-0.000631006
-0.00112489
-0.0016077
-0.00204708
-0.00237542
-0.00249579
0.000899746
0.000804828
0.000695334
0.0006048
0.000523602
0.000516355
0.00053425
0.000500435
0.000340319
0.000149791
1.29978e-05
-8.04171e-05
-0.000239865
-0.000529198
-0.00093919
-0.00142321
-0.00192281
-0.00238556
-0.00274401
-0.00288355
0.000895292
0.00077098
0.000661213
0.00055715
0.000454923
0.000393754
0.00035856
0.000319865
0.000188538
-4.05739e-06
-0.000197901
-0.000368658
-0.000572196
-0.000863428
-0.00125352
-0.0017196
-0.00222338
-0.00269768
-0.00307832
-0.00324548
0.000881972
0.000758987
0.000592193
0.00047587
0.000371875
0.000276747
0.000192608
0.000132483
1.75695e-05
-0.000165047
-0.000391381
-0.000626692
-0.000881872
-0.00118526
-0.00156294
-0.00201284
-0.0025138
-0.00299262
-0.00338233
-0.00357716
0.000857546
0.000712715
0.000548817
0.000415168
0.000284039
0.000162086
3.69076e-05
-5.34675e-05
-0.00016693
-0.000336072
-0.000577221
-0.000859479
-0.00116448
-0.00149177
-0.0018642
-0.00229801
-0.00278798
-0.00326672
-0.00365834
-0.00387001
0.000828267
0.000677662
0.000486584
0.000331203
0.000188382
4.60859e-05
-0.000110247
-0.000234618
-0.000360797
-0.000516613
-0.000754046
-0.00106502
-0.00140922
-0.00176985
-0.00215043
-0.00257147
-0.00304916
-0.00352515
-0.00391637
-0.0041359
0.000789093
0.000639054
0.000423782
0.000249403
8.56415e-05
-8.06339e-05
-0.00025211
-0.000403674
-0.000553475
-0.000707325
-0.000931316
-0.00124889
-0.00161709
-0.00200124
-0.00240152
-0.00282066
-0.00328552
-0.00375788
-0.00415158
-0.00437756
0.00073284
0.000573492
0.00036417
0.000172088
-1.99613e-05
-0.000180622
-0.000387561
-0.000561181
-0.000729718
-0.000895224
-0.00111261
-0.00142594
-0.00180124
-0.0021938
-0.00260234
-0.0030255
-0.00348121
-0.00394819
-0.00434622
-0.0045816
0.000677349
0.000512527
0.00028003
7.16455e-05
-0.000132124
-0.000314874
-0.000527484
-0.000715438
-0.000894641
-0.00106827
-0.00127953
-0.00158132
-0.00195461
-0.00234811
-0.00275473
-0.00318124
-0.00363204
-0.00409033
-0.00449065
-0.00473984
0.000606564
0.000432374
0.000194526
-2.20351e-05
-0.000243818
-0.000446551
-0.000667481
-0.000869568
-0.00104046
-0.00121219
-0.00141195
-0.00168806
-0.00204409
-0.00243453
-0.00283856
-0.0032628
-0.00371059
-0.00416412
-0.00456792
-0.00483201
0.000521126
0.000344717
0.000108212
-0.000118963
-0.000366188
-0.000585974
-0.000806468
-0.00102243
-0.00127877
-0.00153069
-0.00169715
-0.00191049
-0.00219228
-0.00252656
-0.00289804
-0.00330128
-0.00373727
-0.00418237
-0.00458994
-0.00487564
0.000431299
0.000250168
7.7034e-06
-0.000224349
-0.000479566
-0.000719594
-0.000947115
-0.00112086
-0.00130148
-0.00141765
-0.0016063
-0.00179242
-0.00208562
-0.00239927
-0.00273875
-0.00309978
-0.0034918
-0.00391158
-0.00434129
-0.00471697
0.000329077
0.000132114
-0.000124112
-0.000349331
-0.00058015
-0.000802978
-0.00108344
-0.00138606
-0.00172068
-0.00193993
-0.00204219
-0.00209341
-0.00216869
-0.00235659
-0.00261622
-0.0028622
-0.00304303
-0.00316151
-0.00322987
-0.00331268
0.000224526
4.56353e-05
-0.000211076
-0.000466674
-0.000754206
-0.000986653
-0.00115205
-0.00124252
-0.00136244
-0.00155542
-0.00176477
-0.0019826
-0.00220315
-0.0024076
-0.00258521
-0.00272373
-0.00281776
-0.00290251
-0.00302617
-0.00324641
1.69478e-05
-0.000197731
-0.000358155
-0.000453658
-0.000600548
-0.000806746
-0.00108997
-0.00137559
-0.00164203
-0.00187937
-0.0020876
-0.00228605
-0.00247632
-0.00263354
-0.0027684
-0.00287419
-0.00293337
-0.00294513
-0.00296082
-0.00306291
9.65739e-06
-0.000131991
-0.000325116
-0.000503003
-0.000717549
-0.000966533
-0.00119932
-0.00143087
-0.00162301
-0.00179388
-0.00196343
-0.00211636
-0.00229064
-0.00246649
-0.00267644
-0.00296486
-0.00336016
-0.00385271
-0.00440551
-0.00495019
-0.000184184
-0.000370242
-0.000489492
-0.000527263
-0.000624069
-0.000811369
-0.00112504
-0.00143568
-0.00168304
-0.00190658
-0.00213405
-0.00231234
-0.00248064
-0.00263899
-0.00275434
-0.00283233
-0.00287835
-0.00291169
-0.0029752
-0.00313253
-0.000232971
-0.000391659
-0.000461669
-0.000486101
-0.000603697
-0.000842602
-0.00115348
-0.00146615
-0.0017339
-0.00195072
-0.00215601
-0.00231517
-0.00243658
-0.00253471
-0.00259113
-0.00261258
-0.00264401
-0.002733
-0.00291441
-0.0032375
0.0466089
0.0327117
0.0174377
0.00815468
0.00463424
0.00401319
0.00407175
0.00380029
0.00295605
0.00170725
0.000444676
-0.000571318
-0.0014699
-0.00252611
-0.00371231
-0.00477123
-0.00562277
-0.00632485
-0.00688353
-0.00740202
-0.00804586
-0.00881058
-0.00959708
-0.0103621
-0.0111024
-0.0118225
-0.0125536
-0.0133267
-0.0141067
-0.0148242
-0.0155078
-0.0162266
-0.0169659
-0.0176636
-0.0183346
-0.0190483
-0.0198059
-0.0205436
-0.0212689
-0.0220273
-0.0228059
-0.0235871
-0.024384
-0.0252006
-0.0260236
-0.0268552
-0.0276794
-0.0284749
-0.0292637
-0.0301161
-0.0310276
-0.0319601
-0.03288
-0.0338154
-0.0347797
-0.0357357
-0.0366562
-0.0376188
-0.0386254
-0.0396262
-0.0406335
-0.0416936
-0.0427965
-0.0438987
-0.0450312
-0.0462127
-0.0473977
-0.0485634
-0.0497478
-0.0509091
-0.0521095
-0.0533849
-0.0547307
-0.0560723
-0.0574123
-0.0587586
-0.0601097
-0.0615192
-0.0629692
-0.0644278
-0.0659145
-0.0674465
-0.0690139
-0.0705753
-0.0721825
-0.073799
-0.0754613
-0.0771353
-0.0788245
-0.0805414
-0.0822766
-0.0840657
-0.0858842
-0.0877377
-0.0895574
-0.091498
-0.0933507
-0.0953135
-0.097058
-0.0985071
0.044357
0.0324873
0.0175313
0.00827005
0.00470768
0.0040539
0.00409976
0.00382171
0.00297232
0.00171959
0.00045425
-0.000563185
-0.00146228
-0.00251911
-0.00370639
-0.0047662
-0.00561831
-0.00632095
-0.00688
-0.00739859
-0.00804262
-0.0088077
-0.00959452
-0.0103598
-0.0111003
-0.0118205
-0.0125518
-0.013325
-0.0141052
-0.0148229
-0.0155066
-0.0162254
-0.0169648
-0.0176627
-0.0183337
-0.0190475
-0.0198051
-0.0205429
-0.0212682
-0.0220267
-0.0228054
-0.0235865
-0.0243834
-0.0252001
-0.0260231
-0.0268548
-0.027679
-0.0284744
-0.0292632
-0.0301156
-0.0310271
-0.0319597
-0.0328796
-0.033815
-0.0347793
-0.0357354
-0.0366559
-0.0376184
-0.0386251
-0.0396259
-0.0406332
-0.0416933
-0.0427962
-0.0438984
-0.0450309
-0.0462125
-0.0473975
-0.0485632
-0.0497476
-0.0509089
-0.0521093
-0.0533847
-0.0547305
-0.0560721
-0.0574122
-0.0587584
-0.0601096
-0.0615191
-0.062969
-0.0644276
-0.0659144
-0.0674463
-0.0690137
-0.0705752
-0.0721824
-0.0737989
-0.0754611
-0.0771352
-0.0788244
-0.0805413
-0.0822765
-0.0840656
-0.0858841
-0.0877376
-0.0895573
-0.0914979
-0.0933507
-0.0953134
-0.0970579
-0.098507
0.0426903
0.0324311
0.0178065
0.00851428
0.00483884
0.00410534
0.00412195
0.00383739
0.00298645
0.00173259
0.000465809
-0.000553657
-0.00145463
-0.00251288
-0.00370124
-0.00476169
-0.00561415
-0.00631716
-0.00687646
-0.0073952
-0.00803958
-0.00880507
-0.00959217
-0.0103577
-0.0110985
-0.0118188
-0.0125501
-0.0133235
-0.0141038
-0.0148217
-0.0155054
-0.0162244
-0.0169639
-0.0176619
-0.0183329
-0.0190467
-0.0198045
-0.0205423
-0.0212677
-0.0220262
-0.0228049
-0.0235861
-0.024383
-0.0251997
-0.0260227
-0.0268544
-0.0276786
-0.0284741
-0.0292628
-0.0301152
-0.0310268
-0.0319593
-0.0328793
-0.0338147
-0.034779
-0.0357351
-0.0366556
-0.0376181
-0.0386248
-0.0396256
-0.0406329
-0.041693
-0.042796
-0.0438982
-0.0450307
-0.0462123
-0.0473973
-0.048563
-0.0497474
-0.0509087
-0.0521091
-0.0533845
-0.0547303
-0.056072
-0.057412
-0.0587583
-0.0601094
-0.061519
-0.0629689
-0.0644275
-0.0659143
-0.0674462
-0.0690136
-0.0705751
-0.0721823
-0.0737988
-0.075461
-0.0771352
-0.0788243
-0.0805412
-0.0822764
-0.0840656
-0.085884
-0.0877376
-0.0895572
-0.0914978
-0.0933506
-0.0953134
-0.097058
-0.098507
0.0410928
0.0322862
0.0181087
0.00880384
0.00500079
0.00416691
0.00414588
0.00385513
0.00300251
0.00174786
0.000481152
-0.000540556
-0.00144531
-0.00250616
-0.00369566
-0.00475663
-0.00560925
-0.00631223
-0.00687171
-0.007391
-0.00803608
-0.00880197
-0.00958922
-0.010355
-0.0110962
-0.0118169
-0.0125483
-0.0133216
-0.0141021
-0.0148202
-0.0155041
-0.0162232
-0.0169628
-0.0176608
-0.0183319
-0.0190458
-0.0198037
-0.0205417
-0.021267
-0.0220256
-0.0228043
-0.0235855
-0.0243825
-0.0251992
-0.0260223
-0.026854
-0.0276782
-0.0284737
-0.0292624
-0.0301148
-0.0310264
-0.031959
-0.032879
-0.0338144
-0.0347787
-0.0357348
-0.0366553
-0.0376178
-0.0386245
-0.0396254
-0.0406326
-0.0416927
-0.0427957
-0.0438979
-0.0450304
-0.046212
-0.0473971
-0.0485628
-0.0497473
-0.0509085
-0.0521089
-0.0533843
-0.0547302
-0.0560718
-0.0574119
-0.0587582
-0.0601093
-0.0615188
-0.0629688
-0.0644274
-0.0659142
-0.0674461
-0.0690135
-0.070575
-0.0721822
-0.0737987
-0.0754609
-0.0771351
-0.0788242
-0.0805411
-0.0822763
-0.0840655
-0.0858839
-0.0877375
-0.0895571
-0.0914978
-0.0933506
-0.0953134
-0.0970582
-0.098507
0.0394648
0.0320096
0.0184095
0.00911714
0.00517803
0.0042343
0.00417115
0.00387381
0.00301917
0.00176469
0.00050049
-0.000523051
-0.00143352
-0.0024982
-0.00368875
-0.00475025
-0.00560306
-0.00630564
-0.00686528
-0.00738573
-0.00803189
-0.00879795
-0.00958496
-0.010351
-0.0110931
-0.0118146
-0.0125462
-0.0133192
-0.0140996
-0.014818
-0.0155024
-0.0162217
-0.0169613
-0.0176593
-0.0183305
-0.0190446
-0.0198027
-0.0205407
-0.0212661
-0.0220248
-0.0228037
-0.0235849
-0.0243819
-0.0251987
-0.0260218
-0.0268536
-0.0276779
-0.0284733
-0.0292619
-0.0301143
-0.0310259
-0.0319586
-0.0328786
-0.033814
-0.0347783
-0.0357345
-0.0366549
-0.0376175
-0.0386242
-0.0396251
-0.0406323
-0.0416924
-0.0427955
-0.0438976
-0.0450301
-0.0462118
-0.0473969
-0.0485626
-0.0497471
-0.0509083
-0.0521086
-0.0533841
-0.05473
-0.0560717
-0.0574117
-0.058758
-0.0601091
-0.0615186
-0.0629687
-0.0644273
-0.065914
-0.067446
-0.0690134
-0.0705749
-0.0721821
-0.0737986
-0.0754608
-0.077135
-0.0788241
-0.080541
-0.0822762
-0.0840654
-0.0858838
-0.0877374
-0.089557
-0.0914977
-0.0933505
-0.0953134
-0.0970585
-0.0985072
0.0378247
0.0316279
0.0187148
0.00945416
0.00536651
0.0043049
0.00419581
0.00389131
0.0030349
0.00178126
0.000521305
-0.000503265
-0.0014202
-0.0024891
-0.00368034
-0.00474243
-0.00559556
-0.00629735
-0.00685719
-0.00737952
-0.00802716
-0.00879302
-0.00957914
-0.0103451
-0.0110886
-0.0118116
-0.0125435
-0.0133159
-0.0140959
-0.014815
-0.0155002
-0.0162196
-0.016959
-0.0176571
-0.0183286
-0.019043
-0.0198012
-0.0205393
-0.021265
-0.0220238
-0.0228028
-0.0235841
-0.0243813
-0.0251982
-0.0260213
-0.0268531
-0.0276774
-0.0284729
-0.0292614
-0.0301138
-0.0310254
-0.0319582
-0.0328783
-0.0338137
-0.034778
-0.0357341
-0.0366546
-0.0376171
-0.0386239
-0.0396247
-0.040632
-0.0416921
-0.0427952
-0.0438974
-0.0450298
-0.0462116
-0.0473967
-0.0485623
-0.0497469
-0.0509081
-0.0521083
-0.0533838
-0.0547298
-0.0560715
-0.0574116
-0.0587578
-0.0601089
-0.0615185
-0.0629685
-0.0644271
-0.0659139
-0.0674458
-0.0690133
-0.0705747
-0.072182
-0.0737985
-0.0754607
-0.0771349
-0.078824
-0.080541
-0.0822761
-0.0840653
-0.0858837
-0.0877373
-0.0895569
-0.0914977
-0.0933505
-0.0953135
-0.097059
-0.0985074
0.0362109
0.0311608
0.0190224
0.00981027
0.00556228
0.00437614
0.00421808
0.00390648
0.00304952
0.00179729
0.00054219
-0.000482919
-0.00140637
-0.00247945
-0.00367106
-0.00473373
-0.00558712
-0.00628771
-0.00684782
-0.0073727
-0.00802218
-0.00878744
-0.00957191
-0.0103374
-0.0110824
-0.0118075
-0.0125402
-0.0133115
-0.0140908
-0.0148109
-0.0154975
-0.0162171
-0.0169558
-0.017654
-0.0183262
-0.0190408
-0.019799
-0.0205374
-0.0212633
-0.0220224
-0.0228015
-0.023583
-0.0243804
-0.0251975
-0.0260207
-0.0268525
-0.0276769
-0.0284723
-0.0292609
-0.0301132
-0.0310248
-0.0319576
-0.0328779
-0.0338133
-0.0347776
-0.0357337
-0.0366542
-0.0376167
-0.0386235
-0.0396244
-0.0406316
-0.0416917
-0.0427949
-0.043897
-0.0450295
-0.0462113
-0.0473964
-0.048562
-0.0497466
-0.0509079
-0.052108
-0.0533834
-0.0547296
-0.0560714
-0.0574114
-0.0587576
-0.0601087
-0.0615182
-0.0629683
-0.0644269
-0.0659137
-0.0674457
-0.0690132
-0.0705746
-0.0721819
-0.0737984
-0.0754606
-0.0771348
-0.0788239
-0.0805408
-0.082276
-0.0840652
-0.0858836
-0.0877373
-0.0895568
-0.0914976
-0.0933505
-0.0953135
-0.0970596
-0.0985078
0.0346478
0.0306105
0.0193158
0.0101781
0.00576372
0.00444775
0.00423795
0.00391923
0.00306322
0.00181293
0.000562921
-0.00046239
-0.00139226
-0.00246957
-0.00366158
-0.00472486
-0.00557834
-0.00627725
-0.00683752
-0.00736543
-0.00801709
-0.00878154
-0.00956376
-0.0103283
-0.0110747
-0.0118024
-0.012536
-0.013306
-0.0140843
-0.0148057
-0.0154943
-0.016214
-0.0169518
-0.01765
-0.0183231
-0.0190382
-0.0197963
-0.0205349
-0.0212613
-0.0220206
-0.0227997
-0.0235814
-0.0243791
-0.0251966
-0.02602
-0.0268519
-0.0276762
-0.0284717
-0.0292603
-0.0301125
-0.031024
-0.0319569
-0.0328774
-0.033813
-0.0347771
-0.0357332
-0.0366538
-0.0376164
-0.0386231
-0.0396239
-0.0406312
-0.0416913
-0.0427945
-0.0438967
-0.0450292
-0.0462111
-0.0473962
-0.0485617
-0.0497463
-0.0509076
-0.0521076
-0.0533831
-0.0547293
-0.0560711
-0.0574111
-0.0587574
-0.0601084
-0.061518
-0.0629681
-0.0644267
-0.0659135
-0.0674455
-0.069013
-0.0705745
-0.0721817
-0.0737983
-0.0754605
-0.0771347
-0.0788238
-0.0805407
-0.0822758
-0.0840651
-0.0858835
-0.0877372
-0.0895567
-0.0914975
-0.0933506
-0.0953136
-0.0970604
-0.0985084
0.0331513
0.0299763
0.0195795
0.0105541
0.00597311
0.00452171
0.0042567
0.00392978
0.00307576
0.00182803
0.000583395
-0.000441823
-0.00137804
-0.00245978
-0.00365235
-0.00471637
-0.0055698
-0.00626647
-0.00682653
-0.00735763
-0.00801177
-0.00877541
-0.00955508
-0.0103183
-0.0110661
-0.0117965
-0.012531
-0.0132994
-0.0140765
-0.0147997
-0.0154908
-0.0162106
-0.0169471
-0.0176454
-0.0183196
-0.019035
-0.019793
-0.0205319
-0.021259
-0.0220184
-0.0227975
-0.0235793
-0.0243773
-0.0251952
-0.026019
-0.026851
-0.0276754
-0.028471
-0.0292597
-0.0301118
-0.031023
-0.031956
-0.0328768
-0.0338125
-0.0347765
-0.0357326
-0.0366534
-0.0376161
-0.0386226
-0.0396234
-0.0406308
-0.0416909
-0.042794
-0.0438962
-0.0450288
-0.0462108
-0.0473959
-0.0485614
-0.0497461
-0.0509073
-0.0521072
-0.0533826
-0.054729
-0.0560709
-0.0574108
-0.0587571
-0.0601081
-0.0615177
-0.0629678
-0.0644265
-0.0659132
-0.0674452
-0.0690128
-0.0705743
-0.0721815
-0.0737981
-0.0754603
-0.0771345
-0.0788237
-0.0805406
-0.0822757
-0.0840649
-0.0858834
-0.0877371
-0.0895565
-0.0914973
-0.0933506
-0.0953137
-0.0970613
-0.0985091
0.0317328
0.0292639
0.0198017
0.0109365
0.00619389
0.00459998
0.00427506
0.00393777
0.00308618
0.00184203
0.000603397
-0.000421462
-0.00136406
-0.00245038
-0.00364364
-0.00470858
-0.00556192
-0.00625582
-0.00681511
-0.00734928
-0.00800606
-0.00876899
-0.00954604
-0.0103078
-0.0110569
-0.0117899
-0.0125252
-0.0132918
-0.0140678
-0.0147931
-0.0154871
-0.0162069
-0.0169419
-0.0176402
-0.0183157
-0.0190315
-0.0197891
-0.0205286
-0.0212565
-0.0220162
-0.022795
-0.0235768
-0.024375
-0.0251933
-0.0260175
-0.0268498
-0.0276744
-0.0284703
-0.0292592
-0.030111
-0.0310217
-0.0319547
-0.032876
-0.0338119
-0.0347757
-0.0357318
-0.036653
-0.0376159
-0.0386222
-0.0396229
-0.0406304
-0.0416904
-0.0427934
-0.0438957
-0.0450284
-0.0462104
-0.0473956
-0.0485611
-0.0497458
-0.050907
-0.0521067
-0.0533821
-0.0547287
-0.0560706
-0.0574105
-0.0587568
-0.0601078
-0.0615173
-0.0629675
-0.0644261
-0.0659129
-0.0674449
-0.0690126
-0.070574
-0.0721813
-0.0737979
-0.0754602
-0.0771344
-0.0788235
-0.0805405
-0.0822756
-0.0840648
-0.0858832
-0.087737
-0.0895564
-0.0914971
-0.0933507
-0.0953138
-0.0970623
-0.0985099
0.0304011
0.0284852
0.0199719
0.0113224
0.00642858
0.00468345
0.00429237