/*--------------------------------*- C++ -*----------------------------------*\
| =========                 |                                                 |
| \\      /  F ield         | OpenFOAM: The Open Source CFD Toolbox           |
|  \\    /   O peration     | Version:  v1906                                 |
|   \\  /    A nd           | Web:      www.OpenFOAM.com                      |
|    \\/     M anipulation  |                                                 |
\*---------------------------------------------------------------------------*/
FoamFile
{
    version     2.0;
    format      ascii;
    class       volVectorField;
    location    "9.6";
    object      U;
}
// * * * * * * * * * * * * * * * * * * * * * * * * * * * * * * * * * * * * * //

dimensions      [0 1 -1 0 0 0 0];


internalField   nonuniform List<vector> 
9600
(
(0.842395 -0.00245084 0)
(1.08954 0.00112287 0)
(0.945631 -0.0139771 0)
(1.09847 0.0116268 0)
(0.988159 0.0159743 0)
(1.00918 0.00707832 0)
(0.937046 -0.0180358 0)
(0.97539 -0.034129 0)
(0.940077 -0.0249459 0)
(1.06054 -0.0228177 0)
(1.02016 -0.0111852 0)
(1.06225 0.00355167 0)
(1.04051 0.0236376 0)
(1.06774 0.00208163 0)
(1.00761 0.0343616 0)
(1.09096 -0.00954876 0)
(0.969733 0.0208904 0)
(1.1077 -0.018774 0)
(0.917445 0.00307976 0)
(1.09875 -0.0314783 0)
(0.858593 -0.0020248 0)
(1.07593 0.00033623 0)
(0.958178 -0.0142192 0)
(1.09307 0.0112913 0)
(1.00133 0.0165697 0)
(1.00403 0.00768384 0)
(0.953014 -0.0176538 0)
(0.955774 -0.034111 0)
(0.941178 -0.0263385 0)
(1.03512 -0.0241229 0)
(1.02294 -0.0114744 0)
(1.05033 0.00340034 0)
(1.04906 0.0232762 0)
(1.05475 0.00298831 0)
(1.02754 0.0334053 0)
(1.06304 -0.00823224 0)
(1.02045 0.0198445 0)
(1.05204 -0.017453 0)
(1.01569 0.00376703 0)
(1.0063 -0.0320927 0)
(0.886257 -0.00166008 0)
(1.05197 -0.000186188 0)
(0.97338 -0.0144298 0)
(1.08098 0.0109561 0)
(1.02004 0.0174166 0)
(1.00263 0.00825147 0)
(0.965948 -0.017098 0)
(0.951272 -0.0338818 0)
(0.946577 -0.0272077 0)
(1.01037 -0.025147 0)
(1.02384 -0.0117638 0)
(1.0382 0.00303815 0)
(1.04992 0.0230205 0)
(1.05242 0.00360601 0)
(1.03658 0.0327032 0)
(1.06475 -0.00752656 0)
(1.04215 0.0188952 0)
(1.06091 -0.0159775 0)
(1.04092 0.00323634 0)
(1.02787 -0.0244006 0)
(0.918847 -0.00130663 0)
(1.02516 -0.000707486 0)
(0.985799 -0.0147385 0)
(1.06567 0.0106008 0)
(1.03322 0.0180727 0)
(1.00465 0.00884609 0)
(0.976349 -0.0165235 0)
(0.952563 -0.0336422 0)
(0.949945 -0.027874 0)
(0.991649 -0.0261664 0)
(1.01823 -0.0122965 0)
(1.029 0.00263621 0)
(1.04636 0.0226843 0)
(1.05051 0.00385982 0)
(1.04521 0.0322399 0)
(1.06561 -0.00745011 0)
(1.05611 0.0188386 0)
(1.06181 -0.0158231 0)
(1.04845 0.00413712 0)
(1.02999 -0.0215727 0)
(0.949468 -0.000967336 0)
(1.00368 -0.00110468 0)
(0.993191 -0.0151181 0)
(1.0501 0.0101804 0)
(1.037 0.0185472 0)
(1.00744 0.00943974 0)
(0.98549 -0.0159111 0)
(0.958545 -0.0332442 0)
(0.953324 -0.0282788 0)
(0.980029 -0.0270478 0)
(1.00829 -0.0129809 0)
(1.02059 0.00219695 0)
(1.04205 0.0221002 0)
(1.04951 0.00403065 0)
(1.05163 0.0313064 0)
(1.07131 -0.0068669 0)
(1.06365 0.0179586 0)
(1.06647 -0.0142847 0)
(1.05106 0.00410621 0)
(1.03385 -0.0184561 0)
(0.973299 -0.000677033 0)
(0.991764 -0.00135916 0)
(0.996049 -0.0155098 0)
(1.03521 0.00978543 0)
(1.03336 0.0188885 0)
(1.01011 0.00996106 0)
(0.993951 -0.0153344 0)
(0.965409 -0.0327969 0)
(0.957764 -0.0285007 0)
(0.974153 -0.0277572 0)
(0.998143 -0.0136886 0)
(1.01225 0.00161205 0)
(1.03807 0.021341 0)
(1.04917 0.00390999 0)
(1.05773 0.0302853 0)
(1.07563 -0.00653827 0)
(1.06957 0.0172242 0)
(1.0679 -0.0128658 0)
(1.05184 0.00414119 0)
(1.0337 -0.0151332 0)
(0.988802 -0.00046122 0)
(0.988655 -0.00148041 0)
(0.995883 -0.0158354 0)
(1.02111 0.00946195 0)
(1.02628 0.01908 0)
(1.01308 0.0103388 0)
(1.00217 -0.0147817 0)
(0.972055 -0.0322827 0)
(0.963284 -0.0285705 0)
(0.97234 -0.0282817 0)
(0.990591 -0.014355 0)
(1.00549 0.000892436 0)
(1.03515 0.020365 0)
(1.04966 0.00359502 0)
(1.06351 0.0290796 0)
(1.07905 -0.00608677 0)
(1.0734 0.0165647 0)
(1.06787 -0.0111108 0)
(1.05104 0.00425739 0)
(1.03236 -0.0116718 0)
(0.997154 -0.000324693 0)
(0.99083 -0.00150118 0)
(0.993986 -0.0160392 0)
(1.00832 0.0091865 0)
(1.0192 0.0190948 0)
(1.01691 0.0105448 0)
(1.01012 -0.0142427 0)
(0.978245 -0.0317331 0)
(0.969205 -0.028543 0)
(0.972766 -0.0286544 0)
(0.986414 -0.0149861 0)
(1.00197 4.88745e-05 0)
(1.0347 0.0191995 0)
(1.05141 0.00309075 0)
(1.06898 0.0277446 0)
(1.08109 -0.0054975 0)
(1.075 0.0159506 0)
(1.0658 -0.00911432 0)
(1.04847 0.00441066 0)
(1.02964 -0.00825077 0)
(1.00076 -0.000256338 0)
(0.994831 -0.00145164 0)
(0.991195 -0.0161034 0)
(0.997844 0.00892306 0)
(1.01414 0.0189226 0)
(1.0215 0.0105772 0)
(1.01742 -0.0136952 0)
(0.984104 -0.0311373 0)
(0.974924 -0.0284344 0)
(0.973821 -0.0289149 0)
(0.984739 -0.0156206 0)
(1.00195 -0.00091871 0)
(1.03736 0.017876 0)
(1.05425 0.00246955 0)
(1.07355 0.0263672 0)
(1.08114 -0.00470821 0)
(1.07383 0.0154282 0)
(1.06162 -0.00687438 0)
(1.04408 0.00462004 0)
(1.02576 -0.0049379 0)
(1.00187 -0.000238594 0)
(0.998625 -0.00135051 0)
(0.988206 -0.0160409 0)
(0.990512 0.00863581 0)
(1.01171 0.018574 0)
(1.02605 0.0104704 0)
(1.02337 -0.0131288 0)
(0.989651 -0.0304916 0)
(0.980059 -0.0282423 0)
(0.974583 -0.0290716 0)
(0.983932 -0.0163122 0)
(1.00374 -0.0020486 0)
(1.0417 0.0164286 0)
(1.05663 0.00184798 0)
(1.07571 0.0250239 0)
(1.07828 -0.00366851 0)
(1.06932 0.0150315 0)
(1.05522 -0.00444215 0)
(1.03802 0.00485511 0)
(1.02088 -0.00183488 0)
(1.00195 -0.000254122 0)
(1.00148 -0.00121163 0)
(0.985803 -0.015881 0)
(0.986421 0.008294 0)
(1.01127 0.0180846 0)
(1.02942 0.0102638 0)
(1.02732 -0.0125434 0)
(0.994709 -0.0298008 0)
(0.984404 -0.0279476 0)
(0.974959 -0.0291081 0)
(0.982633 -0.0170632 0)
(1.00461 -0.00334655 0)
(1.04457 0.0149127 0)
(1.0561 0.00132143 0)
(1.0735 0.0237803 0)
(1.07164 -0.00236738 0)
(1.06127 0.0147493 0)
(1.04677 -0.00192334 0)
(1.03071 0.00512231 0)
(1.01532 0.000973433 0)
(1.00173 -0.000291051 0)
(1.0033 -0.00104687 0)
(0.984701 -0.0156572 0)
(0.984848 0.00789317 0)
(1.01151 0.0175051 0)
(1.03072 0.00999892 0)
(1.029 -0.0119589 0)
(0.998998 -0.0290842 0)
(0.987858 -0.0275391 0)
(0.975374 -0.0290123 0)
(0.980398 -0.0178245 0)
(1.00243 -0.00476397 0)
(1.04283 0.0133757 0)
(1.05073 0.000955915 0)
(1.06559 0.0226653 0)
(1.06106 -0.000854581 0)
(1.05015 0.0145257 0)
(1.0368 0.000532071 0)
(1.02279 0.00539526 0)
(1.00956 0.00343555 0)
(1.00148 -0.000340619 0)
(1.00417 -0.000872891 0)
(0.985176 -0.0153948 0)
(0.984654 0.00745683 0)
(1.01122 0.0168914 0)
(1.02979 0.00970368 0)
(1.02867 -0.0114032 0)
(1.0023 -0.028371 0)
(0.990402 -0.0270334 0)
(0.976261 -0.0287749 0)
(0.977661 -0.0185107 0)
(0.996797 -0.00617911 0)
(1.03518 0.0118713 0)
(1.04024 0.000778085 0)
(1.05227 0.0216474 0)
(1.04743 0.000757823 0)
(1.03718 0.0142728 0)
(1.02623 0.00283231 0)
(1.01504 0.00563364 0)
(1.00413 0.00549991 0)
(1.00131 -0.000393655 0)
(1.00432 -0.000711302 0)
(0.986895 -0.0151078 0)
(0.984847 0.00701993 0)
(1.00985 0.0162853 0)
(1.02721 0.00939131 0)
(1.02705 -0.010902 0)
(1.00457 -0.0276833 0)
(0.992111 -0.026471 0)
(0.977712 -0.0284067 0)
(0.975218 -0.0190161 0)
(0.989062 -0.00742922 0)
(1.02292 0.0104647 0)
(1.02636 0.000758418 0)
(1.03568 0.0206692 0)
(1.03257 0.00233306 0)
(1.02407 0.0139215 0)
(1.01617 0.0048814 0)
(1.00814 0.00584118 0)
(0.999471 0.00709931 0)
(1.00122 -0.000444837 0)
(1.00402 -0.000574358 0)
(0.989157 -0.0148038 0)
(0.984913 0.00661493 0)
(1.00764 0.0157132 0)
(1.02395 0.0090611 0)
(1.02492 -0.0104651 0)
(1.00595 -0.0270314 0)
(0.993153 -0.0258874 0)
(0.979459 -0.0279399 0)
(0.973641 -0.0192896 0)
(0.981293 -0.00839263 0)
(1.00907 0.00918648 0)
(1.01191 0.000861454 0)
(1.01888 0.0196582 0)
(1.01861 0.00375775 0)
(1.01246 0.0134272 0)
(1.00755 0.00654601 0)
(1.00256 0.00602889 0)
(0.995851 0.00822867 0)
(1.0012 -0.000491663 0)
(1.00359 -0.000465767 0)
(0.99131 -0.0144833 0)
(0.984793 0.00625904 0)
(1.00518 0.0151833 0)
(1.02082 0.00870365 0)
(1.02286 -0.0100877 0)
(1.00667 -0.026414 0)
(0.993749 -0.0253033 0)
(0.981116 -0.0274082 0)
(0.973014 -0.0193481 0)
(0.975099 -0.00902368 0)
(0.996649 0.00804359 0)
(0.999414 0.00104908 0)
(1.00453 0.0185813 0)
(1.00714 0.00495592 0)
(1.00338 0.0127929 0)
(1.00089 0.00783457 0)
(0.998457 0.00621227 0)
(0.993303 0.00895409 0)
(1.00118 -0.000533539 0)
(1.0032 -0.000383854 0)
(0.993008 -0.0141434 0)
(0.984637 0.00594925 0)
(1.00299 0.0146866 0)
(1.01824 0.00831461 0)
(1.02111 -0.00975651 0)
(1.00697 -0.0258188 0)
(0.994098 -0.0247272 0)
(0.982434 -0.0268335 0)
(0.973065 -0.019241 0)
(0.971048 -0.00935552 0)
(0.987361 0.00703855 0)
(0.990175 0.00127256 0)
(0.993937 0.0174543 0)
(0.998767 0.00591898 0)
(0.997029 0.0120874 0)
(0.996181 0.00880483 0)
(0.99569 0.00640426 0)
(0.991694 0.00935351 0)
(1.00114 -0.00057104 0)
(1.00291 -0.000324375 0)
(0.994195 -0.0137824 0)
(0.984592 0.00567125 0)
(1.00132 0.0142148 0)
(1.01628 0.0078936 0)
(1.0197 -0.0094568 0)
(1.00702 -0.0252344 0)
(0.994328 -0.0241561 0)
(0.983367 -0.0262238 0)
(0.973453 -0.0190223 0)
(0.968864 -0.00944603 0)
(0.981366 0.00613985 0)
(0.984173 0.00151751 0)
(0.987012 0.0162996 0)
(0.99322 0.00666953 0)
(0.993018 0.0113507 0)
(0.993107 0.00949756 0)
(0.993969 0.00661532 0)
(0.990814 0.00950373 0)
(1.00107 -0.000604759 0)
(1.00272 -0.000282929 0)
(0.994965 -0.0134006 0)
(0.984718 0.00541278 0)
(1.00016 0.0137627 0)
(1.01482 0.007443 0)
(1.01852 -0.00917828 0)
(1.00691 -0.0246513 0)
(0.994497 -0.0235882 0)
(0.984002 -0.0255792 0)
(0.973958 -0.0187341 0)
(0.967964 -0.00936828 0)
(0.977933 0.00531963 0)
(0.980675 0.00176578 0)
(0.982914 0.0151531 0)
(0.989804 0.00723055 0)
(0.990706 0.0106402 0)
(0.991229 0.00994536 0)
(0.992981 0.00683833 0)
(0.990456 0.00948099 0)
(1.00098 -0.000634786 0)
(1.00257 -0.000256237 0)
(0.995436 -0.0129981 0)
(0.985006 0.00516153 0)
(0.9994 0.0133264 0)
(1.01371 0.00697167 0)
(1.01751 -0.00891348 0)
(1.00672 -0.0240621 0)
(0.994625 -0.0230249 0)
(0.984451 -0.0248974 0)
(0.97449 -0.0184081 0)
(0.967843 -0.00918625 0)
(0.97618 0.00456845 0)
(0.978844 0.00199308 0)
(0.980692 0.0140446 0)
(0.987811 0.00763835 0)
(0.989502 0.010006 0)
(0.990159 0.0101938 0)
(0.992464 0.00706318 0)
(0.990449 0.00935984 0)
(1.00088 -0.000660982 0)
(1.00243 -0.000242326 0)
(0.995703 -0.0125751 0)
(0.985415 0.00490754 0)
(0.998943 0.012904 0)
(1.01285 0.00648174 0)
(1.01661 -0.00865781 0)
(1.00646 -0.0234614 0)
(0.994715 -0.0224691 0)
(0.9848 -0.0241786 0)
(0.975035 -0.018063 0)
(0.968184 -0.00894481 0)
(0.97544 0.00386811 0)
(0.978049 0.00218654 0)
(0.979627 0.0129972 0)
(0.986713 0.00792107 0)
(0.988979 0.00942341 0)
(0.989614 0.0103095 0)
(0.992234 0.00729135 0)
(0.990665 0.00917242 0)
(1.00077 -0.000682845 0)
(1.0023 -0.000239458 0)
(0.99584 -0.0121344 0)
(0.985895 0.00464533 0)
(0.998694 0.0124929 0)
(1.01216 0.00597927 0)
(1.01578 -0.00840966 0)
(1.00615 -0.0228454 0)
(0.994773 -0.0219224 0)
(0.985099 -0.023429 0)
(0.975599 -0.0177089 0)
(0.968808 -0.00866618 0)
(0.975308 0.00321267 0)
(0.977888 0.00232552 0)
(0.979258 0.0120179 0)
(0.98616 0.00809138 0)
(0.988858 0.00890569 0)
(0.989402 0.0103033 0)
(0.992157 0.00752477 0)
(0.991006 0.00893313 0)
(1.00068 -0.000699873 0)
(1.00217 -0.000246852 0)
(0.995909 -0.0116773 0)
(0.986404 0.0043701 0)
(0.998582 0.0120896 0)
(1.01156 0.00547627 0)
(1.015 -0.00816718 0)
(1.00578 -0.0222109 0)
(0.994808 -0.0213839 0)
(0.985375 -0.0226549 0)
(0.976187 -0.0173494 0)
(0.969612 -0.00837339 0)
(0.975541 0.0026067 0)
(0.978112 0.00239635 0)
(0.979303 0.011106 0)
(0.985933 0.00816316 0)
(0.98896 0.0084555 0)
(0.989392 0.0101863 0)
(0.992154 0.00774168 0)
(0.991402 0.00867973 0)
(1.00062 -0.000712131 0)
(1.00202 -0.000263275 0)
(0.995961 -0.0112049 0)
(0.98691 0.00408034 0)
(0.998553 0.0116924 0)
(1.01102 0.00497246 0)
(1.01426 -0.00793241 0)
(1.00539 -0.0215531 0)
(0.994825 -0.0208566 0)
(0.985639 -0.0218581 0)
(0.9768 -0.01698 0)
(0.970525 -0.00809302 0)
(0.975993 0.00205397 0)
(0.978559 0.00240634 0)
(0.979585 0.0102642 0)
(0.985883 0.00815721 0)
(0.989175 0.008052 0)
(0.9895 0.0099937 0)
(0.992174 0.0079381 0)
(0.991811 0.00841286 0)
(1.00058 -0.000719661 0)
(1.00187 -0.000288859 0)
(0.996035 -0.0107176 0)
(0.987391 0.00377717 0)
(0.998563 0.011299 0)
(1.01052 0.00447448 0)
(1.01354 -0.00770807 0)
(1.00497 -0.0208709 0)
(0.994835 -0.0203409 0)
(0.985893 -0.0210491 0)
(0.977433 -0.0165996 0)
(0.971493 -0.00783293 0)
(0.976569 0.00155862 0)
(0.979122 0.00237021 0)
(0.979996 0.00947607 0)
(0.985923 0.0080926 0)
(0.989436 0.00770193 0)
(0.989676 0.00975731 0)
(0.992195 0.00810819 0)
(0.992201 0.00815785 0)
(1.00055 -0.000722314 0)
(1.00172 -0.000323303 0)
(0.996155 -0.010217 0)
(0.987841 0.00346193 0)
(0.998585 0.0109083 0)
(1.01003 0.00399079 0)
(1.01284 -0.0074943 0)
(1.00455 -0.0201642 0)
(0.994848 -0.0198345 0)
(0.986139 -0.0202353 0)
(0.978078 -0.0162072 0)
(0.972477 -0.00759957 0)
(0.977209 0.00111946 0)
(0.97973 0.0022904 0)
(0.98047 0.00874495 0)
(0.986001 0.0079731 0)
(0.989712 0.00738288 0)
(0.989891 0.00947956 0)
(0.99221 0.00824015 0)
(0.992562 0.00791052 0)
(1.00053 -0.000719868 0)
(1.00155 -0.000367651 0)
(0.996328 -0.00970419 0)
(0.988266 0.00313781 0)
(0.998603 0.0105144 0)
(1.00955 0.00352531 0)
(1.01216 -0.0072961 0)
(1.00414 -0.0194326 0)
(0.994874 -0.0193348 0)
(0.986376 -0.0194169 0)
(0.978729 -0.0158005 0)
(0.973449 -0.00739926 0)
(0.977875 0.000724714 0)
(0.980343 0.00216877 0)
(0.980974 0.00806927 0)
(0.986091 0.00780733 0)
(0.989985 0.00708245 0)
(0.990133 0.00914809 0)
(0.992219 0.00835461 0)
(0.992881 0.00767486 0)
(1.00051 -0.00071191 0)
(1.00139 -0.000423175 0)
(0.996541 -0.00918005 0)
(0.988677 0.00280841 0)
(0.998611 0.0101105 0)
(1.00909 0.00308248 0)
(1.0115 -0.00711255 0)
(1.00377 -0.0186843 0)
(0.994925 -0.0188356 0)
(0.986611 -0.0186061 0)
(0.979381 -0.0153675 0)
(0.974396 -0.00722836 0)
(0.978545 0.000376384 0)
(0.980939 0.00201056 0)
(0.981489 0.00742931 0)
(0.986181 0.00761304 0)
(0.990247 0.00680018 0)
(0.990401 0.00877857 0)
(0.992229 0.00843113 0)
(0.993146 0.00749325 0)
(1.00048 -0.000698785 0)
(1.00121 -0.0004868 0)
(0.996777 -0.00865115 0)
(0.989087 0.00248128 0)
(0.99861 0.00969745 0)
(1.00865 0.00266643 0)
(1.01086 -0.00694635 0)
(1.00343 -0.017917 0)
(0.995005 -0.0183321 0)
(0.986852 -0.0178188 0)
(0.980031 -0.0149005 0)
(0.975314 -0.00708594 0)
(0.979206 6.90415e-05 0)
(0.981508 0.00183622 0)
(0.982008 0.00682778 0)
(0.98627 0.00739943 0)
(0.99049 0.00654421 0)
(0.990691 0.00835962 0)
(0.992248 0.0084572 0)
(0.99335 0.00736119 0)
(1.00046 -0.000680429 0)
(1.00104 -0.000559503 0)
(0.997012 -0.00812115 0)
(0.989509 0.0021633 0)
(0.998603 0.00927435 0)
(1.00822 0.00228176 0)
(1.01024 -0.00679902 0)
(1.00312 -0.0171378 0)
(0.995114 -0.0178158 0)
(0.987106 -0.0170552 0)
(0.980683 -0.0144071 0)
(0.976208 -0.0069657 0)
(0.97986 -0.000210454 0)
(0.982053 0.00166525 0)
(0.982528 0.00625792 0)
(0.986363 0.00716041 0)
(0.990705 0.00631899 0)
(0.991 0.0079074 0)
(0.992286 0.00841216 0)
(0.993488 0.00727413 0)
(1.00043 -0.000655498 0)
(1.00087 -0.000643052 0)
(0.997232 -0.00759169 0)
(0.98995 0.0018537 0)
(0.998594 0.00883703 0)
(1.00779 0.00192924 0)
(1.00962 -0.00666973 0)
(1.00282 -0.0163556 0)
(0.995247 -0.0172838 0)
(0.987381 -0.0163149 0)
(0.981338 -0.013883 0)
(0.977089 -0.00685032 0)
(0.980512 -0.000461334 0)
(0.982583 0.00148619 0)
(0.983048 0.00571495 0)
(0.98647 0.0068875 0)
(0.990892 0.00610432 0)
(0.991321 0.00745287 0)
(0.99235 0.00826483 0)
(0.993567 0.0072321 0)
(1.00041 -0.000624882 0)
(1.00071 -0.000732312 0)
(0.997425 -0.00707018 0)
(0.99041 0.0015588 0)
(0.998585 0.0083826 0)
(1.00734 0.00160773 0)
(1.00901 -0.00655374 0)
(1.00254 -0.0155714 0)
(0.995397 -0.0167348 0)
(0.987681 -0.0155992 0)
(0.981997 -0.0133323 0)
(0.977969 -0.00673947 0)
(0.981167 -0.000689514 0)
(0.98311 0.0012946 0)
(0.983575 0.00520693 0)
(0.986598 0.0065873 0)
(0.991055 0.00590154 0)
(0.991651 0.00699623 0)
(0.992452 0.00803482 0)
(0.993598 0.0072176 0)
(1.00039 -0.000590089 0)
(1.00056 -0.000823169 0)
(0.997593 -0.00656039 0)
(0.990887 0.00128304 0)
(0.99858 0.00791305 0)
(1.00689 0.00131256 0)
(1.00841 -0.00644091 0)
(1.00225 -0.0147989 0)
(0.995555 -0.0161627 0)
(0.988006 -0.0149104 0)
(0.98266 -0.0127689 0)
(0.978854 -0.00663039 0)
(0.981833 -0.000896523 0)
(0.983647 0.00111196 0)
(0.984114 0.00472501 0)
(0.986759 0.00627272 0)
(0.991202 0.00571009 0)
(0.991984 0.00655125 0)
(0.992601 0.00772453 0)
(0.993598 0.00718895 0)
(1.00037 -0.000550976 0)
(1.00042 -0.00091265 0)
(0.997741 -0.00606831 0)
(0.991376 0.00102672 0)
(0.998578 0.00743051 0)
(1.00641 0.00105171 0)
(1.00782 -0.00633978 0)
(1.00195 -0.0140351 0)
(0.995715 -0.0155704 0)
(0.988354 -0.014252 0)
(0.983325 -0.0121915 0)
(0.979748 -0.00651069 0)
(0.982516 -0.0010804 0)
(0.984198 0.000944679 0)
(0.98467 0.00425421 0)
(0.986959 0.00594666 0)
(0.991337 0.0055227 0)
(0.992312 0.00612883 0)
(0.992799 0.00734032 0)
(0.993592 0.00710753 0)
(1.00036 -0.000507706 0)
(1.0003 -0.00100027 0)
(0.997874 -0.00559409 0)
(0.991869 0.000789642 0)
(0.998583 0.00693455 0)
(1.00593 0.00081941 0)
(1.00724 -0.00624659 0)
(1.00166 -0.013286 0)
(0.995871 -0.014956 0)
(0.988724 -0.0136184 0)
(0.98399 -0.0116132 0)
(0.980646 -0.00637674 0)
(0.983216 -0.00124826 0)
(0.984762 0.000779843 0)
(0.985243 0.00380793 0)
(0.987204 0.00559877 0)
(0.991468 0.00533004 0)
(0.992629 0.00575173 0)
(0.993042 0.00691082 0)
(0.993602 0.00695219 0)
(1.00034 -0.000462418 0)
(1.0002 -0.00108263 0)
(0.997999 -0.00513846 0)
(0.992361 0.000572765 0)
(0.998595 0.00642862 0)
(1.00544 0.000610798 0)
(1.00667 -0.00614628 0)
(1.00137 -0.0125642 0)
(0.996022 -0.0143215 0)
(0.989109 -0.0130045 0)
(0.984655 -0.0110427 0)
(0.981544 -0.00623327 0)
(0.98393 -0.00140376 0)
(0.985339 0.000624673 0)
(0.985829 0.0033973 0)
(0.98749 0.0052284 0)
(0.991607 0.00512922 0)
(0.992929 0.00541378 0)
(0.993316 0.0064747 0)
(0.99365 0.00670438 0)
(1.00033 -0.000415152 0)
(1.00011 -0.00115881 0)
(0.998121 -0.00470325 0)
(0.992845 0.000376297 0)
(0.998613 0.00591107 0)
(1.00494 0.000431429 0)
(1.00613 -0.00603687 0)
(1.00108 -0.011876 0)
(0.996169 -0.0136751 0)
(0.989508 -0.0124036 0)
(0.985316 -0.0104768 0)
(0.982434 -0.00608079 0)
(0.984656 -0.00154475 0)
(0.985926 0.000481619 0)
(0.986422 0.00301102 0)
(0.987815 0.00485542 0)
(0.991756 0.00491907 0)
(0.993214 0.0050956 0)
(0.993609 0.006054 0)
(0.993741 0.00638789 0)
(1.00031 -0.000366868 0)
(1.00004 -0.00122844 0)
(0.998242 -0.00428899 0)
(0.993318 0.000201514 0)
(0.998638 0.0053876 0)
(1.00446 0.000265729 0)
(1.0056 -0.00591819 0)
(1.00081 -0.0112269 0)
(0.996314 -0.0130169 0)
(0.989917 -0.0118119 0)
(0.985971 -0.0099262 0)
(0.983313 -0.00591303 0)
(0.98539 -0.0016721 0)
(0.986519 0.000345054 0)
(0.987022 0.00265548 0)
(0.988175 0.00448696 0)
(0.991919 0.00469038 0)
(0.993483 0.004797 0)
(0.993909 0.00565495 0)
(0.993876 0.00603964 0)
(1.00029 -0.000319159 0)
(0.999976 -0.0012884 0)
(0.998364 -0.00390003 0)
(0.993777 4.99978e-05 0)
(0.998669 0.00486008 0)
(1.00398 0.000124765 0)
(1.0051 -0.00578188 0)
(1.00055 -0.0106106 0)
(0.996458 -0.0123598 0)
(0.990333 -0.0112308 0)
(0.986621 -0.00938032 0)
(0.984176 -0.0057403 0)
(0.986128 -0.00178968 0)
(0.987118 0.00021385 0)
(0.987623 0.0023387 0)
(0.988565 0.00411556 0)
(0.992098 0.00445744 0)
(0.993743 0.00450269 0)
(0.994212 0.00528011 0)
(0.994042 0.00568427 0)
(1.00028 -0.000271753 0)
(0.999926 -0.00133864 0)
(0.998488 -0.00354121 0)
(0.99422 -7.56926e-05 0)
(0.998707 0.00433366 0)
(1.00352 3.7498e-06 0)
(1.00461 -0.00561708 0)
(1.00032 -0.0100258 0)
(0.996604 -0.0117161 0)
(0.99076 -0.0106617 0)
(0.987264 -0.00883528 0)
(0.985018 -0.00555961 0)
(0.986868 -0.00190651 0)
(0.987721 8.45205e-05 0)
(0.988223 0.0020569 0)
(0.988981 0.0037519 0)
(0.992293 0.00421318 0)
(0.993993 0.00421687 0)
(0.994518 0.00491224 0)
(0.994231 0.00533601 0)
(1.00026 -0.00022837 0)
(0.999885 -0.00137138 0)
(0.998614 -0.00322039 0)
(0.994646 -0.00017157 0)
(0.998752 0.00381486 0)
(1.00308 -0.000117293 0)
(1.00415 -0.00542119 0)
(1.00009 -0.00946553 0)
(0.996753 -0.0110892 0)
(0.991195 -0.0101062 0)
(0.987901 -0.00830245 0)
(0.985837 -0.00535343 0)
(0.987608 -0.00202083 0)
(0.988333 -5.36869e-05 0)
(0.988821 0.00180926 0)
(0.989417 0.00340626 0)
(0.992505 0.00396264 0)
(0.994236 0.00394406 0)
(0.994826 0.00454226 0)
(0.994441 0.00499007 0)
(1.00024 -0.00018911 0)
(0.999852 -0.0013871 0)
(0.998741 -0.00293959 0)
(0.995054 -0.000231231 0)
(0.998802 0.00331192 0)
(1.00265 -0.000246055 0)
(1.00371 -0.00520303 0)
(0.999889 -0.00891802 0)
(0.996905 -0.0104794 0)
(0.99164 -0.00957061 0)
(0.988535 -0.00778078 0)
(0.98663 -0.00512085 0)
(0.988343 -0.00212926 0)
(0.988956 -0.000202748 0)
(0.98942 0.00157871 0)
(0.989872 0.0030878 0)
(0.992734 0.00369791 0)
(0.994467 0.00367935 0)
(0.995135 0.00418084 0)
(0.994677 0.00464307 0)
(1.00023 -0.000153923 0)
(0.999826 -0.00138295 0)
(0.998872 -0.00270285 0)
(0.995444 -0.000263156 0)
(0.998855 0.00283461 0)
(1.00226 -0.000390607 0)
(1.00329 -0.004971 0)
(0.999701 -0.00837959 0)
(0.997058 -0.00989032 0)
(0.992094 -0.00906369 0)
(0.989168 -0.00727307 0)
(0.987395 -0.00486256 0)
(0.989067 -0.00221282 0)
(0.989593 -0.000361175 0)
(0.990025 0.00136088 0)
(0.99034 0.0027908 0)
(0.992979 0.00342166 0)
(0.994696 0.0034107 0)
(0.995442 0.0038311 0)
(0.994934 0.0042983 0)
(1.00021 -0.000126779 0)
(0.999804 -0.00135116 0)
(0.999005 -0.00250987 0)
(0.995817 -0.000273573 0)
(0.998908 0.00238796 0)
(1.00189 -0.000555977 0)
(1.0029 -0.00473718 0)
(0.999528 -0.00784088 0)
(0.997212 -0.00931397 0)
(0.992558 -0.00858865 0)
(0.989804 -0.00678666 0)
(0.988134 -0.00457992 0)
(0.989775 -0.00225835 0)
(0.99024 -0.0005301 0)
(0.99064 0.0011493 0)
(0.99082 0.00250216 0)
(0.993238 0.0031529 0)
(0.99492 0.00314024 0)
(0.995751 0.00349002 0)
(0.995221 0.003946 0)
(1.00019 -0.000107594 0)
(0.999786 -0.00129352 0)
(0.99914 -0.00234915 0)
(0.996173 -0.000275294 0)
(0.998956 0.00198843 0)
(1.00155 -0.000733169 0)
(1.00255 -0.00451853 0)
(0.999373 -0.00730036 0)
(0.997362 -0.00873603 0)
(0.99303 -0.00813924 0)
(0.990446 -0.006337 0)
(0.988846 -0.00427585 0)
(0.990458 -0.00226245 0)
(0.990893 -0.000696705 0)
(0.991268 0.000926133 0)
(0.991317 0.00222072 0)
(0.993512 0.00288506 0)
(0.995142 0.00288137 0)
(0.996054 0.00316137 0)
(0.995533 0.00357842 0)
(1.00018 -9.56462e-05 0)
(0.999769 -0.00121297 0)
(0.999273 -0.00221614 0)
(0.996513 -0.000288546 0)
(0.998999 0.00165966 0)
(1.00124 -0.000902093 0)
(1.00223 -0.00432235 0)
(0.999238 -0.00676879 0)
(0.997506 -0.00814418 0)
(0.993505 -0.00769812 0)
(0.9911 -0.00593453 0)
(0.98954 -0.0039717 0)
(0.99111 -0.0022167 0)
(0.991542 -0.000847011 0)
(0.991906 0.000689913 0)
(0.991832 0.00194378 0)
(0.993806 0.00261639 0)
(0.995363 0.00262317 0)
(0.996347 0.00284234 0)
(0.995871 0.00319824 0)
(1.00016 -9.10507e-05 0)
(0.999752 -0.00111621 0)
(0.999403 -0.00209818 0)
(0.996841 -0.000322696 0)
(0.999035 0.00140102 0)
(1.00095 -0.00104593 0)
(1.00195 -0.00415967 0)
(0.999129 -0.00625825 0)
(0.997644 -0.00753916 0)
(0.993974 -0.0072469 0)
(0.991762 -0.00557082 0)
(0.990224 -0.00369655 0)
(0.991732 -0.00213857 0)
(0.992174 -0.00096169 0)
(0.992552 0.000448381 0)
(0.992367 0.00165943 0)
(0.994116 0.00233887 0)
(0.995585 0.00236611 0)
(0.996625 0.0025403 0)
(0.996222 0.00282616 0)
(1.00014 -9.23784e-05 0)
(0.999734 -0.00100949 0)
(0.999526 -0.00198374 0)
(0.997158 -0.000387577 0)
(0.999066 0.00119524 0)
(1.00067 -0.00114023 0)
(1.00171 -0.00401585 0)
(0.999052 -0.00578633 0)
(0.997777 -0.00692335 0)
(0.994431 -0.00678305 0)
(0.992427 -0.00524477 0)
(0.990902 -0.00346432 0)
(0.992329 -0.0020507 0)
(0.992781 -0.00104422 0)
(0.993192 0.000215543 0)
(0.992918 0.00136491 0)
(0.99445 0.00206499 0)
(0.995816 0.00211356 0)
(0.996892 0.00226661 0)
(0.996573 0.00248841 0)
(1.00013 -9.86655e-05 0)
(0.999715 -0.0008979 0)
(0.999637 -0.0018679 0)
(0.997467 -0.000480287 0)
(0.999097 0.00103139 0)
(1.00041 -0.00117687 0)
(1.0015 -0.00387084 0)
(0.999013 -0.00536403 0)
(0.997912 -0.00630555 0)
(0.994867 -0.00629646 0)
(0.993084 -0.00494145 0)
(0.991577 -0.00326979 0)
(0.992908 -0.00196709 0)
(0.993362 -0.00110893 0)
(0.99382 -2.91337e-06 0)
(0.993485 0.00107044 0)
(0.994806 0.00179675 0)
(0.996059 0.00186544 0)
(0.997155 0.00199339 0)
(0.996901 0.00219005 0)
(1.00011 -0.000107069 0)
(0.999696 -0.000792201 0)
(0.999731 -0.00173919 0)
(0.997768 -0.000592529 0)
(0.999135 0.000882304 0)
(1.00015 -0.00114788 0)
(1.00131 -0.0037145 0)
(0.999012 -0.00499896 0)
(0.998056 -0.00572781 0)
(0.995278 -0.00578881 0)
(0.993722 -0.00464094 0)
(0.992246 -0.00310002 0)
(0.993471 -0.00188821 0)
(0.993916 -0.00115005 0)
(0.994429 -0.000191406 0)
(0.994062 0.000789244 0)
(0.995187 0.00152291 0)
(0.996308 0.00162678 0)
(0.997421 0.00170822 0)
(0.997218 0.00191488 0)
(1.00009 -0.000112744 0)
(0.999677 -0.000701105 0)
(0.999808 -0.00159684 0)
(0.998057 -0.000719186 0)
(0.999185 0.000723365 0)
(0.9999 -0.00105422 0)
(1.00113 -0.00351469 0)
(0.999043 -0.00466837 0)
(0.998216 -0.00520985 0)
(0.995666 -0.00528267 0)
(0.994333 -0.00434493 0)
(0.992905 -0.00295882 0)
(0.994023 -0.00183717 0)
(0.994446 -0.00118366 0)
(0.995014 -0.000353605 0)
(0.99464 0.000529582 0)
(0.99559 0.00125146 0)
(0.996562 0.00141705 0)
(0.997688 0.00144473 0)
(0.997531 0.00164044 0)
(1.00007 -0.000115965 0)
(0.999661 -0.000624124 0)
(0.999866 -0.00143925 0)
(0.99833 -0.000849908 0)
(0.999256 0.00054766 0)
(0.99967 -0.000940451 0)
(1.00095 -0.00327371 0)
(0.999095 -0.00436317 0)
(0.998394 -0.00473836 0)
(0.996034 -0.00478022 0)
(0.994907 -0.00401344 0)
(0.993543 -0.00281708 0)
(0.994564 -0.00179544 0)
(0.994959 -0.00121876 0)
(0.995579 -0.000506492 0)
(0.995216 0.000280481 0)
(0.996023 0.000966427 0)
(0.996828 0.00120291 0)
(0.997939 0.00120371 0)
(0.997852 0.00134492 0)
(1.00005 -0.000113943 0)
(0.999648 -0.000568877 0)
(0.999903 -0.00126107 0)
(0.998582 -0.00096437 0)
(0.999348 0.000354576 0)
(0.999463 -0.000820542 0)
(1.00078 -0.00298935 0)
(0.999162 -0.00408125 0)
(0.998595 -0.00434858 0)
(0.996394 -0.00432599 0)
(0.995444 -0.00366582 0)
(0.994149 -0.00265801 0)
(0.995087 -0.00174181 0)
(0.995445 -0.00123115 0)
(0.996115 -0.000626894 0)
(0.995776 7.3988e-05 0)
(0.996473 0.000707134 0)
(0.997117 0.000981928 0)
(0.998173 0.00100651 0)
(0.998168 0.00106585 0)
(1.00003 -0.000102913 0)
(0.999643 -0.000545129 0)
(0.999924 -0.00108045 0)
(0.998808 -0.00105036 0)
(0.999463 0.000143596 0)
(0.999292 -0.000694537 0)
(1.0006 -0.00264439 0)
(0.999222 -0.00376243 0)
(0.99881 -0.00401454 0)
(0.996756 -0.00392484 0)
(0.995953 -0.00333874 0)
(0.994724 -0.00248483 0)
(0.995594 -0.0017026 0)
(0.995914 -0.00124977 0)
(0.996629 -0.000749642 0)
(0.996323 -0.000126781 0)
(0.996928 0.00046162 0)
(0.997429 0.000752128 0)
(0.998396 0.000828626 0)
(0.998462 0.000823304 0)
(1.00001 -7.35551e-05 0)
(0.999646 -0.000537976 0)
(0.999935 -0.000914246 0)
(0.999004 -0.00111173 0)
(0.9996 -0.000101471 0)
(0.99917 -0.000611164 0)
(1.00043 -0.00229325 0)
(0.999268 -0.00343049 0)
(0.999027 -0.00371397 0)
(0.997116 -0.00358393 0)
(0.996435 -0.00302682 0)
(0.995257 -0.00228033 0)
(0.996068 -0.0016285 0)
(0.996353 -0.00124781 0)
(0.997111 -0.000845189 0)
(0.996855 -0.000315635 0)
(0.997389 0.000230862 0)
(0.99777 0.00052027 0)
(0.998626 0.000640786 0)
(0.998728 0.000614274 0)
(0.999991 -6.73099e-05 0)
(0.999652 -0.000497851 0)
(0.999935 -0.000710056 0)
(0.999163 -0.00110057 0)
(0.999754 -0.000330693 0)
(0.999104 -0.000539962 0)
(1.00028 -0.00191668 0)
(0.999295 -0.00305878 0)
(0.999238 -0.00341718 0)
(0.997485 -0.00331582 0)
(0.996914 -0.00277458 0)
(0.995768 -0.00210484 0)
(0.996515 -0.00154436 0)
(0.996765 -0.00124444 0)
(0.997557 -0.000924221 0)
(0.99736 -0.000491478 0)
(0.997842 1.28409e-05 0)
(0.998119 0.000301025 0)
(0.998864 0.000444663 0)
(0.998958 0.000446168 0)
(0.99997 -2.23426e-05 0)
(0.999681 -0.00058159 0)
(0.999932 -0.000635665 0)
(0.99928 -0.00106017 0)
(0.999914 -0.000493965 0)
(0.999103 -0.000488215 0)
(1.00015 -0.00156254 0)
(0.999303 -0.00266528 0)
(0.999424 -0.00310893 0)
(0.997842 -0.00306272 0)
(0.997382 -0.00256311 0)
(0.99626 -0.00193404 0)
(0.996936 -0.00143777 0)
(0.997146 -0.00120032 0)
(0.99797 -0.00097102 0)
(0.997844 -0.000635676 0)
(0.9983 -0.00019822 0)
(0.998486 9.15588e-05 0)
(0.999133 0.000240663 0)
(0.999187 0.000279917 0)
(0.999949 1.1371e-05 0)
(0.999698 -0.000603362 0)
(0.999957 -0.000553637 0)
(0.999405 -0.000949572 0)
(1.00009 -0.000633254 0)
(0.999154 -0.000514175 0)
(1.00006 -0.00126796 0)
(0.999296 -0.00228037 0)
(0.999586 -0.00280404 0)
(0.998185 -0.00283084 0)
(0.997847 -0.00241564 0)
(0.996747 -0.00181255 0)
(0.997342 -0.00136123 0)
(0.997496 -0.00115351 0)
(0.998335 -0.00100209 0)
(0.99828 -0.000757327 0)
(0.998736 -0.000399386 0)
(0.998854 -0.000112848 0)
(0.99941 4.55556e-05 0)
(0.99941 0.00011577 0)
(0.999931 4.22669e-05 0)
(0.999738 -0.000548583 0)
(0.999981 -0.000407536 0)
(0.999483 -0.000763518 0)
(1.00024 -0.000722028 0)
(0.999262 -0.000613479 0)
(1.00002 -0.00106328 0)
(0.999284 -0.00193209 0)
(0.999712 -0.0024937 0)
(0.99849 -0.00260105 0)
(0.998288 -0.00228003 0)
(0.997226 -0.00172479 0)
(0.99774 -0.00128534 0)
(0.99783 -0.0010995 0)
(0.998667 -0.000992449 0)
(0.998681 -0.000838627 0)
(0.999161 -0.000568273 0)
(0.999237 -0.000313198 0)
(0.999714 -0.000153586 0)
(0.999655 -6.31715e-05 0)
(0.999912 9.25341e-05 0)
(0.99977 -0.000548487 0)
(1.00003 -0.000342769 0)
(0.999551 -0.000629632 0)
(1.00035 -0.000727812 0)
(0.999388 -0.000715939 0)
(1.00004 -0.00094506 0)
(0.99929 -0.00161617 0)
(0.999826 -0.00217463 0)
(0.998775 -0.00236233 0)
(0.998713 -0.00215123 0)
(0.997704 -0.00168094 0)
(0.998139 -0.00124989 0)
(0.998146 -0.00106591 0)
(0.998956 -0.000986398 0)
(0.999014 -0.000892772 0)
(0.999529 -0.000712732 0)
(0.999588 -0.000500674 0)
(1.00001 -0.000348652 0)
(0.999904 -0.00024349 0)
(0.999897 0.000118598 0)
(0.99981 -0.000475727 0)
(1.00008 -0.000267543 0)
(0.999611 -0.000502271 0)
(1.00044 -0.000663194 0)
(0.999534 -0.000772993 0)
(1.00011 -0.000880286 0)
(0.999318 -0.00134232 0)
(0.999905 -0.00186971 0)
(0.999 -0.00211151 0)
(0.999078 -0.0020114 0)
(0.998152 -0.00163675 0)
(0.998537 -0.00124442 0)
(0.998463 -0.00103613 0)
(0.999234 -0.000979546 0)