/*--------------------------------*- C++ -*----------------------------------*\
| =========                 |                                                 |
| \\      /  F ield         | OpenFOAM: The Open Source CFD Toolbox           |
|  \\    /   O peration     | Version:  v1906                                 |
|   \\  /    A nd           | Web:      www.OpenFOAM.com                      |
|    \\/     M anipulation  |                                                 |
\*---------------------------------------------------------------------------*/
FoamFile
{
    version     2.0;
    format      ascii;
    class       surfaceScalarField;
    location    "8";
    object      phi;
}
// * * * * * * * * * * * * * * * * * * * * * * * * * * * * * * * * * * * * * //

dimensions      [0 3 -1 0 0 0 0];
oriented        oriented;


internalField   nonuniform List<scalar> 
19000
(
1.20502e-06
5.80634e-07
1.24159e-06
3.67467e-07
1.15038e-06
-5.99403e-08
1.04366e-06
-9.36846e-07
1.22979e-06
2.2048e-06
1.12273e-06
1.56347e-06
1.0984e-06
-6.99498e-08
1.16604e-06
8.34798e-07
1.10597e-06
-3.34852e-07
1.15543e-06
2.81029e-07
1.17618e-06
2.01153e-07
1.1587e-06
5.23191e-07
1.16221e-06
6.72369e-07
1.1313e-06
2.79871e-07
1.15635e-06
5.54787e-07
1.13213e-06
2.76407e-07
1.14488e-06
2.68773e-07
1.1443e-06
3.72457e-07
1.13544e-06
3.33966e-07
3.45488e-07
1.12077e-06
1.25985e-06
5.45041e-07
1.29891e-06
3.28407e-07
1.20516e-06
3.38096e-08
1.09626e-06
-8.27937e-07
1.29286e-06
2.0082e-06
1.18207e-06
1.67425e-06
1.15707e-06
-4.49415e-08
1.23222e-06
7.59644e-07
1.17154e-06
-2.74169e-07
1.21849e-06
2.34075e-07
1.23784e-06
1.81799e-07
1.2217e-06
5.39338e-07
1.21901e-06
6.7506e-07
1.19289e-06
3.05993e-07
1.20532e-06
5.42354e-07
1.20141e-06
2.80315e-07
1.18856e-06
2.81628e-07
1.2193e-06
3.41709e-07
1.1747e-06
3.7857e-07
3.17161e-07
1.20303e-06
1.31574e-06
5.12082e-07
1.3572e-06
2.86949e-07
1.26404e-06
1.2697e-07
1.1473e-06
-7.11196e-07
1.34817e-06
1.80733e-06
1.25958e-06
1.76284e-06
1.22178e-06
-7.14823e-09
1.30943e-06
6.71994e-07
1.24612e-06
-2.10852e-07
1.29012e-06
1.90075e-07
1.30439e-06
1.67528e-07
1.29941e-06
5.44317e-07
1.28272e-06
6.91752e-07
1.26776e-06
3.20946e-07
1.26472e-06
5.45396e-07
1.27513e-06
2.69912e-07
1.25102e-06
3.05733e-07
1.27503e-06
3.17699e-07
1.24999e-06
4.03611e-07
3.24142e-07
1.24301e-06
1.37169e-06
4.84499e-07
1.41768e-06
2.40957e-07
1.32765e-06
2.16995e-07
1.2022e-06
-5.85747e-07
1.4016e-06
1.60794e-06
1.35285e-06
1.81159e-06
1.29356e-06
5.2147e-08
1.38847e-06
5.7708e-07
1.32418e-06
-1.46558e-07
1.3602e-06
1.54054e-07
1.37057e-06
1.57152e-07
1.37796e-06
5.36932e-07
1.35414e-06
7.15573e-07
1.34272e-06
3.32367e-07
1.33509e-06
5.53026e-07
1.3442e-06
2.60804e-07
1.32687e-06
3.23055e-07
1.3336e-06
3.10977e-07
1.32792e-06
4.09284e-07
3.40832e-07
1.31123e-06
1.42761e-06
4.65243e-07
1.48e-06
1.88567e-07
1.39634e-06
3.00659e-07
1.26429e-06
-4.53699e-07
1.4523e-06
1.41992e-06
1.45368e-06
1.81021e-06
1.37044e-06
1.3539e-07
1.45913e-06
4.88384e-07
1.40136e-06
-8.87898e-08
1.42244e-06
1.32979e-07
1.43185e-06
1.47739e-07
1.44831e-06
5.20471e-07
1.42755e-06
7.36337e-07
1.41374e-06
3.4618e-07
1.40703e-06
5.59734e-07
1.40895e-06
2.58885e-07
1.40086e-06
3.31139e-07
1.39886e-06
3.12981e-07
1.39988e-06
4.08263e-07
3.55702e-07
1.38501e-06
1.48449e-06
4.56434e-07
1.5429e-06
1.30154e-07
1.46974e-06
3.73817e-07
1.33696e-06
-3.20917e-07
1.50066e-06
1.25622e-06
1.54808e-06
1.7628e-06
1.45097e-06
2.32497e-07
1.51987e-06
4.19489e-07
1.47625e-06
-4.51757e-08
1.47976e-06
1.29469e-07
1.48811e-06
1.3939e-07
1.51e-06
4.98579e-07
1.49836e-06
7.47978e-07
1.48243e-06
3.62117e-07
1.47592e-06
5.66234e-07
1.47118e-06
2.63627e-07
1.46782e-06
3.34507e-07
1.46329e-06
3.17509e-07
1.46653e-06
4.05024e-07
3.68296e-07
1.45393e-06
1.5445e-06
4.58146e-07
1.60554e-06
6.91191e-08
1.54729e-06
4.32066e-07
1.42148e-06
-1.95105e-07
1.54908e-06
1.12862e-06
1.62704e-06
1.68484e-06
1.53478e-06
3.24758e-07
1.57798e-06
3.76285e-07
1.54945e-06
-1.66439e-08
1.53902e-06
1.39898e-07
1.54357e-06
1.34838e-07
1.56741e-06
4.74743e-07
1.5663e-06
7.49083e-07
1.55168e-06
3.76743e-07
1.54454e-06
5.7337e-07
1.53486e-06
2.73302e-07
1.53188e-06
3.37487e-07
1.52567e-06
3.2372e-07
1.5301e-06
4.00593e-07
3.79007e-07
1.51939e-06
1.61033e-06
4.67947e-07
1.66849e-06
1.09534e-08
1.62832e-06
4.72239e-07
1.51597e-06
-8.27521e-08
1.60168e-06
1.0429e-06
1.69267e-06
1.59385e-06
1.62136e-06
3.96071e-07
1.6412e-06
3.56441e-07
1.6223e-06
2.25885e-09
1.6046e-06
1.57596e-07
1.60363e-06
1.3581e-07
1.62612e-06
4.52252e-07
1.63388e-06
7.41321e-07
1.62357e-06
3.87056e-07
1.61691e-06
5.80036e-07
1.60398e-06
2.86231e-07
1.59913e-06
3.42338e-07
1.59017e-06
3.32673e-07
1.59498e-06
3.95784e-07
3.87755e-07
1.58623e-06
1.68382e-06
4.81701e-07
1.73356e-06
-3.87914e-08
1.71185e-06
4.93952e-07
1.61653e-06
1.25703e-08
1.66291e-06
9.96521e-07
1.75439e-06
1.50236e-06
1.70942e-06
4.41046e-07
1.71269e-06
3.53174e-07
1.697e-06
1.79476e-08
1.67751e-06
1.77085e-07
1.67154e-06
1.41778e-07
1.69047e-06
4.33319e-07
1.70382e-06
7.27976e-07
1.69873e-06
3.92145e-07
1.69439e-06
5.84374e-07
1.67995e-06
3.00678e-07
1.67324e-06
3.49047e-07
1.66112e-06
3.44792e-07
1.66559e-06
3.9131e-07
3.94499e-07
1.65885e-06
1.76523e-06
4.95194e-07
1.80287e-06
-7.64318e-08
1.79672e-06
5.00105e-07
1.71931e-06
8.99727e-08
1.73586e-06
9.79977e-07
1.82148e-06
1.41675e-06
1.79792e-06
4.64599e-07
1.79189e-06
3.59209e-07
1.77611e-06
3.37224e-08
1.7574e-06
1.958e-07
1.74778e-06
1.51392e-07
1.76232e-06
4.18786e-07
1.77787e-06
7.12424e-07
1.77707e-06
3.92942e-07
1.77629e-06
5.85153e-07
1.76191e-06
3.15055e-07
1.75486e-06
3.56104e-07
1.74043e-06
3.59223e-07
1.74435e-06
3.87391e-07
3.99211e-07
1.73964e-06
1.85346e-06
5.05483e-07
1.87807e-06
-1.01039e-07
1.88229e-06
4.95882e-07
1.82206e-06
1.50198e-07
1.82108e-06
9.80959e-07
1.89859e-06
1.33924e-06
1.88711e-06
4.76081e-07
1.87715e-06
3.69169e-07
1.86124e-06
4.96307e-08
1.84391e-06
2.1313e-07
1.83168e-06
1.6362e-07
1.84186e-06
4.08608e-07
1.85718e-06
6.97101e-07
1.85899e-06
3.91138e-07
1.86199e-06
5.82151e-07
1.84874e-06
3.28306e-07
1.8431e-06
3.61742e-07
1.82797e-06
3.74351e-07
1.83157e-06
3.83791e-07
4.01666e-07
1.82912e-06
1.94704e-06
5.11284e-07
1.96004e-06
-1.14036e-07
1.96901e-06
4.86903e-07
1.9244e-06
1.94816e-07
1.91686e-06
9.88497e-07
1.98579e-06
1.27031e-06
1.97822e-06
4.83648e-07
1.96726e-06
3.8013e-07
1.95243e-06
6.44563e-08
1.93665e-06
2.28912e-07
1.92269e-06
1.77578e-07
1.92911e-06
4.02186e-07
1.94296e-06
6.83252e-07
1.94575e-06
3.88348e-07
1.95205e-06
5.75854e-07
1.94029e-06
3.40065e-07
1.93719e-06
3.6484e-07
1.92297e-06
3.88575e-07
1.92656e-06
3.80194e-07
4.01489e-07
1.92674e-06
2.0449e-06
5.12576e-07
2.0489e-06
-1.18041e-07
2.0582e-06
4.77604e-07
2.02716e-06
2.25861e-07
2.02041e-06
9.95249e-07
2.08086e-06
1.20986e-06
2.07264e-06
4.91867e-07
2.06176e-06
3.91013e-07
2.04889e-06
7.73249e-08
2.03499e-06
2.42813e-07
2.02044e-06
1.92127e-07
2.02422e-06
3.98408e-07
2.03633e-06
6.71142e-07
2.0389e-06
3.85777e-07
2.04772e-06
5.67034e-07
2.03728e-06
3.50506e-07
2.03698e-06
3.65141e-07
2.0248e-06
4.00751e-07
2.02847e-06
3.76528e-07
3.98422e-07
2.03154e-06
2.14659e-06
5.0999e-07
2.14431e-06
-1.15767e-07
2.15142e-06
4.705e-07
2.13158e-06
2.45699e-07
2.12915e-06
9.97677e-07
2.18156e-06
1.15745e-06
2.17134e-06
5.02087e-07
2.16071e-06
4.01642e-07
2.14994e-06
8.80944e-08
2.13827e-06
2.54485e-07
2.12438e-06
2.06017e-07
2.12696e-06
3.95826e-07
2.1377e-06
6.60402e-07
2.13931e-06
3.84167e-07
2.14991e-06
5.56431e-07
2.1404e-06
3.60014e-07
2.14251e-06
3.63029e-07
2.13302e-06
4.10249e-07
2.13653e-06
3.73018e-07
3.92546e-07
2.1424e-06
2.2521e-06
5.0438e-07
2.24578e-06
-1.09451e-07
2.24996e-06
4.66328e-07
2.23875e-06
2.56904e-07
2.24142e-06
9.95012e-07
2.28651e-06
1.11235e-06
2.2748e-06
5.13802e-07
2.26439e-06
4.12051e-07
2.25543e-06
9.70524e-08
2.24603e-06
2.63886e-07
2.23368e-06
2.18369e-07
2.23641e-06
3.93097e-07
2.24642e-06
6.5039e-07
2.24675e-06
3.8384e-07
2.25857e-06
5.44611e-07
2.24967e-06
3.68912e-07
2.25349e-06
3.59209e-07
2.24693e-06
4.16808e-07
2.2499e-06
3.70046e-07
3.8432e-07
2.25813e-06
2.36164e-06
4.96619e-07
2.35296e-06
-1.00776e-07
2.35463e-06
4.64657e-07
2.34949e-06
2.62047e-07
2.35653e-06
9.8797e-07
2.39526e-06
1.07362e-06
2.3833e-06
5.25765e-07
2.37318e-06
4.22166e-07
2.36563e-06
1.04607e-07
2.35812e-06
2.71396e-07
2.34753e-06
2.28952e-07
2.35127e-06
3.89362e-07
2.36118e-06
6.40483e-07
2.36022e-06
3.84799e-07
2.37285e-06
5.31982e-07
2.36441e-06
3.77346e-07
2.36917e-06
3.54455e-07
2.36554e-06
4.20432e-07
2.36767e-06
3.67922e-07
3.74469e-07
2.37752e-06
2.47552e-06
4.87499e-07
2.46569e-06
-9.09465e-08
2.46582e-06
4.64525e-07
2.46436e-06
2.63505e-07
2.47457e-06
9.77758e-07
2.50794e-06
1.04026e-06
2.49704e-06
5.3666e-07
2.48742e-06
4.31787e-07
2.48086e-06
1.11162e-07
2.47456e-06
2.77704e-07
2.46541e-06
2.38097e-07
2.47043e-06
3.84344e-07
2.48064e-06
6.30271e-07
2.4786e-06
3.86844e-07
2.49171e-06
5.18869e-07
2.48376e-06
3.85299e-07
2.48873e-06
3.49485e-07
2.48785e-06
4.21307e-07
2.48899e-06
3.66786e-07
3.63769e-07
2.49969e-06
2.59415e-06
4.77646e-07
2.58394e-06
-8.07374e-08
2.58362e-06
4.64848e-07
2.58379e-06
2.63331e-07
2.59604e-06
9.6551e-07
2.62508e-06
1.01121e-06
2.61626e-06
5.45485e-07
2.60731e-06
4.40741e-07
2.60142e-06
1.17051e-07
2.59555e-06
2.83569e-07
2.58723e-06
2.46421e-07
2.59337e-06
3.78199e-07
2.60403e-06
6.1961e-07
2.60117e-06
3.89708e-07
2.61449e-06
5.05546e-07
2.60711e-06
3.92686e-07
2.61172e-06
3.44866e-07
2.61325e-06
4.19782e-07
2.61347e-06
3.66562e-07
3.52914e-07
2.62433e-06
2.71801e-06
4.67461e-07
2.70778e-06
-7.05064e-08
2.70801e-06
4.64616e-07
2.70816e-06
2.63185e-07
2.7216e-06
9.52067e-07
2.74742e-06
9.85393e-07
2.74119e-06
5.51713e-07
2.73288e-06
4.49056e-07
2.72747e-06
1.22463e-07
2.72148e-06
2.8956e-07
2.71331e-06
2.5459e-07
2.72022e-06
3.71283e-07
2.73126e-06
6.08574e-07
2.72785e-06
3.93118e-07
2.74115e-06
4.92248e-07
2.73445e-06
3.99383e-07
2.73834e-06
3.40975e-07
2.74186e-06
4.16266e-07
2.74139e-06
3.6703e-07
3.42444e-07
2.75186e-06
2.84761e-06
4.57122e-07
2.83736e-06
-6.02592e-08
2.83898e-06
4.62996e-07
2.83789e-06
2.64272e-07
2.85202e-06
9.37939e-07
2.87563e-06
9.61788e-07
2.8721e-06
5.55237e-07
2.86418e-06
4.56982e-07
2.85919e-06
1.27446e-07
2.85285e-06
2.95908e-07
2.84425e-06
2.63187e-07
2.85157e-06
3.6396e-07
2.86282e-06
5.97331e-07
2.85909e-06
3.96845e-07
2.87221e-06
4.79131e-07
2.86629e-06
4.05294e-07
2.8693e-06
3.37967e-07
2.87443e-06
4.11141e-07
2.87354e-06
3.6792e-07
3.32759e-07
2.88322e-06
2.98338e-06
4.46639e-07
2.9729e-06
-4.97784e-08
2.97652e-06
4.59378e-07
2.97347e-06
2.67316e-07
2.98807e-06
9.23339e-07
3.01022e-06
9.3964e-07
3.00928e-06
5.56178e-07
3.00138e-06
4.64876e-07
2.99682e-06
1.32008e-07
2.99021e-06
3.02515e-07
2.98075e-06
2.72652e-07
2.98821e-06
3.56501e-07
2.9995e-06
5.8604e-07
2.99563e-06
4.00714e-07
3.00854e-06
4.6622e-07
3.00346e-06
4.10372e-07
3.00557e-06
3.35862e-07
3.01204e-06
4.04667e-07
3.01098e-06
3.68983e-07
3.24196e-07
3.01954e-06
3.12572e-06
4.35922e-07
3.1147e-06
-3.87557e-08
3.12069e-06
4.53386e-07
3.11538e-06
2.7263e-07
3.13047e-06
9.08253e-07
3.15158e-06
9.18529e-07
3.15301e-06
5.54744e-07
3.14485e-06
4.73034e-07
3.14063e-06
1.36234e-07
3.13408e-06
3.09067e-07
3.12346e-06
2.83268e-07
3.1309e-06
3.49065e-07
3.14216e-06
5.74778e-07
3.13825e-06
4.04626e-07
3.15102e-06
4.53449e-07
3.14681e-06
4.14579e-07
3.14799e-06
3.3468e-07
3.15571e-06
3.96951e-07
3.1547e-06
3.6999e-07
3.17081e-07
3.16182e-06
3.275e-06
4.2483e-07
3.26312e-06
-2.68738e-08
3.27167e-06
4.44835e-07
3.26406e-06
2.80244e-07
3.27979e-06
8.92516e-07
3.30002e-06
8.98305e-07
3.30358e-06
5.51177e-07
3.29503e-06
4.8159e-07
3.29092e-06
1.40338e-07
3.28484e-06
3.15152e-07
3.27293e-06
2.95172e-07
3.28027e-06
3.41724e-07
3.29153e-06
5.63524e-07
3.28757e-06
4.08583e-07
3.30029e-06
4.4073e-07
3.29705e-06
4.17818e-07
3.29724e-06
3.34491e-07
3.30612e-06
3.88072e-07
3.30549e-06
3.70614e-07
3.11748e-07
3.31083e-06
3.43156e-06
4.13199e-07
3.41853e-06
-1.38387e-08
3.42968e-06
4.33684e-07
3.41989e-06
2.90031e-07
3.43649e-06
8.75915e-07
3.45585e-06
8.78946e-07
3.46125e-06
5.45778e-07
3.45235e-06
4.90494e-07
3.44805e-06
1.44638e-07
3.44284e-06
3.20359e-07
3.42965e-06
3.08358e-07
3.43683e-06
3.3455e-07
3.4482e-06
5.52148e-07
3.44409e-06
4.127e-07
3.4568e-06
4.28022e-07
3.45473e-06
4.19882e-07
3.45374e-06
3.35485e-07
3.46368e-06
3.78131e-07
3.46389e-06
3.70404e-07
3.08427e-07
3.46721e-06
3.59576e-06
4.00853e-07
3.58131e-06
6.07309e-10
3.595e-06
4.19996e-07
3.58326e-06
3.0177e-07
3.6009e-06
8.58274e-07
3.61941e-06
8.60434e-07
3.62628e-06
5.38914e-07
3.61723e-06
4.99538e-07
3.61238e-06
1.49489e-07
3.6084e-06
3.24338e-07
3.59407e-06
3.22696e-07
3.60095e-06
3.27665e-07
3.61268e-06
5.40415e-07
3.60822e-06
4.17165e-07
3.62083e-06
4.15412e-07
3.62026e-06
4.20447e-07
3.6179e-06
3.37846e-07
3.6286e-06
3.67432e-07
3.63023e-06
3.68776e-07
3.07105e-07
3.63155e-06
3.76794e-06
3.87619e-07
3.75187e-06
1.66724e-08
3.76795e-06
4.03918e-07
3.75454e-06
3.15182e-07
3.77329e-06
8.39519e-07
3.79104e-06
8.42692e-07
3.79895e-06
5.31004e-07
3.79009e-06
5.08397e-07
3.78434e-06
1.55237e-07
3.78185e-06
3.26831e-07
3.76658e-06
3.37958e-07
3.77298e-06
3.21274e-07
3.78537e-06
5.28019e-07
3.78038e-06
4.22162e-07
3.79266e-06
4.03125e-07
3.79395e-06
4.19165e-07
3.79022e-06
3.41571e-07
3.80104e-06
3.56617e-07
3.80471e-06
3.65097e-07
3.07419e-07
3.8044e-06
3.94846e-06
3.73347e-07
3.93063e-06
3.44995e-08
3.94888e-06
3.85667e-07
3.93413e-06
3.29937e-07
3.95394e-06
8.1971e-07
3.97107e-06
8.25558e-07
3.97958e-06
5.22491e-07
3.97129e-06
5.16687e-07
3.96435e-06
1.62178e-07
3.96351e-06
3.27678e-07
3.94762e-06
3.5384e-07
3.95323e-06
3.15671e-07
3.96661e-06
5.14635e-07
3.96099e-06
4.27783e-07
3.97257e-06
3.9154e-07
3.97601e-06
4.15727e-07
3.9712e-06
3.46381e-07
3.98124e-06
3.46579e-07
3.98738e-06
3.58956e-07
3.08539e-07
3.98626e-06
4.13768e-06
3.5792e-07
4.11803e-06
5.4149e-08
4.13817e-06
3.65521e-07
4.12244e-06
3.45668e-07
4.14313e-06
7.99024e-07
4.15989e-06
8.088e-07
4.16858e-06
5.13799e-07
4.16124e-06
5.24026e-07
4.1529e-06
1.70518e-07
4.15373e-06
3.26848e-07
4.13761e-06
3.69966e-07
4.14205e-06
3.11227e-07
4.15668e-06
5.00003e-07
4.15049e-06
4.33979e-07
4.16089e-06
3.81133e-07
4.16665e-06
4.09974e-07
4.16131e-06
3.5172e-07
4.16967e-06
3.38212e-07
4.17822e-06
3.50412e-07
3.09274e-07
4.17748e-06
4.33595e-06
3.41269e-07
4.31452e-06
7.55866e-08
4.33622e-06
3.43813e-07
4.31992e-06
3.61976e-07
4.34121e-06
7.77725e-07
4.3579e-06
7.92118e-07
4.36636e-06
5.05332e-07
4.36032e-06
5.30069e-07
4.35048e-06
1.80353e-07
4.35289e-06
3.24444e-07
4.33696e-06
3.85893e-07
4.33984e-06
3.08349e-07
4.35587e-06
4.8398e-07
4.34932e-06
4.40521e-07
4.35798e-06
3.72477e-07
4.36604e-06
4.0191e-07
4.36087e-06
3.56893e-07
4.36703e-06
3.32055e-07
4.37731e-06
3.4013e-07
3.08427e-07
4.37815e-06
4.54366e-06
3.23384e-07
4.52056e-06
9.86823e-08
4.54347e-06
3.2091e-07
4.52699e-06
3.78448e-07
4.54859e-06
7.56134e-07
4.56552e-06
7.75179e-07
4.57341e-06
4.9745e-07
4.56891e-06
5.34566e-07
4.55762e-06
1.91641e-07
4.56137e-06
3.20696e-07
4.54612e-06
4.01142e-07
4.54707e-06
3.074e-07
4.56444e-06
4.66612e-07
4.55798e-06
4.46973e-07
4.56424e-06
3.66222e-07
4.5744e-06
3.91745e-07
4.57016e-06
3.61134e-07
4.57397e-06
3.28248e-07
4.58496e-06
3.29136e-07
3.05164e-07
4.58823e-06
4.76118e-06
3.04317e-07
4.73665e-06
1.23214e-07
4.76035e-06
2.97212e-07
4.74415e-06
3.94649e-07
4.76568e-06
7.34603e-07
4.78321e-06
7.57644e-07
4.79021e-06
4.90456e-07
4.78739e-06
5.37388e-07
4.77482e-06
2.04204e-07
4.77959e-06
3.15932e-07
4.76551e-06
4.15222e-07
4.76423e-06
3.08679e-07
4.78272e-06
4.48115e-07
4.77694e-06
4.52759e-07
4.78032e-06
3.62843e-07
4.79209e-06
3.79977e-07
4.78945e-06
3.63766e-07
4.79117e-06
3.26529e-07
4.80179e-06
3.18515e-07
2.99307e-07
4.80765e-06
4.98893e-06
2.84181e-07
4.96326e-06
1.48883e-07
4.98733e-06
2.73142e-07
4.97187e-06
4.10112e-07
4.99295e-06
7.13519e-07
5.01142e-06
7.39179e-07
5.01729e-06
4.84588e-07
5.01615e-06
5.3853e-07
5.00259e-06
2.17762e-07
5.00802e-06
3.10504e-07
4.99554e-06
4.27694e-07
4.99186e-06
3.12361e-07
5.01113e-06
4.2885e-07
5.00668e-06
4.57207e-07
5.00694e-06
3.62586e-07
5.01961e-06
3.67299e-07
5.01921e-06
3.6417e-07
5.0193e-06
3.26438e-07
5.0286e-06
3.09217e-07
2.91401e-07
5.0365e-06
5.22736e-06
2.63136e-07
5.20091e-06
1.75331e-07
5.22488e-06
2.49172e-07
5.21069e-06
4.2431e-07
5.2309e-06
6.93304e-07
5.2506e-06
7.19483e-07
5.25524e-06
4.79943e-07
5.2556e-06
5.38177e-07
5.24141e-06
2.31951e-07
5.24716e-06
3.04753e-07
5.23665e-06
4.38202e-07
5.23056e-06
3.18449e-07
5.25008e-06
4.09337e-07
5.2477e-06
4.59587e-07
5.24491e-06
3.65367e-07
5.25756e-06
3.54657e-07
5.25987e-06
3.61861e-07
5.25893e-06
3.27375e-07
5.26632e-06
3.01824e-07
2.82542e-07
5.27518e-06
5.47694e-06
2.41382e-07
5.45013e-06
2.02147e-07
5.47344e-06
2.25863e-07
5.46115e-06
4.36592e-07
5.48003e-06
6.74426e-07
5.50119e-06
6.98326e-07
5.50474e-06
4.76396e-07
5.50621e-06
5.36702e-07
5.49177e-06
2.46391e-07
5.49753e-06
2.98989e-07
5.48928e-06
4.46458e-07
5.48091e-06
3.26814e-07
5.50005e-06
3.90197e-07
5.50043e-06
4.59211e-07
5.49493e-06
3.70862e-07
5.50662e-06
3.4297e-07
5.51182e-06
3.56657e-07
5.51053e-06
3.2867e-07
5.51582e-06
2.96533e-07
2.73763e-07
5.5246e-06
5.7382e-06
2.19143e-07
5.71147e-06
2.28872e-07
5.73341e-06
2.03928e-07
5.72387e-06
4.46134e-07
5.74091e-06
6.57382e-07
5.76365e-06
6.75581e-07
5.76641e-06
4.73638e-07
5.76853e-06
5.34582e-07
5.75415e-06
2.60769e-07
5.75971e-06
2.93435e-07
5.7539e-06
4.52263e-07
5.74353e-06
3.37189e-07
5.76161e-06
3.72112e-07
5.76521e-06
4.55615e-07
5.75771e-06
3.78364e-07
5.76744e-06
3.33239e-07
5.77549e-06
3.48604e-07
5.77456e-06
3.296e-07
5.77789e-06
2.93207e-07
2.65853e-07
5.7858e-06
6.01167e-06
1.9667e-07
5.98555e-06
2.54987e-07
6.00521e-06
1.84273e-07
5.99943e-06
4.51908e-07
6.01414e-06
6.42675e-07
6.03843e-06
6.5129e-07
6.04088e-06
4.71184e-07
6.04319e-06
5.32274e-07
6.02907e-06
2.74893e-07
6.03427e-06
2.88229e-07
6.03103e-06
4.55506e-07
6.01902e-06
3.49195e-07
6.03534e-06
3.55792e-07
6.04243e-06
4.48527e-07
6.03389e-06
3.86907e-07
6.04078e-06
3.26345e-07
6.05124e-06
3.38146e-07
6.05153e-06
3.29317e-07
6.05316e-06
2.91577e-07
2.59288e-07
6.05972e-06
6.29792e-06
1.74234e-07
6.273e-06
2.7991e-07
6.28921e-06
1.68063e-07
6.2885e-06
4.52619e-07
6.30039e-06
6.30785e-07
6.32582e-06
6.25859e-07
6.32873e-06
4.68272e-07
6.33086e-06
5.30146e-07
6.31705e-06
2.88705e-07
6.32184e-06
2.83438e-07
6.32119e-06
4.56152e-07
6.30805e-06
3.62338e-07
6.3219e-06
3.41942e-07
6.3325e-06
4.37932e-07
6.32405e-06
3.95351e-07
6.32756e-06
3.22836e-07
6.33945e-06
3.26255e-07
6.3419e-06
3.26874e-07
6.34219e-06
2.91284e-07
2.54312e-07
6.34716e-06
6.59757e-06
1.5213e-07
6.57449e-06
3.02997e-07
6.5859e-06
1.56648e-07
6.59179e-06
4.46726e-07
6.6005e-06
6.22074e-07
6.62625e-06
6.0011e-07
6.63046e-06
4.64061e-07
6.63227e-06
5.28344e-07
6.6187e-06
3.02266e-07
6.62302e-06
2.79118e-07
6.62495e-06
4.54224e-07
6.61126e-06
3.76026e-07
6.62203e-06
3.31177e-07
6.63584e-06
4.24121e-07
6.62866e-06
4.0253e-07
6.62864e-06
3.22854e-07
6.64076e-06
3.14142e-07
6.64601e-06
3.21617e-07
6.64563e-06
2.91666e-07
2.51067e-07
6.64888e-06
6.91125e-06
1.30669e-07
6.89069e-06
3.2356e-07
6.89679e-06
1.50546e-07
6.90999e-06
4.33527e-07
6.91553e-06
6.16531e-07
6.94035e-06
5.75293e-07
6.94654e-06
4.57875e-07
6.94817e-06
5.26711e-07
6.9347e-06
3.15734e-07
6.93845e-06
2.75372e-07
6.94289e-06
4.49783e-07
6.92931e-06
3.89606e-07
6.93658e-06
3.23908e-07
6.95293e-06
4.07765e-07
6.94813e-06
4.07332e-07
6.94493e-06
3.2606e-07
6.95596e-06
3.03107e-07
6.96414e-06
3.13437e-07
6.96409e-06
2.91718e-07
2.49525e-07
6.96563e-06
7.23964e-06
1.10169e-07
7.2223e-06
3.40893e-07
7.22312e-06
1.49728e-07
7.24279e-06
4.13853e-07
7.24642e-06
6.12905e-07
7.2689e-06
5.5281e-07
7.27742e-06
4.49354e-07
7.27932e-06
5.24812e-07
7.26575e-06
3.29311e-07
7.26877e-06
2.72353e-07
7.27559e-06
4.42963e-07
7.2628e-06
4.02395e-07
7.26645e-06
3.20259e-07
7.28436e-06
3.89851e-07
7.2828e-06
4.08888e-07
7.27726e-06
3.31603e-07
7.28604e-06
2.94326e-07
7.29663e-06
3.02851e-07
7.298e-06
2.90343e-07
2.49307e-07
7.29822e-06
7.58345e-06
9.0947e-08
7.57002e-06
3.54319e-07
7.56581e-06
1.53938e-07
7.58999e-06
3.89675e-07
7.59394e-06
6.08951e-07
7.61281e-06
5.33946e-07
7.62364e-06
4.38519e-07
7.62644e-06
5.2201e-07
7.6126e-06
3.43155e-07
7.61467e-06
2.70281e-07
7.62362e-06
4.34011e-07
7.61233e-06
4.13691e-07
7.6125e-06
3.2009e-07
7.63079e-06
3.71559e-07
7.63303e-06
4.06644e-07
7.62628e-06
3.38351e-07
7.63203e-06
2.88577e-07
7.64403e-06
2.90855e-07
7.64769e-06
2.86681e-07
2.49673e-07
7.64733e-06
7.94345e-06
7.33035e-08
7.93456e-06
3.63216e-07
7.92574e-06
1.62754e-07
7.95226e-06
3.63154e-07
7.95869e-06
6.0253e-07
7.97311e-06
5.19525e-07
7.98578e-06
4.25845e-07
7.99016e-06
5.17632e-07
7.97609e-06
3.5722e-07
7.97684e-06
2.69538e-07
7.98762e-06
4.23228e-07
7.97845e-06
4.22858e-07
7.97548e-06
3.23066e-07
7.99302e-06
3.54013e-07
7.9991e-06
4.00565e-07
7.9925e-06
3.44956e-07
7.995e-06
2.86076e-07
8.00721e-06
2.78637e-07
8.01348e-06
2.80417e-07
2.49753e-07
8.0134e-06
8.32047e-06
5.75127e-08
8.31665e-06
3.67039e-07
8.30377e-06
1.75631e-07
8.33051e-06
3.36415e-07
8.34116e-06
5.91883e-07
8.3509e-06
5.09787e-07
8.36446e-06
4.12284e-07
8.37104e-06
5.11049e-07
8.35699e-06
3.71268e-07
8.35598e-06
2.70553e-07
8.36816e-06
4.11044e-07
8.36162e-06
4.29397e-07
8.35612e-06
3.28566e-07
8.37188e-06
3.38253e-07
8.38148e-06
3.90964e-07
8.3763e-06
3.50139e-07
8.37597e-06
2.86399e-07
8.38719e-06
2.67422e-07
8.39583e-06
2.71781e-07
2.48709e-07
8.39687e-06
8.71536e-06
4.38116e-08
8.71707e-06
3.65336e-07
8.70073e-06
1.91969e-07
8.72561e-06
3.11536e-07
8.74177e-06
5.75722e-07
8.74722e-06
5.04334e-07
8.76038e-06
3.9913e-07
8.76962e-06
5.01808e-07
8.75599e-06
3.84896e-07
8.75277e-06
2.73777e-07
8.76582e-06
3.97985e-07
8.76225e-06
4.32968e-07
8.75514e-06
3.35678e-07
8.76837e-06
3.25028e-07
8.78082e-06
3.78506e-07
8.77814e-06
3.52824e-07
8.77588e-06
2.88659e-07
8.78508e-06
2.58223e-07
8.79542e-06
2.6144e-07
2.45878e-07
8.79825e-06
9.12904e-06
3.23928e-08
9.13634e-06
3.58032e-07
9.11743e-06
2.10878e-07
9.13855e-06
2.90419e-07
9.16075e-06
5.5352e-07
9.16315e-06
5.01937e-07
9.17442e-06
3.87855e-07
9.18629e-06
4.89938e-07
9.1738e-06
3.97393e-07
9.16796e-06
2.79615e-07
9.18129e-06
3.84649e-07
9.18092e-06
4.33346e-07
9.1733e-06
3.43296e-07
9.18362e-06
3.14704e-07
9.19807e-06
3.64056e-07
9.19858e-06
3.52312e-07
9.19554e-06
2.91698e-07
9.20207e-06
2.51697e-07
9.21317e-06
2.50345e-07
2.40912e-07
9.21813e-06
9.56247e-06
2.33849e-08
9.57497e-06
3.45528e-07
9.55474e-06
2.3111e-07
9.57086e-06
2.743e-07
9.59847e-06
5.25906e-07
9.59953e-06
5.00882e-07
9.60756e-06
3.79825e-07
9.62158e-06
4.75918e-07
9.61125e-06
4.07723e-07
9.60291e-06
2.87958e-07
9.61574e-06
3.71811e-07
9.61873e-06
4.30362e-07
9.61153e-06
3.50495e-07
9.61894e-06
3.07289e-07
9.63441e-06
3.48592e-07
9.6383e-06
3.48422e-07
9.63555e-06
2.94444e-07
9.63947e-06
2.47775e-07
9.65008e-06
2.39734e-07
2.33804e-07
9.65719e-06
1.00167e-05
1.68294e-08
1.00337e-05
3.285e-07
1.00136e-05
2.51257e-07
1.0024e-05
2.63881e-07
1.00558e-05
4.94114e-07
1.00571e-05
4.99529e-07
1.00609e-05
3.76103e-07
1.00763e-05
4.6048e-07
1.00694e-05
4.14569e-07
1.00592e-05
2.9823e-07
1.00707e-05
3.60301e-07
1.00769e-05
4.24139e-07
1.00709e-05
3.56521e-07
1.00756e-05
3.02577e-07
1.00911e-05
3.33114e-07
1.00981e-05
3.41398e-07
1.00965e-05
2.96009e-07
1.00985e-05
2.45854e-07
1.01075e-05
2.30644e-07
2.25111e-07
1.01162e-05
1.04928e-05
1.26519e-08
1.05135e-05
3.07865e-07
1.04948e-05
2.69869e-07
1.04993e-05
2.59425e-07
1.05336e-05
4.59766e-07
1.05374e-05
4.95823e-07
1.05364e-05
3.77022e-07
1.05519e-05
4.45043e-07
1.05491e-05
4.17356e-07
1.05383e-05
3.0904e-07
1.05477e-05
3.50833e-07
1.05565e-05
4.15395e-07
1.05523e-05
3.60754e-07
1.05548e-05
3.00064e-07
1.05694e-05
3.18509e-07
1.0579e-05
3.31742e-07
1.05792e-05
2.95864e-07
1.058e-05
2.45009e-07
1.05871e-05
2.23583e-07
2.15898e-07
1.05963e-05
1.0992e-05
1.0655e-08
1.10151e-05
2.84755e-07
1.09995e-05
2.85499e-07
1.09982e-05
2.60705e-07
1.10331e-05
4.24865e-07
1.10413e-05
4.87671e-07
1.10365e-05
3.81751e-07
1.105e-05
4.31564e-07
1.1051e-05
4.16422e-07
1.10411e-05
3.18869e-07
1.10483e-05
3.43631e-07
1.10588e-05
4.04953e-07
1.10566e-05
3.62925e-07
1.10576e-05
2.99063e-07
1.10707e-05
3.05435e-07
1.10822e-05
3.20166e-07
1.10844e-05
2.93718e-07
1.10849e-05
2.44488e-07
1.10901e-05
2.18346e-07
2.07256e-07
1.10988e-05
1.15155e-05
1.04993e-08
1.15398e-05
2.60484e-07
1.15285e-05
2.96791e-07
1.15222e-05
2.6697e-07
1.15553e-05
3.91769e-07
1.1569e-05
4.73975e-07
1.15624e-05
3.88341e-07
1.15725e-05
4.21456e-07
1.15762e-05
4.12741e-07
1.15683e-05
3.26827e-07
1.15736e-05
3.38256e-07
1.1585e-05
3.93624e-07
1.15849e-05
3.62961e-07
1.15851e-05
2.98934e-07
1.15963e-05
2.94198e-07
1.1609e-05
3.07462e-07
1.16132e-05
2.89489e-07
1.1614e-05
2.43753e-07
1.16179e-05
2.14369e-07
1.99852e-07
1.16253e-05
1.20646e-05
1.17015e-08
1.20886e-05
2.36499e-07
1.20829e-05
3.02531e-07
1.20727e-05
2.77115e-07
1.21018e-05
3.62654e-07
1.2121e-05
4.54835e-07
1.21149e-05
3.94456e-07
1.21211e-05
4.15171e-07
1.21262e-05
4.0771e-07
1.21205e-05
3.32544e-07
1.21248e-05
3.33924e-07
1.21364e-05
3.82061e-07
1.21384e-05
3.60957e-07
1.21382e-05
2.99104e-07
1.21475e-05
2.84866e-07
1.21606e-05
2.94339e-07
1.21669e-05
2.83277e-07
1.21682e-05
2.42405e-07
1.21714e-05
2.11141e-07
1.93705e-07
1.21776e-05
1.26406e-05
1.36897e-08
1.26629e-05
2.14157e-07
1.26635e-05
3.01997e-07
1.26508e-05
2.89786e-07
1.26743e-05
3.39141e-07
1.26979e-05
4.31218e-07
1.26945e-05
3.97932e-07
1.26972e-05
4.12427e-07
1.27022e-05
4.02715e-07
1.26988e-05
3.35987e-07
1.27027e-05
3.30002e-07
1.27142e-05
3.70501e-07
1.2718e-05
3.57153e-07
1.27181e-05
2.99054e-07
1.27256e-05
2.7733e-07
1.27385e-05
2.81452e-07
1.27465e-05
2.75282e-07
1.27487e-05
2.40189e-07
1.27516e-05
2.08261e-07
1.88498e-07
1.27568e-05
1.32447e-05
1.59135e-08
1.32644e-05
1.94474e-07
1.3271e-05
2.95439e-07
1.32576e-05
3.03134e-07
1.32747e-05
3.22092e-07
1.3301e-05
4.04864e-07
1.33017e-05
3.97276e-07
1.33018e-05
4.12284e-07
1.3306e-05
3.98563e-07
1.33044e-05
3.37589e-07
1.33084e-05
3.25993e-07
1.33199e-05
3.58982e-07
1.33253e-05
3.51762e-07
1.33259e-05
2.98413e-07
1.33319e-05
2.71305e-07
1.3344e-05
2.69349e-07
1.33535e-05
2.65866e-07
1.33568e-05
2.3681e-07
1.33595e-05
2.05587e-07
1.83796e-07
1.33642e-05
1.38782e-05
1.79095e-08
1.38947e-05
1.77984e-07
1.39061e-05
2.84026e-07
1.38941e-05
3.15116e-07
1.39049e-05
3.11328e-07
1.39313e-05
3.78384e-07
1.39366e-05
3.91999e-07
1.3936e-05
4.12924e-07
1.39391e-05
3.95462e-07
1.39387e-05
3.37944e-07
1.3943e-05
3.21684e-07
1.39546e-05
3.47423e-07
1.39614e-05
3.44995e-07
1.39628e-05
2.96938e-07
1.39678e-05
2.66349e-07
1.39787e-05
2.58442e-07
1.3989e-05
2.55548e-07
1.39938e-05
2.31998e-07
1.39964e-05
2.02976e-07
1.79383e-07
1.40008e-05
1.45422e-05
1.93411e-08
1.45549e-05
1.65269e-07
1.45698e-05
2.69127e-07
1.45614e-05
3.23516e-07
1.45665e-05
3.06321e-07
1.45897e-05
3.55124e-07
1.45997e-05
3.82004e-07
1.46007e-05
4.11928e-07
1.46031e-05
3.93116e-07
1.46034e-05
3.37586e-07
1.4608e-05
3.17091e-07
1.46197e-05
3.35772e-07
1.46277e-05
3.36902e-07
1.46302e-05
2.94526e-07
1.46345e-05
2.62032e-07
1.46441e-05
2.48803e-07
1.46546e-05
2.45052e-07
1.4661e-05
2.2562e-07
1.46639e-05
2.00062e-07
1.75343e-07
1.46679e-05
1.52382e-05
1.99875e-08
1.52467e-05
1.5681e-07
1.52649e-05
2.50925e-07
1.52609e-05
3.275e-07
1.52601e-05
3.07089e-07
1.52777e-05
3.37602e-07
1.52926e-05
3.67112e-07
1.52971e-05
4.0737e-07
1.52994e-05
3.9087e-07
1.53001e-05
3.36884e-07
1.53047e-05
3.12444e-07
1.53164e-05
3.24109e-07
1.53257e-05
3.27539e-07
1.53293e-05
2.91003e-07
1.53332e-05
2.58095e-07
1.53418e-05
2.40246e-07
1.53519e-05
2.34931e-07
1.53595e-05
2.17998e-07
1.53633e-05
1.96296e-07
1.71672e-07
1.53669e-05
1.59677e-05
1.96344e-08
1.59803e-05
1.442e-07
1.59979e-05
2.3335e-07
1.59921e-05
3.33267e-07
1.59876e-05
3.1161e-07
1.59996e-05
3.25589e-07
1.60172e-05
3.49519e-07
1.60263e-05
3.98222e-07
1.60295e-05
3.87726e-07
1.60303e-05
3.36036e-07
1.60348e-05
3.07921e-07
1.60463e-05
3.12652e-07
1.60568e-05
3.17073e-07
1.60616e-05
2.86142e-07
1.60655e-05
2.5424e-07
1.60731e-05
2.3264e-07
1.60827e-05
2.25344e-07
1.60909e-05
2.098e-07
1.60958e-05
1.91334e-07
1.68106e-07
1.60994e-05
1.67311e-05
1.9088e-08
1.67277e-05
1.47669e-07
1.67445e-05
2.16514e-07
1.67524e-05
3.25373e-07
1.67515e-05
3.12539e-07
1.67596e-05
3.17432e-07
1.67765e-05
3.32658e-07
1.67897e-05
3.85035e-07
1.67948e-05
3.82605e-07
1.67959e-05
3.34942e-07
1.68002e-05
3.03658e-07
1.68112e-05
3.01632e-07
1.68225e-05
3.05746e-07
1.68288e-05
2.79827e-07
1.6833e-05
2.50084e-07
1.68398e-05
2.2586e-07
1.68488e-05
2.16317e-07
1.68571e-05
2.01497e-07
1.6863e-05
1.85411e-07
1.64118e-07
1.6867e-05
1.75315e-05
1.79849e-08
1.75343e-05
1.44786e-07
1.75453e-05
2.05593e-07
1.75522e-05
3.1844e-07
1.75525e-05
3.12264e-07
1.75579e-05
3.12031e-07
1.75726e-05
3.17908e-07
1.75887e-05
3.68938e-07
1.75964e-05
3.74932e-07
1.75983e-05
3.3302e-07
1.76023e-05
2.99713e-07
1.76127e-05
2.91226e-07
1.76245e-05
2.93941e-07
1.76322e-05
2.72116e-07
1.7637e-05
2.45256e-07
1.76432e-05
2.19678e-07
1.76516e-05
2.07921e-07
1.76599e-05
1.93168e-07
1.76663e-05
1.7904e-07
1.59355e-07
1.76711e-05
1.83696e-05
1.67025e-08
1.83679e-05
1.46479e-07
1.8379e-05
1.94539e-07
1.83899e-05
3.0753e-07
1.83924e-05
3.0973e-07
1.83961e-05
3.08367e-07
1.8408e-05
3.0598e-07
1.84254e-05
3.5159e-07
1.84358e-05
3.6451e-07
1.84391e-05
3.29724e-07
1.84429e-05
2.95922e-07
1.84525e-05
2.81597e-07
1.84645e-05
2.81959e-07
1.84734e-05
2.63221e-07
1.84791e-05
2.39514e-07
1.84851e-05
2.13664e-07
1.84928e-05
2.00241e-07
1.85011e-05
1.84902e-07
1.85077e-05
1.72432e-07
1.54025e-07
1.8513e-05
1.92478e-05
1.53057e-08
1.92474e-05
1.46892e-07
1.92551e-05
1.86806e-07
1.92675e-05
2.9517e-07
1.92723e-05
3.04898e-07
1.92754e-05
3.0529e-07
1.92847e-05
2.96614e-07
1.93018e-05
3.34574e-07
1.93147e-05
3.51544e-07
1.93198e-05
3.24643e-07
1.93239e-05
2.91825e-07
1.93327e-05
2.7277e-07
1.93445e-05
2.70151e-07
1.93544e-05
2.53382e-07
1.93611e-05
2.3278e-07
1.93674e-05
2.07396e-07
1.93745e-05
1.93136e-07
1.93825e-05
1.76887e-07
1.93895e-05
1.65466e-07
1.48458e-07
1.9395e-05
2.01678e-05
1.39605e-08
2.0166e-05
1.48623e-07
2.01734e-05