/*--------------------------------*- C++ -*----------------------------------*\
| =========                 |                                                 |
| \\      /  F ield         | OpenFOAM: The Open Source CFD Toolbox           |
|  \\    /   O peration     | Version:  v1906                                 |
|   \\  /    A nd           | Web:      www.OpenFOAM.com                      |
|    \\/     M anipulation  |                                                 |
\*---------------------------------------------------------------------------*/
FoamFile
{
    version     2.0;
    format      ascii;
    class       volVectorField;
    location    "8";
    object      U;
}
// * * * * * * * * * * * * * * * * * * * * * * * * * * * * * * * * * * * * * //

dimensions      [0 1 -1 0 0 0 0];


internalField   nonuniform List<vector> 
9600
(
(0.773712 0.00605419 0)
(1.26475 0.00430104 0)
(0.879135 -0.00151127 0)
(1.08277 -0.0131173 0)
(0.719634 0.0323409 0)
(1.37473 0.0228981 0)
(0.575281 -0.00155344 0)
(1.27687 0.0159226 0)
(0.741357 -0.00747384 0)
(1.13762 0.00667275 0)
(0.848571 0.00516746 0)
(1.15296 0.0130734 0)
(0.84051 0.0187135 0)
(1.13911 0.00785849 0)
(0.808293 0.0186838 0)
(1.15539 0.00944759 0)
(0.79657 0.0104209 0)
(1.14555 0.0162901 0)
(0.821825 0.0145749 0)
(1.11066 0.0177829 0)
(0.778212 0.00572587 0)
(1.2573 0.00381752 0)
(0.882485 -0.000180377 0)
(1.08033 -0.0114764 0)
(0.720351 0.0304012 0)
(1.36912 0.0246377 0)
(0.592948 -0.00096146 0)
(1.26681 0.0146494 0)
(0.768402 -0.00611737 0)
(1.13319 0.00585581 0)
(0.865598 0.00448484 0)
(1.14529 0.0134989 0)
(0.862567 0.018659 0)
(1.11828 0.00883266 0)
(0.842618 0.0181167 0)
(1.11372 0.00990315 0)
(0.859737 0.0108601 0)
(1.07247 0.0148898 0)
(0.925314 0.0168582 0)
(0.991192 0.0156258 0)
(0.788977 0.00530618 0)
(1.24082 0.00336253 0)
(0.89196 0.000989442 0)
(1.07348 -0.00994969 0)
(0.724633 0.0270268 0)
(1.35574 0.0264569 0)
(0.636321 -0.000492541 0)
(1.24109 0.0130398 0)
(0.81934 -0.00477261 0)
(1.11447 0.00461378 0)
(0.90255 0.00396319 0)
(1.12246 0.0139534 0)
(0.912435 0.0189406 0)
(1.08057 0.00956482 0)
(0.904074 0.0177785 0)
(1.05964 0.00988618 0)
(0.934144 0.0115068 0)
(1.01204 0.0136812 0)
(0.977882 0.0184153 0)
(0.970813 0.0156081 0)
(0.806971 0.00497324 0)
(1.21426 0.00290259 0)
(0.910097 0.00207523 0)
(1.06132 -0.00839976 0)
(0.735942 0.0238737 0)
(1.3299 0.0275379 0)
(0.706934 0.000286573 0)
(1.19537 0.0114008 0)
(0.884753 -0.00345608 0)
(1.08102 0.0035781 0)
(0.945042 0.00376084 0)
(1.089 0.0139097 0)
(0.966622 0.019537 0)
(1.04519 0.00985109 0)
(0.957135 0.0179966 0)
(1.02477 0.00947355 0)
(0.978127 0.0122454 0)
(0.994059 0.0132886 0)
(0.991802 0.0188026 0)
(0.983355 0.0166773 0)
(0.831982 0.00473704 0)
(1.17804 0.00237261 0)
(0.935963 0.00311117 0)
(1.0446 -0.00673722 0)
(0.75766 0.0211444 0)
(1.28801 0.027954 0)
(0.794347 0.00153668 0)
(1.13562 0.00968873 0)
(0.945428 -0.00222253 0)
(1.04439 0.00291348 0)
(0.974713 0.00356524 0)
(1.05607 0.0134794 0)
(1.00296 0.020172 0)
(1.02364 0.010181 0)
(0.98632 0.0183154 0)
(1.00874 0.00919057 0)
(0.9939 0.0128209 0)
(0.993489 0.0132364 0)
(0.995104 0.0187918 0)
(0.991431 0.0176794 0)
(0.86211 0.00459778 0)
(1.13549 0.00175702 0)
(0.964867 0.00405353 0)
(1.02662 -0.00500673 0)
(0.790181 0.0186897 0)
(1.23101 0.0276261 0)
(0.878772 0.00312198 0)
(1.07765 0.00815569 0)
(0.986932 -0.00123301 0)
(1.01666 0.00266125 0)
(0.986162 0.00331985 0)
(1.0298 0.0129415 0)
(1.01725 0.0206414 0)
(1.01385 0.010693 0)
(0.996816 0.0185215 0)
(1.00093 0.00927253 0)
(0.994858 0.0130589 0)
(0.992096 0.013307 0)
(0.993884 0.0187512 0)
(0.991958 0.018389 0)
(0.893927 0.00456589 0)
(1.09257 0.00108397 0)
(0.990515 0.00484542 0)
(1.01201 -0.00331679 0)
(0.8293 0.0166329 0)
(1.16639 0.0266246 0)
(0.943967 0.00475191 0)
(1.03573 0.00708127 0)
(1.00741 -0.00056441 0)
(1.00118 0.00278305 0)
(0.986028 0.00315981 0)
(1.01056 0.0123807 0)
(1.01656 0.0208375 0)
(1.00993 0.0112108 0)
(0.998478 0.0187414 0)
(0.996692 0.00959244 0)
(0.990986 0.0131217 0)
(0.987568 0.0135327 0)
(0.989284 0.0186101 0)
(0.988019 0.0189075 0)
(0.923573 0.0046324 0)
(1.05575 0.000412047 0)
(1.00804 0.00543178 0)
(1.00417 -0.0017582 0)
(0.868093 0.0151428 0)
(1.10558 0.0252444 0)
(0.985145 0.00612248 0)
(1.01358 0.00652162 0)
(1.01334 -0.000133756 0)
(0.99432 0.00314916 0)
(0.982804 0.00314119 0)
(0.997354 0.0118075 0)
(1.00946 0.0207435 0)
(1.00783 0.0116038 0)
(0.997782 0.0189962 0)
(0.995275 0.0100159 0)
(0.987748 0.0132456 0)
(0.982958 0.0138854 0)
(0.984076 0.0183569 0)
(0.983128 0.0193509 0)
(0.948148 0.00476231 0)
(1.02912 -0.000192313 0)
(1.01595 0.00579385 0)
(1.00321 -0.000396295 0)
(0.900918 0.0142451 0)
(1.0583 0.0237725 0)
(1.00659 0.00707008 0)
(1.00582 0.00635945 0)
(1.01267 0.00019822 0)
(0.991675 0.00359759 0)
(0.980893 0.00324051 0)
(0.989298 0.0112789 0)
(1.00172 0.0204343 0)
(1.00571 0.0118239 0)
(0.997053 0.0191923 0)
(0.995826 0.0105066 0)
(0.986956 0.01348 0)
(0.980615 0.0143491 0)
(0.980891 0.0180969 0)
(0.979998 0.0197465 0)
(0.966498 0.00490966 0)
(1.01312 -0.000676638 0)
(1.01609 0.00595042 0)
(1.00622 0.000725807 0)
(0.925891 0.0138423 0)
(1.02847 0.0223718 0)
(1.01564 0.0076036 0)
(1.00481 0.0064281 0)
(1.01085 0.000513841 0)
(0.991106 0.00402819 0)
(0.981067 0.00342926 0)
(0.985254 0.010852 0)
(0.99575 0.020012 0)
(1.00317 0.0118855 0)
(0.996431 0.0192763 0)
(0.997014 0.0110302 0)
(0.988164 0.0137606 0)
(0.980933 0.0149328 0)
(0.980707 0.0178896 0)
(0.979775 0.0200523 0)
(0.979071 0.00503567 0)
(1.0054 -0.00101407 0)
(1.01199 0.00595002 0)
(1.0095 0.00160771 0)
(0.944288 0.0137733 0)
(1.01402 0.0211002 0)
(1.01847 0.00786161 0)
(1.00549 0.00660101 0)
(1.01001 0.000835648 0)
(0.991983 0.00441952 0)
(0.982841 0.00368848 0)
(0.984043 0.0105389 0)
(0.992045 0.0195674 0)
(1.00065 0.0118479 0)
(0.995804 0.0192375 0)
(0.998034 0.0115335 0)
(0.990373 0.0140107 0)
(0.983191 0.0155934 0)
(0.983116 0.0177192 0)
(0.982281 0.0202334 0)
(0.98719 0.00511898 0)
(1.00269 -0.00120969 0)
(1.00697 0.00585873 0)
(1.01075 0.00227828 0)
(0.95839 0.0138665 0)
(1.00971 0.0199711 0)
(1.01878 0.00800456 0)
(1.00598 0.0068056 0)
(1.01017 0.00114561 0)
(0.993841 0.00477618 0)
(0.985669 0.00399897 0)
(0.984875 0.0103298 0)
(0.99055 0.0191597 0)
(0.998941 0.011767 0)
(0.995538 0.0190807 0)
(0.998955 0.011988 0)
(0.993039 0.0141721 0)
(0.986604 0.0162452 0)
(0.987246 0.0175572 0)
(0.986753 0.020277 0)
(0.992293 0.00515455 0)
(1.00233 -0.00129224 0)
(1.00298 0.00574042 0)
(1.00959 0.00275818 0)
(0.969862 0.0139884 0)
(1.01037 0.0189819 0)
(1.01824 0.00813683 0)
(1.00618 0.00700949 0)
(1.01073 0.00141869 0)
(0.996057 0.00509557 0)
(0.98907 0.00433572 0)
(0.987254 0.0102073 0)
(0.991159 0.0188034 0)
(0.998649 0.0116819 0)
(0.996191 0.0188252 0)
(1.00025 0.012392 0)
(0.9961 0.014221 0)
(0.990722 0.0168186 0)
(0.992339 0.0173945 0)
(0.992362 0.0201718 0)
(0.995504 0.00514666 0)
(1.00273 -0.0012937 0)
(1.00059 0.00563843 0)
(1.00693 0.00307799 0)
(0.979376 0.0140631 0)
(1.01247 0.0181215 0)
(1.01739 0.00829965 0)
(1.00638 0.00720387 0)
(1.01125 0.00164972 0)
(0.998131 0.00537282 0)
(0.992572 0.00467257 0)
(0.990632 0.0101328 0)
(0.993522 0.0184912 0)
(0.999846 0.0116218 0)
(0.997991 0.0184939 0)
(1.00221 0.0127544 0)
(0.999564 0.0141676 0)
(0.995255 0.0172762 0)
(0.997804 0.01724 0)
(0.998366 0.0199176 0)
(0.997544 0.00510353 0)
(1.00315 -0.00124124 0)
(0.999626 0.00557135 0)
(1.00389 0.0032704 0)
(0.987051 0.0140635 0)
(1.01427 0.0173783 0)
(1.01638 0.00849159 0)
(1.00674 0.00739365 0)
(1.01164 0.00183878 0)
(0.999854 0.00560166 0)
(0.995764 0.00498238 0)
(0.994328 0.0100646 0)
(0.996919 0.0182079 0)
(1.00205 0.0116005 0)
(1.00063 0.0181083 0)
(1.00467 0.0130867 0)
(1.0032 0.0140428 0)
(0.999831 0.0176015 0)
(1.00309 0.0171065 0)
(1.00409 0.0195381 0)
(0.998826 0.00503434 0)
(1.00332 -0.00115576 0)
(0.999668 0.00553913 0)
(1.00122 0.00336874 0)
(0.992938 0.0139927 0)
(1.01518 0.01674 0)
(1.01521 0.00869567 0)
(1.00724 0.0075798 0)
(1.01201 0.0019971 0)
(1.00122 0.00578217 0)
(0.998376 0.00525006 0)
(0.9977 0.00998093 0)
(1.00047 0.0179304 0)
(1.00453 0.0116198 0)
(1.00349 0.0176897 0)
(1.00719 0.0133941 0)
(1.00659 0.0138797 0)
(1.00397 0.0177962 0)
(1.00767 0.0170035 0)
(1.00897 0.0190722 0)
(0.999587 0.00494781 0)
(1.0032 -0.00105238 0)
(1.00034 0.0055315 0)
(0.999223 0.00340555 0)
(0.997201 0.0138673 0)
(1.01523 0.0161919 0)
(1.01395 0.00888995 0)
(1.00785 0.00776009 0)
(1.01248 0.00213388 0)
(1.00226 0.00592755 0)
(1.00029 0.00547711 0)
(1.00035 0.00987052 0)
(1.00347 0.0176442 0)
(1.00667 0.0116736 0)
(1.00595 0.0172565 0)
(1.00927 0.0136799 0)
(1.00929 0.0136998 0)
(1.00725 0.0178714 0)
(1.01112 0.0169349 0)
(1.01261 0.0185583 0)
(0.999981 0.00485121 0)
(1.00285 -0.000941561 0)
(1.00133 0.00553527 0)
(0.997917 0.00340968 0)
(1.00006 0.0137061 0)
(1.01467 0.0157183 0)
(1.01269 0.0090544 0)
(1.00844 0.00793315 0)
(1.01304 0.00225327 0)
(1.00303 0.00605857 0)
(1.00154 0.00567403 0)
(1.00218 0.00973302 0)
(1.00556 0.0173466 0)
(1.00815 0.0117532 0)
(1.00765 0.0168214 0)
(1.01065 0.0139423 0)
(1.01108 0.013521 0)
(1.00945 0.0178474 0)
(1.0133 0.0168992 0)
(1.01493 0.018021 0)
(1.00014 0.00475003 0)
(1.00241 -0.000829845 0)
(1.00237 0.00553846 0)
(0.997233 0.00340456 0)
(1.00175 0.0135242 0)
(1.01383 0.0153025 0)
(1.01156 0.009178 0)
(1.00891 0.00809339 0)
(1.0136 0.00236466 0)
(1.0036 0.00618724 0)
(1.00222 0.0058597 0)
(1.0033 0.00957193 0)
(1.0067 0.0170396 0)
(1.00892 0.0118506 0)
(1.00854 0.0163945 0)
(1.01131 0.0141735 0)
(1.01201 0.013358 0)
(1.01066 0.0177476 0)
(1.01432 0.0168979 0)
(1.01611 0.0174802 0)
(1.00016 0.00464686 0)
(1.00196 -0.000718346 0)
(1.00328 0.00552967 0)
(0.997047 0.00340972 0)
(1.00257 0.0133288 0)
(1.01293 0.014929 0)
(1.01063 0.00925739 0)
(1.00921 0.00824355 0)
(1.01407 0.00246639 0)
(1.00404 0.00632321 0)
(1.00251 0.00605129 0)
(1.00395 0.00939278 0)
(1.0071 0.0167288 0)
(1.00915 0.0119546 0)
(1.00879 0.0159779 0)
(1.01143 0.0143798 0)
(1.01231 0.0132182 0)
(1.01117 0.0175831 0)
(1.01452 0.0169274 0)
(1.01651 0.0169545 0)
(1.00013 0.0045423 0)
(1.00156 -0.000605422 0)
(1.00398 0.00549962 0)
(0.997205 0.00343718 0)
(1.00281 0.0131256 0)
(1.01213 0.0145821 0)
(1.00991 0.00929154 0)
(1.00934 0.0083912 0)
(1.01435 0.00255724 0)
(1.00442 0.00646613 0)
(1.00257 0.00625883 0)
(1.00436 0.00920617 0)
(1.00703 0.0164187 0)
(1.00907 0.0120586 0)
(1.00866 0.015568 0)
(1.01125 0.0145731 0)
(1.01225 0.0131026 0)
(1.01132 0.0173582 0)
(1.01426 0.0169819 0)
(1.0165 0.0164585 0)
(1.00008 0.00443602 0)
(1.00124 -0.000488247 0)
(1.00447 0.00544273 0)
(0.997563 0.00349156 0)
(1.00277 0.0129166 0)
(1.01149 0.0142546 0)
(1.00933 0.00928212 0)
(1.00939 0.00853944 0)
(1.01445 0.00264299 0)
(1.00479 0.0066106 0)
(1.00251 0.00649055 0)
(1.00468 0.00901535 0)
(1.00674 0.0161094 0)
(1.00887 0.012166 0)
(1.00838 0.0151609 0)
(1.01097 0.0147502 0)
(1.01207 0.0130105 0)
(1.01138 0.0170737 0)
(1.01384 0.017065 0)
(1.01633 0.0160196 0)
(1.00003 0.004327 0)
(1.00102 -0.000363683 0)
(1.00476 0.00535627 0)
(0.998017 0.00357628 0)
(1.0026 0.0126983 0)
(1.01105 0.0139405 0)
(1.00884 0.00923688 0)
(1.00942 0.00869294 0)
(1.01439 0.00272016 0)
(1.00515 0.00675445 0)
(1.00239 0.00675196 0)
(1.005 0.00882326 0)
(1.00638 0.015803 0)
(1.00865 0.0122717 0)
(1.00812 0.0147488 0)
(1.01071 0.0149066 0)
(1.01189 0.0129548 0)
(1.01148 0.0167197 0)
(1.01342 0.0171597 0)
(1.01613 0.0156706 0)
(0.999957 0.0042133 0)
(1.00091 -0.000226905 0)
(1.00487 0.00523801 0)
(0.99851 0.00369097 0)
(1.00241 0.0124698 0)
(1.0108 0.0136373 0)
(1.00838 0.00915599 0)
(1.00943 0.00885569 0)
(1.01423 0.00279763 0)
(1.00548 0.00688049 0)
(1.00225 0.00705118 0)
(1.00537 0.00862754 0)
(1.00609 0.0155013 0)
(1.00844 0.0123787 0)
(1.00792 0.0143247 0)
(1.01051 0.0150314 0)
(1.01176 0.0129528 0)
(1.01165 0.0162919 0)
(1.01309 0.0172289 0)
(1.01592 0.0154415 0)
(0.999868 0.00409247 0)
(1.00092 -7.53087e-05 0)
(1.00483 0.00508684 0)
(0.99901 0.00383364 0)
(1.00221 0.0122262 0)
(1.01069 0.0133481 0)
(1.00795 0.00904604 0)
(1.00943 0.00902381 0)
(1.01402 0.00288702 0)
(1.00578 0.00697686 0)
(1.00212 0.00739131 0)
(1.00576 0.00843142 0)
(1.00591 0.0151915 0)
(1.00827 0.0125024 0)
(1.00781 0.013891 0)
(1.01035 0.0151041 0)
(1.01166 0.013015 0)
(1.01188 0.0158057 0)
(1.01286 0.0172354 0)
(1.01569 0.0153574 0)
(0.999757 0.00396474 0)
(1.00102 8.95601e-05 0)
(1.00467 0.00490827 0)
(0.999497 0.00399911 0)
(1.00204 0.0119665 0)
(1.01066 0.0130724 0)
(1.00756 0.00891693 0)
(1.00938 0.00919015 0)
(1.01381 0.00298867 0)
(1.00603 0.00704002 0)
(1.00202 0.00775497 0)
(1.00615 0.00825381 0)
(1.00587 0.0148619 0)
(1.0081 0.0126456 0)
(1.0078 0.0134606 0)
(1.01022 0.0151141 0)
(1.01159 0.0131522 0)
(1.01212 0.0152905 0)
(1.01273 0.017131 0)
(1.01543 0.0154115 0)
(0.999634 0.00382661 0)
(1.00121 0.000275177 0)
(1.00443 0.00470153 0)
(0.999949 0.00418406 0)
(1.0019 0.0116935 0)
(1.01065 0.0128076 0)
(1.0072 0.00877507 0)
(1.00926 0.00934857 0)
(1.01363 0.0031144 0)
(1.00624 0.00706548 0)
(1.00195 0.00813077 0)
(1.00652 0.00809775 0)
(1.00598 0.0145112 0)
(1.00793 0.0128129 0)
(1.00785 0.0130446 0)
(1.01013 0.0150444 0)
(1.01152 0.0133538 0)
(1.01234 0.0147942 0)
(1.01269 0.0168806 0)
(1.01513 0.0155635 0)
(0.999511 0.00367685 0)
(1.00144 0.000481461 0)
(1.00415 0.00446903 0)
(1.00034 0.00438503 0)
(1.00182 0.0114052 0)
(1.01061 0.0125499 0)
(1.00691 0.00862793 0)
(1.00908 0.00949463 0)
(1.01347 0.00327102 0)
(1.00643 0.0070557 0)
(1.00191 0.00851283 0)
(1.00685 0.00796857 0)
(1.00619 0.0141272 0)
(1.00777 0.0130048 0)
(1.00793 0.0126609 0)
(1.01007 0.0148818 0)
(1.01144 0.0135945 0)
(1.01254 0.0143677 0)
(1.01273 0.0164801 0)
(1.01482 0.0157193 0)
(0.999403 0.00351589 0)
(1.00169 0.000706831 0)
(1.00388 0.00421708 0)
(1.00066 0.0045935 0)
(1.00181 0.0111063 0)
(1.0105 0.012297 0)
(1.00667 0.00848024 0)
(1.00884 0.0096137 0)
(1.01334 0.00346236 0)
(1.00661 0.00700755 0)
(1.00191 0.00889813 0)
(1.00713 0.00787865 0)
(1.0065 0.0136953 0)
(1.0076 0.0132082 0)
(1.00803 0.0123297 0)
(1.01006 0.0146248 0)
(1.01135 0.0138509 0)
(1.01267 0.0140501 0)
(1.01282 0.0159554 0)
(1.01454 0.0157708 0)
(0.999322 0.00334134 0)
(1.00191 0.000952472 0)
(1.00365 0.00394704 0)
(1.00091 0.00480999 0)
(1.00186 0.0108007 0)
(1.01034 0.0120429 0)
(1.00648 0.00834136 0)
(1.00857 0.00969942 0)
(1.01321 0.00368566 0)
(1.0068 0.00693441 0)
(1.00192 0.00927479 0)
(1.00736 0.00783529 0)
(1.00686 0.013228 0)
(1.00746 0.0134154 0)
(1.0081 0.0120686 0)
(1.01009 0.0142746 0)
(1.01125 0.0140848 0)
(1.01274 0.0138621 0)
(1.01295 0.0153678 0)
(1.01433 0.015651 0)
(0.999271 0.00315563 0)
(1.00208 0.00121359 0)
(1.00347 0.00366643 0)
(1.00109 0.0050274 0)
(1.00196 0.0104898 0)
(1.01013 0.0117848 0)
(1.00633 0.00822232 0)
(1.00829 0.00975019 0)
(1.01307 0.00393267 0)
(1.00701 0.00684506 0)
(1.00193 0.00961854 0)
(1.00754 0.0078433 0)
(1.00725 0.0127349 0)
(1.00734 0.0136168 0)
(1.00814 0.0119032 0)
(1.01018 0.0138517 0)
(1.01117 0.0142551 0)
(1.01275 0.0137938 0)
(1.01308 0.0147961 0)
(1.01421 0.0153412 0)
(0.999251 0.00295706 0)
(1.00219 0.00149216 0)
(1.00335 0.00337729 0)
(1.00122 0.00523475 0)
(1.00209 0.0101887 0)
(1.00991 0.0115125 0)
(1.00619 0.00812889 0)
(1.008 0.00976785 0)
(1.01292 0.00419603 0)
(1.00725 0.00673462 0)
(1.00195 0.00991696 0)
(1.00767 0.00791189 0)
(1.00766 0.0122121 0)
(1.00725 0.0137881 0)
(1.00812 0.0118438 0)
(1.01031 0.0133791 0)
(1.01113 0.0143268 0)
(1.01269 0.0138162 0)
(1.01318 0.0143087 0)
(1.01417 0.0148781 0)
(0.999256 0.0027493 0)
(1.00224 0.0017802 0)
(1.00328 0.00308687 0)
(1.00132 0.00543052 0)
(1.00222 0.00989793 0)
(1.00968 0.01122 0)
(1.00606 0.00805659 0)
(1.00772 0.00976131 0)
(1.01273 0.00447559 0)
(1.0075 0.00661969 0)
(1.00197 0.010173 0)
(1.00776 0.00804077 0)
(1.00808 0.0116637 0)
(1.0072 0.0139088 0)
(1.00805 0.0118911 0)
(1.01047 0.0128908 0)
(1.01114 0.0142859 0)
(1.0126 0.0138955 0)
(1.01322 0.013945 0)
(1.01419 0.0143436 0)
(0.999281 0.00253277 0)
(1.00223 0.00207558 0)
(1.00325 0.00280405 0)
(1.00141 0.00560378 0)
(1.00234 0.0096194 0)
(1.00946 0.0109028 0)
(1.00593 0.00800792 0)
(1.00745 0.00973826 0)
(1.01252 0.00475856 0)
(1.00777 0.00651144 0)
(1.00199 0.0103865 0)
(1.00778 0.00822028 0)
(1.0085 0.0111108 0)
(1.00721 0.0139628 0)
(1.00792 0.0120393 0)
(1.01064 0.0124209 0)
(1.01121 0.0141289 0)
(1.01249 0.013992 0)
(1.01318 0.0136967 0)
(1.01422 0.0138354 0)
(0.999319 0.00231001 0)
(1.00217 0.00237309 0)
(1.00323 0.00253058 0)
(1.0015 0.00574899 0)
(1.00244 0.00936704 0)
(1.00925 0.010552 0)
(1.0058 0.00797132 0)
(1.00718 0.00970589 0)
(1.01228 0.00502879 0)
(1.00805 0.00640279 0)
(1.00202 0.0105479 0)
(1.00774 0.00844721 0)
(1.00891 0.0105784 0)
(1.00727 0.0139242 0)
(1.00774 0.0122733 0)
(1.01079 0.0120005 0)
(1.01135 0.0138519 0)
(1.01238 0.0140774 0)
(1.01308 0.0135366 0)
(1.01423 0.0134013 0)
(0.999366 0.00208508 0)
(1.00208 0.00266659 0)
(1.00322 0.00227734 0)
(1.0016 0.00585442 0)
(1.00251 0.00914841 0)
(1.00904 0.0101705 0)
(1.00568 0.00793307 0)
(1.00691 0.00966941 0)
(1.01202 0.00529325 0)
(1.00832 0.00629347 0)
(1.00208 0.0106548 0)
(1.00764 0.00872525 0)
(1.0093 0.0100842 0)
(1.0074 0.0137723 0)
(1.00752 0.0125751 0)
(1.01089 0.0116746 0)
(1.01156 0.0134553 0)
(1.0123 0.0141252 0)
(1.01292 0.0134602 0)
(1.0142 0.0130481 0)
(0.999417 0.001856 0)
(1.00196 0.00295314 0)
(1.0032 0.00205978 0)
(1.0017 0.00589572 0)
(1.00256 0.00897866 0)
(1.00884 0.00976622 0)
(1.00556 0.00789352 0)
(1.00664 0.00963594 0)
(1.01173 0.00555462 0)
(1.00859 0.00618086 0)
(1.00216 0.0107076 0)
(1.00748 0.00904645 0)
(1.00966 0.00964352 0)
(1.0076 0.0134969 0)
(1.00727 0.0129045 0)
(1.01092 0.0114799 0)
(1.01183 0.0129571 0)
(1.01228 0.014089 0)
(1.01271 0.0134723 0)
(1.01409 0.0127751 0)
(0.999469 0.00163115 0)
(1.00182 0.0032203 0)
(1.00316 0.00189219 0)
(1.00181 0.00585962 0)
(1.00258 0.00884952 0)
(1.00863 0.00935873 0)
(1.00544 0.00783802 0)
(1.00636 0.00961513 0)
(1.01142 0.00581602 0)
(1.00885 0.00607304 0)
(1.00228 0.0107068 0)
(1.00728 0.009395 0)
(1.00997 0.00927649 0)
(1.00789 0.0131039 0)
(1.00703 0.0132079 0)
(1.01085 0.0114348 0)
(1.01213 0.0124135 0)
(1.01234 0.013917 0)
(1.01247 0.0135469 0)
(1.01391 0.0125902 0)
(0.999521 0.00141166 0)
(1.00167 0.00346077 0)
(1.0031 0.00178954 0)
(1.00192 0.00573008 0)
(1.00258 0.00876018 0)
(1.0084 0.00896572 0)
(1.00533 0.0077419 0)
(1.00609 0.00961209 0)
(1.01108 0.00608019 0)
(1.0091 0.00597244 0)
(1.00244 0.0106502 0)
(1.00703 0.00975879 0)
(1.01021 0.0090078 0)
(1.00825 0.0126169 0)
(1.00683 0.0134385 0)
(1.01068 0.0115309 0)
(1.01241 0.0119029 0)
(1.0125 0.0135885 0)
(1.01223 0.0136204 0)
(1.01364 0.0125146 0)
(0.99957 0.00119836 0)
(1.00151 0.00367182 0)
(1.00302 0.0017516 0)
(1.00204 0.00550178 0)
(1.00257 0.0087105 0)
(1.00816 0.00860046 0)
(1.00524 0.00760022 0)
(1.00582 0.00960818 0)
(1.01071 0.00634784 0)
(1.00934 0.00587527 0)
(1.00265 0.0105294 0)
(1.00676 0.01012 0)
(1.01038 0.00884776 0)
(1.00866 0.0120607 0)
(1.00669 0.0135573 0)
(1.01041 0.0117382 0)
(1.01263 0.0114906 0)
(1.01275 0.0131263 0)
(1.01205 0.0136189 0)
(1.0133 0.0125481 0)
(0.999617 0.00099784 0)
(1.00135 0.00384079 0)
(1.00291 0.0017814 0)
(1.00215 0.00519569 0)
(1.00254 0.00866177 0)
(1.00789 0.00828727 0)
(1.00515 0.00741819 0)
(1.00556 0.00957996 0)
(1.0103 0.00662877 0)
(1.00954 0.00579376 0)
(1.00292 0.0103367 0)
(1.00647 0.0104596 0)
(1.01045 0.00880523 0)
(1.00911 0.0114738 0)
(1.00664 0.0135397 0)
(1.01007 0.0120132 0)
(1.01276 0.0112116 0)
(1.01307 0.0125786 0)
(1.01196 0.0134886 0)
(1.01291 0.0126362 0)
(0.999661 0.000812085 0)
(1.00118 0.00396249 0)
(1.00276 0.0018719 0)
(1.00227 0.00484504 0)
(1.00251 0.00859432 0)
(1.0076 0.0080458 0)
(1.00507 0.00719149 0)
(1.00532 0.0095191 0)
(1.00987 0.0069273 0)
(1.00971 0.00574437 0)
(1.00323 0.0100783 0)
(1.0062 0.0107486 0)
(1.01043 0.00886996 0)
(1.00957 0.0108954 0)
(1.00669 0.0133762 0)
(1.00969 0.0123001 0)
(1.01276 0.0110752 0)
(1.01341 0.012008 0)
(1.01199 0.0132204 0)
(1.01253 0.0127017 0)
(0.999701 0.000643115 0)
(1.00101 0.00402968 0)
(1.00258 0.00201977 0)
(1.00237 0.00448245 0)
(1.00248 0.00847824 0)
(1.00729 0.00788229 0)
(1.005 0.00694564 0)
(1.00511 0.00941588 0)
(1.00942 0.00723421 0)
(1.00983 0.00574222 0)
(1.00359 0.0097722 0)
(1.00596 0.0109558 0)
(1.01031 0.00901492 0)
(1.01001 0.0103717 0)
(1.00685 0.0130873 0)
(1.00932 0.0125487 0)
(1.01262 0.0110701 0)
(1.01372 0.01147 0)
(1.01214 0.012829 0)
(1.01222 0.0126929 0)
(0.999737 0.000495661 0)
(1.00085 0.0040377 0)
(1.00237 0.00220624 0)
(1.00247 0.00414221 0)
(1.00247 0.00828057 0)
(1.00694 0.00779304 0)
(1.00492 0.00671014 0)
(1.00492 0.00925804 0)
(1.00895 0.00753951 0)
(1.00989 0.00579972 0)
(1.00398 0.00943786 0)
(1.00575 0.0110703 0)
(1.01011 0.00921171 0)
(1.01041 0.00993117 0)
(1.00712 0.0126905 0)
(1.00897 0.0127049 0)
(1.01235 0.0111675 0)
(1.01397 0.011016 0)
(1.01239 0.0123395 0)
(1.012 0.0125869 0)
(0.999769 0.000368882 0)
(1.00071 0.0039868 0)
(1.00213 0.0024241 0)
(1.00254 0.00384201 0)
(1.00247 0.0079968 0)
(1.00659 0.00776061 0)
(1.00482 0.00649987 0)
(1.00477 0.00903587 0)
(1.00847 0.00782472 0)
(1.00988 0.00592291 0)
(1.00438 0.00909841 0)
(1.0056 0.0110927 0)
(1.00984 0.00943151 0)
(1.01074 0.00958318 0)
(1.00747 0.0122173 0)
(1.0087 0.0127413 0)
(1.01198 0.01133 0)
(1.0141 0.0106913 0)
(1.0127 0.0117886 0)
(1.01191 0.0123662 0)
(0.999797 0.000267289 0)
(1.00057 0.00387359 0)
(1.00188 0.00266475 0)
(1.00259 0.003599 0)
(1.00248 0.00763165 0)
(1.00622 0.00775443 0)
(1.0047 0.00634435 0)
(1.00465 0.00875495 0)
(1.00801 0.00805244 0)
(1.00981 0.0061122 0)
(1.00479 0.00878409 0)
(1.0055 0.011027 0)
(1.00952 0.00964744 0)
(1.01098 0.00933276 0)
(1.00788 0.0117114 0)
(1.00852 0.0126544 0)
(1.01154 0.0114931 0)
(1.01408 0.0105 0)
(1.01303 0.0112314 0)
(1.01196 0.0120188 0)
(0.99982 0.000190589 0)
(1.00046 0.0037032 0)
(1.00161 0.00291217 0)
(1.0026 0.00343065 0)
(1.00251 0.00718845 0)
(1.00586 0.00774863 0)
(1.00456 0.00626701 0)
(1.00456 0.00844444 0)
(1.00757 0.00820111 0)
(1.00968 0.00635442 0)
(1.00518 0.0085192 0)
(1.00547 0.0108859 0)
(1.00916 0.00983356 0)
(1.01113 0.00916564 0)
(1.00833 0.0111917 0)
(1.00844 0.0124408 0)
(1.01108 0.0115982 0)
(1.01392 0.0104125 0)
(1.0133 0.010742 0)
(1.01213 0.0115627 0)
(0.999838 0.000138218 0)
(1.00036 0.00348526 0)
(1.00134 0.00314917 0)
(1.00257 0.0033441 0)
(1.00257 0.00668921 0)
(1.00551 0.00771253 0)
(1.00438 0.00628182 0)
(1.00448 0.00814398 0)
(1.00718 0.00826153 0)
(1.0095 0.00660387 0)
(1.00554 0.00830469 0)
(1.00548 0.010688 0)
(1.00879 0.00997883 0)
(1.01118 0.00906885 0)
(1.00877 0.010683 0)
(1.00846 0.0121192 0)
(1.01063 0.0116331 0)
(1.01363 0.0103946 0)
(1.01348 0.0103696 0)
(1.01238 0.0110512 0)
(0.999852 0.000109385 0)
(1.00029 0.00323209 0)
(1.00108 0.00335346 0)
(1.0025 0.00334205 0)
(1.00263 0.00617616 0)
(1.0052 0.00761016 0)
(1.00418 0.00637207 0)
(1.0044 0.00788936 0)
(1.00682 0.00823929 0)
(1.00929 0.0068238 0)
(1.00586 0.00814034 0)
(1.00555 0.0104478 0)
(1.00842 0.0100672 0)
(1.01112 0.00902309 0)
(1.00917 0.0102114 0)
(1.00858 0.0117112 0)
(1.01022 0.0115884 0)
(1.01325 0.010404 0)
(1.01354 0.0101094 0)
(1.01266 0.0105532 0)
(0.999862 0.000102456 0)
(1.00025 0.0029582 0)
(1.00084 0.00351487 0)
(1.00239 0.00341114 0)
(1.0027 0.00568314 0)
(1.00494 0.0074276 0)
(1.00397 0.00649621 0)
(1.00431 0.00769588 0)
(1.0065 0.00815918 0)
(1.00906 0.00699913 0)
(1.00614 0.008019 0)
(1.00565 0.0101877 0)
(1.00807 0.0100965 0)
(1.01097 0.00901213 0)
(1.00953 0.00980232 0)
(1.00878 0.011247 0)
(1.0099 0.0114517 0)
(1.01282 0.010404 0)
(1.01346 0.00993057 0)
(1.01289 0.0101281 0)
(0.999869 0.000111538 0)
(1.00023 0.00268348 0)
(1.00063 0.00361455 0)
(1.00224 0.00354467 0)
(1.00277 0.0052413 0)
(1.00474 0.00714768 0)
(1.00376 0.00661984 0)
(1.0042 0.00757604 0)
(1.00621 0.00805341 0)
(1.00882 0.00711474 0)
(1.00637 0.00791207 0)
(1.00577 0.00991681 0)
(1.00775 0.0100785 0)
(1.01076 0.00902082 0)
(1.00981 0.00946271 0)
(1.00903 0.0107612 0)
(1.00966 0.0112296 0)
(1.01237 0.0103732 0)
(1.01329 0.00980124 0)
(1.01303 0.00979997 0)
(0.999874 0.000130341 0)
(1.00023 0.0024253 0)
(1.00046 0.00363493 0)
(1.00207 0.00371553 0)
(1.00281 0.00488089 0)
(1.00459 0.00678178 0)
(1.00358 0.00670126 0)
(1.00407 0.00753573 0)
(1.00593 0.007957 0)
(1.00858 0.00717898 0)
(1.00658 0.00780138 0)
(1.00592 0.00962689 0)
(1.00747 0.0100101 0)
(1.01048 0.00903413 0)
(1.01 0.00918456 0)
(1.00931 0.0102748 0)
(1.00952 0.0109332 0)
(1.01194 0.0102977 0)
(1.01303 0.00968333 0)
(1.01307 0.00954185 0)
(0.999878 0.00015316 0)
(1.00024 0.00219841 0)
(1.00033 0.00357719 0)
(1.00188 0.0038924 0)
(1.00282 0.00460618 0)
(1.00449 0.00636291 0)
(1.00345 0.00670924 0)
(1.00394 0.00755 0)
(1.00566 0.00788996 0)
(1.00833 0.00721608 0)
(1.00674 0.00769251 0)
(1.00609 0.00933429 0)
(1.00723 0.00989615 0)
(1.01017 0.00905025 0)
(1.0101 0.00897329 0)
(1.00959 0.00981172 0)
(1.00947 0.0105772 0)
(1.01154 0.0101768 0)
(1.01273 0.00956347 0)
(1.01303 0.0093151 0)
(0.99988 0.000175149 0)
(1.00026 0.00200344 0)
(1.00025 0.00345498 0)
(1.00169 0.00406305 0)
(1.0028 0.00443475 0)
(1.00444 0.0059357 0)
(1.00337 0.00662252 0)
(1.00381 0.00756968 0)
(1.00539 0.00784892 0)
(1.00808 0.00723189 0)
(1.00688 0.00756888 0)
(1.00628 0.00902728 0)
(1.00705 0.00972496 0)
(1.00984 0.00904061 0)
(1.01012 0.00882205 0)
(1.00985 0.00940037 0)
(1.00951 0.01018 0)
(1.0112 0.0100116 0)
(1.01238 0.00945893 0)
(1.01292 0.00910831 0)
(0.999883 0.000193916 0)
(1.00029 0.00184877 0)
(1.00022 0.00328481 0)
(1.00151 0.00419421 0)
(1.00273 0.00435403 0)
(1.00439 0.00554608 0)
(1.00336 0.00644862 0)
(1.00371 0.0075694 0)
(1.00512 0.00783717 0)
(1.00781 0.00725093 0)
(1.00698 0.00744633 0)
(1.00648 0.00870605 0)
(1.00692 0.0095038 0)
(1.00952 0.00898234 0)
(1.01005 0.0086907 0)
(1.01005 0.00903935 0)
(1.0096 0.00974607 0)
(1.01094 0.00976056 0)
(1.01202 0.00934033 0)
(1.01276 0.00889592 0)
(0.999887 0.00020107 0)
(1.00032 0.00173331 0)
(1.00022 0.00308836 0)
(1.00136 0.00428189 0)
(1.00263 0.00435609 0)
(1.00436 0.00523903 0)
(1.00341 0.0062008 0)
(1.00365 0.00750901 0)
(1.00486 0.00781927 0)
(1.00752 0.00727052 0)
(1.00703 0.00734238 0)
(1.00668 0.00839089 0)
(1.00685 0.00924984 0)
(1.00921 0.00889054 0)
(1.00993 0.00856378 0)
(1.01019 0.0087306 0)
(1.00972 0.00933193 0)
(1.01077 0.00944297 0)
(1.01166 0.00919906 0)
(1.01254 0.0087099 0)
(0.999891 0.000207844 0)
(1.00034 0.00163433 0)
(1.00025 0.00284235 0)
(1.00124 0.00428984 0)
(1.00251 0.00439486 0)
(1.0043 0.00503621 0)
(1.00349 0.00591623 0)
(1.00364 0.00736393 0)
(1.00462 0.00777669 0)
(1.00722 0.00728491 0)
(1.00704 0.00725471 0)
(1.00686 0.00809029 0)
(1.00683 0.00895842 0)
(1.00892 0.00876167 0)
(1.00976 0.0084404 0)
(1.01026 0.00845382 0)
(1.00983 0.00896049 0)
(1.01068 0.00909805 0)
(1.01136 0.00900866 0)
(1.01227 0.0085549 0)
(0.999898 0.000200462 0)
(1.00034 0.00159233 0)
(1.00031 0.00263173 0)
(1.00117 0.00424867 0)
(1.00239 0.00443726 0)
(1.00422 0.00492064 0)
(1.0036 0.0056389 0)
(1.00369 0.00712489 0)
(1.00442 0.00768652 0)
(1.00692 0.00728338 0)
(1.007 0.00717453 0)
(1.00703 0.00781014 0)
(1.00685 0.00864106 0)
(1.00869 0.0085841 0)
(1.00956 0.00831665 0)
(1.01028 0.00819778 0)
(1.00994 0.0086033 0)
(1.01063 0.00874349 0)
(1.01112 0.00875021 0)
(1.01199 0.00838702 0)
(0.999906 0.00018682 0)
(1.00035 0.00159593 0)
(1.00038 0.00248503 0)
(1.00113 0.00417409 0)
(1.00226 0.00445401 0)
(1.00411 0.00485037 0)
(1.0037 0.00538653 0)
(1.00377 0.0068215 0)
(1.00427 0.00753124 0)
(1.00662 0.00724921 0)
(1.00692 0.00709287 0)
(1.00716 0.00754613 0)
(1.0069 0.00831243 0)
(1.0085 0.00835234 0)
(1.00934 0.00816617 0)
(1.01024 0.00796459 0)
(1.01001 0.00825105 0)
(1.01062 0.00838467 0)
(1.01093 0.00845212 0)
(1.01173 0.00817302 0)
(0.999916 0.000179359 0)
(1.00034 0.00159493 0)
(1.00045 0.00234899 0)
(1.00113 0.004047 0)
(1.00215 0.00442554 0)
(1.00397 0.00479774 0)
(1.00377 0.0051752 0)
(1.00388 0.00650134 0)
(1.00416 0.00731945 0)
(1.00634 0.00717451 0)
(1.0068 0.00699992 0)
(1.00725 0.00729144 0)
(1.00696 0.00797803 0)
(1.00834 0.00808369 0)
(1.00911 0.00797236 0)
(1.01014 0.00774198 0)
(1.01004 0.00792089 0)
(1.01061 0.00801609 0)
(1.01079 0.00814113 0)
(1.01149 0.00791596 0)
(0.999926 0.000161075 0)
(1.00033 0.00160818 0)
(1.00051 0.00225201 0)
(1.00114 0.00389509 0)
(1.00205 0.00435988 0)
(1.00382 0.00474147 0)
(1.0038 0.00500965 0)
(1.004 0.0061816 0)
(1.0041 0.00705929 0)
(1.00609 0.00706647 0)
(1.00665 0.00690968 0)
(1.00729 0.00707375 0)
(1.00703 0.00767112 0)
(1.00822 0.00782648 0)
(1.00891 0.00778256 0)
(1.01 0.00753818 0)
(1.01003 0.00764582 0)
(1.01061 0.00766516 0)
(1.01069 0.00783059 0)
(1.0113 0.00764849 0)
(0.999937 0.000143392 0)
(1.00032 0.00162225 0)
(1.00056 0.00217642 0)
(1.00116 0.00372136 0)
(1.00197 0.00426531 0)
(1.00367 0.00468932 0)
(1.00381 0.00489998 0)
(1.00411 0.00590658 0)
(1.00408 0.00679136 0)
(1.00586 0.0069365 0)
(1.00647 0.00681435 0)
(1.0073 0.00686947 0)
(1.00708 0.00735604 0)
(1.00813 0.00752639 0)
(1.0087 0.00755344 0)
(1.00983 0.00729807 0)
(1.00995 0.00736087 0)
(1.01058 0.00730315 0)
(1.0106 0.00746271 0)
(1.01112 0.00733236 0)
(0.999949 0.000134724 0)
(1.0003 0.00160791 0)
(1.00059 0.00210815 0)
(1.00119 0.00355905 0)
(1.00191 0.00415338 0)
(1.00351 0.00463377 0)
(1.00379 0.00479324 0)
(1.0042 0.00564346 0)
(1.00409 0.00648862 0)
(1.00567 0.00673942 0)
(1.00628 0.0066697 0)
(1.00724 0.00664787 0)
(1.00711 0.00702776 0)
(1.00806 0.00718684 0)
(1.00852 0.00729377 0)
(1.00964 0.00706211 0)
(1.00983 0.00710006 0)
(1.01051 0.00699595 0)
(1.01053 0.00711139 0)
(1.01096 0.00702471 0)
(0.999959 0.000121548 0)
(1.00028 0.00159088 0)
(1.00062 0.0020619 0)
(1.00123 0.00340807 0)
(1.00187 0.00401015 0)
(1.00336 0.00454575 0)
(1.00373 0.00469425 0)
(1.00427 0.00540847 0)
(1.00412 0.00619176 0)
(1.00552 0.00652203 0)
(1.00608 0.0065163 0)
(1.00715 0.00644543 0)
(1.00711 0.00673591 0)
(1.00802 0.00685015 0)
(1.00837 0.00699808 0)
(1.00946 0.00681039 0)
(1.00968 0.00683677 0)
(1.0104 0.00671423 0)
(1.01044 0.00678567 0)
(1.01082 0.00671293 0)
(0.99997 0.000112457 0)
(1.00026 0.00156767 0)
(1.00063 0.00201888 0)
(1.00126 0.0032556 0)
(1.00184 0.00385329 0)
(1.00323 0.00444388 0)
(1.00367 0.00460253 0)