/*--------------------------------*- C++ -*----------------------------------*\
| =========                 |                                                 |
| \\      /  F ield         | OpenFOAM: The Open Source CFD Toolbox           |
|  \\    /   O peration     | Version:  v1906                                 |
|   \\  /    A nd           | Web:      www.OpenFOAM.com                      |
|    \\/     M anipulation  |                                                 |
\*---------------------------------------------------------------------------*/
FoamFile
{
    version     2.0;
    format      ascii;
    class       volVectorField;
    location    "9.3";
    object      U;
}
// * * * * * * * * * * * * * * * * * * * * * * * * * * * * * * * * * * * * * //

dimensions      [0 1 -1 0 0 0 0];


internalField   nonuniform List<vector> 
9600
(
(0.792689 -0.00424872 0)
(1.14474 0.000174795 0)
(0.930816 -0.00794441 0)
(1.1262 0.0230582 0)
(0.932392 0.00591693 0)
(1.00587 -0.0140201 0)
(0.923391 -0.0373735 0)
(1.04906 -0.0257763 0)
(1.01184 -0.0163705 0)
(1.11417 -0.00357197 0)
(1.01658 0.0121942 0)
(1.09154 0.0184472 0)
(1.03495 0.0133597 0)
(1.07445 0.00447998 0)
(1.04683 0.00304364 0)
(1.07643 -0.0239829 0)
(1.00172 -0.00507856 0)
(1.06613 -0.0405676 0)
(0.903596 -0.00822519 0)
(1.06599 -0.0419501 0)
(0.812825 -0.00389805 0)
(1.12886 -0.000918619 0)
(0.947847 -0.00798544 0)
(1.11653 0.0230214 0)
(0.967903 0.00714423 0)
(0.987085 -0.0137492 0)
(0.925005 -0.0381506 0)
(1.01647 -0.026991 0)
(1.01268 -0.0175006 0)
(1.09729 -0.00370868 0)
(1.03043 0.0123914 0)
(1.07266 0.018289 0)
(1.05748 0.013604 0)
(1.05709 0.00423901 0)
(1.07552 0.0028327 0)
(1.0516 -0.0227469 0)
(1.05154 -0.0049708 0)
(1.0158 -0.0379171 0)
(0.994185 -0.00679481 0)
(0.974088 -0.0418818 0)
(0.846802 -0.00360597 0)
(1.09807 -0.00164341 0)
(0.972325 -0.0080044 0)
(1.10044 0.0230066 0)
(0.998009 0.00825771 0)
(0.978806 -0.0131808 0)
(0.9342 -0.0381741 0)
(0.986102 -0.0279053 0)
(1.01125 -0.0185205 0)
(1.07257 -0.00396654 0)
(1.043 0.0127028 0)
(1.06082 0.0179615 0)
(1.0661 0.0136982 0)
(1.06651 0.00401105 0)
(1.07488 0.00284203 0)
(1.06785 -0.0219141 0)
(1.0473 -0.00486529 0)
(1.0347 -0.0351474 0)
(1.00177 -0.00874721 0)
(0.993334 -0.0339984 0)
(0.887199 -0.00330456 0)
(1.0605 -0.00239433 0)
(0.994545 -0.00814409 0)
(1.08148 0.0228485 0)
(1.01498 0.00927753 0)
(0.9784 -0.0124847 0)
(0.941586 -0.0381563 0)
(0.964226 -0.0287962 0)
(1.00263 -0.0195897 0)
(1.04868 -0.00449116 0)
(1.0457 0.0127449 0)
(1.05786 0.0176111 0)
(1.07151 0.0134677 0)
(1.07495 0.00383441 0)
(1.08239 0.00286325 0)
(1.06901 -0.0212471 0)
(1.05247 -0.00383228 0)
(1.03054 -0.0340538 0)
(1.00523 -0.00728492 0)
(0.988634 -0.0315056 0)
(0.925979 -0.0029896 0)
(1.02695 -0.00307372 0)
(1.00835 -0.00841068 0)
(1.06202 0.0226673 0)
(1.02125 0.0101675 0)
(0.983461 -0.0117073 0)
(0.950017 -0.0378137 0)
(0.953218 -0.0294427 0)
(0.990541 -0.0206271 0)
(1.02842 -0.00521081 0)
(1.04105 0.012418 0)
(1.05769 0.0171235 0)
(1.07694 0.0130501 0)
(1.08234 0.00363032 0)
(1.08834 0.00289807 0)
(1.07201 -0.020063 0)
(1.05316 -0.00344046 0)
(1.03295 -0.0316671 0)
(1.00636 -0.00691932 0)
(0.991346 -0.0283355 0)
(0.957223 -0.00269355 0)
(1.00436 -0.00360327 0)
(1.01269 -0.00874318 0)
(1.04367 0.0225599 0)
(1.02218 0.0108673 0)
(0.991075 -0.010979 0)
(0.958991 -0.0373455 0)
(0.950215 -0.0298817 0)
(0.980459 -0.0215558 0)
(1.01224 -0.0060496 0)
(1.03402 0.0117745 0)
(1.05797 0.016392 0)
(1.082 0.0124827 0)
(1.08867 0.00339945 0)
(1.09225 0.00312701 0)
(1.07304 -0.0188786 0)
(1.05255 -0.00278485 0)
(1.03243 -0.0294649 0)
(1.00675 -0.00666312 0)
(0.99221 -0.0252564 0)
(0.978636 -0.00244809 0)
(0.993449 -0.00395466 0)
(1.00985 -0.00906372 0)
(1.02783 0.0224707 0)
(1.02206 0.0113396 0)
(0.999713 -0.0103309 0)
(0.96791 -0.0367307 0)
(0.952124 -0.0301178 0)
(0.975136 -0.0223226 0)
(1.00094 -0.00698043 0)
(1.02856 0.0108444 0)
(1.05933 0.0153919 0)
(1.08668 0.0117842 0)
(1.09334 0.00321288 0)
(1.09386 0.00347357 0)
(1.07177 -0.017458 0)
(1.05025 -0.00212479 0)
(1.03069 -0.0271173 0)
(1.00643 -0.00645324 0)
(0.992806 -0.0221144 0)
(0.991141 -0.00226733 0)
(0.990753 -0.00413966 0)
(1.00316 -0.00932184 0)
(1.01575 0.0223117 0)
(1.02308 0.0115833 0)
(1.00871 -0.00976276 0)
(0.976156 -0.0360332 0)
(0.95666 -0.0302258 0)
(0.974288 -0.022947 0)
(0.995036 -0.00795957 0)
(1.02698 0.00966119 0)
(1.06263 0.0141716 0)
(1.09083 0.0110319 0)
(1.09564 0.00310766 0)
(1.09268 0.00399639 0)
(1.0681 -0.0158674 0)
(1.04629 -0.00146045 0)
(1.02772 -0.0247318 0)
(1.00542 -0.00630398 0)
(0.992883 -0.0190769 0)
(0.997353 -0.00214709 0)
(0.99196 -0.00418639 0)
(0.995436 -0.00949962 0)
(1.00807 0.0220265 0)
(1.0255 0.0116261 0)
(1.01733 -0.0092504 0)
(0.983597 -0.0352553 0)
(0.962286 -0.0302482 0)
(0.976006 -0.0234661 0)
(0.993538 -0.0089971 0)
(1.02914 0.00826798 0)
(1.0672 0.0128316 0)
(1.09332 0.0103188 0)
(1.09461 0.00316475 0)
(1.08815 0.00468624 0)
(1.0621 -0.0141176 0)
(1.04074 -0.000821423 0)
(1.02373 -0.0223318 0)
(1.00373 -0.00623244 0)
(0.992443 -0.0162163 0)
(1 -0.00207125 0)
(0.994123 -0.00412612 0)
(0.98853 -0.00961567 0)
(1.00442 0.0215898 0)
(1.02847 0.0115142 0)
(1.02458 -0.0087781 0)
(0.990274 -0.0343977 0)
(0.968031 -0.0302029 0)
(0.978205 -0.0239115 0)
(0.994005 -0.0101426 0)
(1.03238 0.00671088 0)
(1.07044 0.0114715 0)
(1.09225 0.00975144 0)
(1.08921 0.0034266 0)
(1.08002 0.0055057 0)
(1.05403 -0.0122597 0)
(1.03395 -0.000250988 0)
(1.01905 -0.0199724 0)
(1.00151 -0.00624413 0)
(0.991569 -0.0135916 0)
(1.00101 -0.00202398 0)
(0.996007 -0.00398537 0)
(0.983514 -0.00970015 0)
(1.00342 0.0210112 0)
(1.03068 0.011291 0)
(1.02946 -0.0083375 0)
(0.996107 -0.0334648 0)
(0.973356 -0.0300738 0)
(0.979602 -0.0242852 0)
(0.993809 -0.0113406 0)
(1.03308 0.0050702 0)
(1.06913 0.0101849 0)
(1.08585 0.00938758 0)
(1.07894 0.00388693 0)
(1.06855 0.00638175 0)
(1.04443 -0.0103758 0)
(1.02649 0.000204424 0)
(1.01409 -0.0177096 0)
(0.999021 -0.00631638 0)
(0.990419 -0.0112443 0)
(1.00139 -0.00199443 0)
(0.997382 -0.00379101 0)
(0.980905 -0.00976926 0)
(1.00323 0.0203195 0)
(1.03114 0.0110179 0)
(1.03153 -0.00793461 0)
(1.00089 -0.0324885 0)
(0.978002 -0.0298429 0)
(0.979974 -0.0245354 0)
(0.991463 -0.0125415 0)
(1.0287 0.00343797 0)
(1.06127 0.00903535 0)
(1.07359 0.00921836 0)
(1.06442 0.00448256 0)
(1.05473 0.00720256 0)
(1.03417 -0.00856695 0)
(1.01902 0.000522023 0)
(1.00929 -0.0156002 0)
(0.996568 -0.00641719 0)
(0.989189 -0.00920931 0)
(1.00154 -0.0019763 0)
(0.99831 -0.00357257 0)
(0.980646 -0.0098193 0)
(1.00242 0.0195686 0)
(1.02958 0.0107292 0)
(1.03113 -0.0075932 0)
(1.00443 -0.0315068 0)
(0.98186 -0.0295122 0)
(0.979798 -0.0246133 0)
(0.987134 -0.0136431 0)
(1.0192 0.00192964 0)
(1.04732 0.00804312 0)
(1.0568 0.00917165 0)
(1.04745 0.00510271 0)
(1.04011 0.00785056 0)
(1.02428 -0.00692916 0)
(1.01223 0.000674428 0)
(1.00505 -0.0136839 0)
(0.994443 -0.00651285 0)
(0.988074 -0.00749843 0)
(1.00164 -0.00196429 0)
(0.998875 -0.00335826 0)
(0.982095 -0.00983537 0)
(1.00051 0.018818 0)
(1.02655 0.0104275 0)
(1.02915 -0.00733597 0)
(1.00672 -0.0305532 0)
(0.984906 -0.0291048 0)
(0.97967 -0.0245169 0)
(0.982131 -0.0145239 0)
(1.0068 0.000646294 0)
(1.03008 0.00719789 0)
(1.0383 0.00914292 0)
(1.03053 0.00564579 0)
(1.02646 0.00824084 0)
(1.01565 -0.00552655 0)
(1.00659 0.000629682 0)
(1.0016 -0.0119783 0)
(0.992825 -0.00656978 0)
(0.987211 -0.0061059 0)
(1.00171 -0.00195674 0)
(0.999175 -0.0031592 0)
(0.984301 -0.00980613 0)
(0.997888 0.0181011 0)
(1.02298 0.0101189 0)
(1.02662 -0.00716111 0)
(1.00797 -0.0296463 0)
(0.987183 -0.0286552 0)
(0.979886 -0.0242575 0)
(0.977866 -0.0151377 0)
(0.994588 -0.000367488 0)
(1.01324 0.00647602 0)
(1.02121 0.00904845 0)
(1.01591 0.00604365 0)
(1.01515 0.00834329 0)
(1.00882 -0.00437927 0)
(1.00233 0.00043458 0)
(0.999011 -0.0104882 0)
(0.991755 -0.00656226 0)
(0.986663 -0.00500496 0)
(1.00178 -0.00195074 0)
(0.999331 -0.00298199 0)
(0.986455 -0.00972888 0)
(0.995262 0.017434 0)
(1.01965 0.00980702 0)
(1.02426 -0.00706045 0)
(1.00847 -0.0287822 0)
(0.988801 -0.0281836 0)
(0.980402 -0.0238699 0)
(0.975059 -0.015496 0)
(0.984867 -0.00111717 0)
(0.999582 0.00585372 0)
(1.00768 0.00883952 0)
(1.00485 0.00627204 0)
(1.00677 0.00818579 0)
(1.00388 -0.00346585 0)
(0.999358 0.000167317 0)
(0.997192 -0.0091982 0)
(0.991162 -0.00647417 0)
(0.986423 -0.0041542 0)
(1.00182 -0.00194437 0)
(0.999436 -0.00282917 0)
(0.988153 -0.00960246 0)
(0.993157 0.0168104 0)
(1.01695 0.00949173 0)
(1.02235 -0.00702328 0)
(1.00853 -0.0279466 0)
(0.989916 -0.0276988 0)
(0.981019 -0.0233947 0)
(0.973645 -0.0156502 0)
(0.978383 -0.00165452 0)
(0.990097 0.00531066 0)
(0.998323 0.00851174 0)
(0.997397 0.00635412 0)
(1.00113 0.00783193 0)
(1.00057 -0.00275316 0)
(0.997428 -0.000120638 0)
(0.995981 -0.00807977 0)
(0.99093 -0.00630682 0)
(0.986434 -0.00350912 0)
(1.00181 -0.00193783 0)
(0.999527 -0.00269499 0)
(0.98935 -0.00943059 0)
(0.991742 0.0162066 0)
(1.0149 0.00917117 0)
(1.02087 -0.00703457 0)
(1.00835 -0.0271213 0)
(0.99069 -0.0272081 0)
(0.981585 -0.0228591 0)
(0.973175 -0.0156517 0)
(0.974668 -0.00204006 0)
(0.984298 0.00482779 0)
(0.992508 0.00809571 0)
(0.992832 0.00632852 0)
(0.997603 0.00735977 0)
(0.998482 -0.00219765 0)
(0.996239 -0.000390531 0)
(0.995208 -0.00710882 0)
(0.990944 -0.00607766 0)
(0.986633 -0.00301431 0)
(1.00175 -0.00192978 0)
(0.999599 -0.00257573 0)
(0.990169 -0.00922194 0)
(0.990946 0.0156075 0)
(1.01337 0.00884903 0)
(1.0197 -0.00708112 0)
(1.00804 -0.026296 0)
(0.991252 -0.0267055 0)
(0.982055 -0.0222844 0)
(0.973222 -0.0155487 0)
(0.972828 -0.00233123 0)
(0.981089 0.00439223 0)
(0.989172 0.00761391 0)
(0.990224 0.00622548 0)
(0.995497 0.00682339 0)
(0.997206 -0.00175186 0)
(0.995544 -0.000624975 0)
(0.994738 -0.00626921 0)
(0.991119 -0.00579959 0)
(0.986962 -0.00262261 0)
(1.00164 -0.00191921 0)
(0.999633 -0.00246861 0)
(0.990739 -0.00898359 0)
(0.990616 0.0150072 0)
(1.01222 0.00852936 0)
(1.01874 -0.00715292 0)
(1.00767 -0.0254677 0)
(0.991683 -0.0261867 0)
(0.982449 -0.0216902 0)
(0.973534 -0.0153738 0)
(0.972105 -0.00257777 0)
(0.979479 0.00399551 0)
(0.987379 0.00709094 0)
(0.988823 0.00606663 0)
(0.994269 0.0062679 0)
(0.996448 -0.00140348 0)
(0.995162 -0.000805772 0)
(0.994468 -0.00553848 0)
(0.991394 -0.00549409 0)
(0.987381 -0.00230474 0)
(1.00152 -0.00190488 0)
(0.999621 -0.00237264 0)
(0.991148 -0.00872015 0)
(0.99061 0.0143972 0)
(1.01134 0.00821678 0)
(1.01792 -0.00724143 0)
(1.00724 -0.0246363 0)
(0.992027 -0.0256542 0)
(0.982811 -0.0210887 0)
(0.973999 -0.015144 0)
(0.972035 -0.00280395 0)
(0.978816 0.00362518 0)
(0.986512 0.00654385 0)
(0.988144 0.00586243 0)
(0.993566 0.00572152 0)
(0.996005 -0.00114229 0)
(0.994973 -0.000931248 0)
(0.994324 -0.00488714 0)
(0.991722 -0.00518334 0)
(0.987856 -0.00204599 0)
(1.00139 -0.00188524 0)
(0.999565 -0.00228738 0)
(0.991455 -0.00843844 0)
(0.990807 0.0137734 0)
(1.01064 0.00791204 0)
(1.01717 -0.00733768 0)
(1.00679 -0.0238028 0)
(0.992301 -0.0251025 0)
(0.983178 -0.0204863 0)
(0.974567 -0.0148781 0)
(0.972363 -0.00301945 0)
(0.978721 0.00326822 0)
(0.986203 0.00597638 0)
(0.987894 0.00561741 0)
(0.993168 0.00520182 0)
(0.995743 -0.000941576 0)
(0.994894 -0.00101898 0)
(0.994248 -0.00430086 0)
(0.992066 -0.00486254 0)
(0.988362 -0.00184269 0)
(1.00127 -0.00185962 0)
(0.99948 -0.00221197 0)
(0.991702 -0.00814148 0)
(0.991112 0.0131335 0)
(1.01006 0.00761374 0)
(1.01646 -0.00743824 0)
(1.00632 -0.0229667 0)
(0.99251 -0.0245293 0)
(0.983572 -0.019892 0)
(0.975204 -0.0145797 0)
(0.972943 -0.00323782 0)
(0.978965 0.00292148 0)
(0.986225 0.00541042 0)
(0.987887 0.0053336 0)
(0.992936 0.00471837 0)
(0.995572 -0.00079165 0)
(0.994868 -0.00107283 0)
(0.994203 -0.00377638 0)
(0.9924 -0.00453025 0)
(0.988877 -0.001684 0)
(1.00118 -0.00182728 0)
(0.999381 -0.00214629 0)
(0.99193 -0.00782995 0)
(0.991452 0.0124723 0)
(1.00954 0.00732472 0)
(1.01575 -0.00753535 0)
(1.00587 -0.0221327 0)
(0.992657 -0.0239352 0)
(0.984002 -0.0193153 0)
(0.975881 -0.0142541 0)
(0.973677 -0.00346412 0)
(0.979401 0.00257636 0)
(0.986427 0.00485182 0)
(0.988003 0.0050141 0)
(0.992781 0.00427048 0)
(0.995438 -0.000685343 0)
(0.994863 -0.0010985 0)
(0.994163 -0.00330776 0)
(0.99271 -0.00420025 0)
(0.989387 -0.00156202 0)
(1.00112 -0.00178939 0)
(0.999287 -0.00208762 0)
(0.992173 -0.00750699 0)
(0.991778 0.0117935 0)
(1.00907 0.00704363 0)
(1.01503 -0.0076227 0)
(1.00543 -0.021304 0)
(0.99275 -0.0233196 0)
(0.984466 -0.0187566 0)
(0.976575 -0.0139082 0)
(0.974493 -0.0036946 0)
(0.979931 0.00222424 0)
(0.986713 0.0043077 0)
(0.98817 0.0046678 0)
(0.992652 0.00386235 0)
(0.995312 -0.000616548 0)
(0.994865 -0.00110449 0)
(0.99412 -0.00288309 0)
(0.99299 -0.00388533 0)
(0.989884 -0.00147872 0)
(1.00106 -0.00174495 0)
(0.999214 -0.00203963 0)
(0.992456 -0.00717195 0)
(0.992065 0.0111026 0)
(1.00862 0.00676724 0)
(1.01429 -0.00769594 0)
(1.00503 -0.0204843 0)
(0.992807 -0.0226779 0)
(0.984955 -0.0182192 0)
(0.977268 -0.0135467 0)
(0.97534 -0.00392058 0)
(0.980497 0.00186434 0)
(0.987027 0.00378915 0)
(0.988349 0.00430754 0)
(0.992525 0.00348582 0)
(0.995185 -0.00057989 0)
(0.994872 -0.00109838 0)
(0.994069 -0.00248469 0)
(0.993237 -0.00358528 0)
(0.990368 -0.00144617 0)
(1.001 -0.00169465 0)
(0.999172 -0.00200195 0)
(0.992786 -0.00682701 0)
(0.992314 0.010404 0)
(1.0082 0.00649456 0)
(1.01355 -0.00774874 0)
(1.00467 -0.0196772 0)
(0.99285 -0.0220117 0)
(0.985457 -0.0177042 0)
(0.977951 -0.0131763 0)
(0.976185 -0.00413893 0)
(0.981063 0.00149608 0)
(0.987336 0.00329043 0)
(0.988521 0.00393326 0)
(0.992389 0.00313812 0)
(0.995053 -0.000562977 0)
(0.994886 -0.00110129 0)
(0.994015 -0.00210909 0)
(0.993447 -0.00328302 0)
(0.990841 -0.00146098 0)
(1.00092 -0.00163999 0)
(0.999158 -0.00197252 0)
(0.993159 -0.00647219 0)
(0.992535 0.00969798 0)
(1.00779 0.00621832 0)
(1.01281 -0.00777974 0)
(1.00436 -0.0188864 0)
(0.992905 -0.0213238 0)
(0.985962 -0.0172073 0)
(0.978622 -0.0127971 0)
(0.977004 -0.00435096 0)
(0.981611 0.00112181 0)
(0.987626 0.00280761 0)
(0.988681 0.00354269 0)
(0.992244 0.00283295 0)
(0.994913 -0.000560272 0)
(0.994911 -0.00112299 0)
(0.993964 -0.00177475 0)
(0.993619 -0.00296075 0)
(0.991297 -0.0015102 0)
(1.00083 -0.00157955 0)
(0.999165 -0.00195579 0)
(0.993559 -0.00610816 0)
(0.992749 0.00899035 0)
(1.00739 0.0059372 0)
(1.01209 -0.00778485 0)
(1.00408 -0.0181171 0)
(0.992992 -0.0206085 0)
(0.986466 -0.0167297 0)
(0.979283 -0.0124175 0)
(0.977789 -0.00454322 0)
(0.982131 0.000743162 0)
(0.987891 0.00234474 0)
(0.988829 0.00314663 0)
(0.992092 0.0025425 0)
(0.994762 -0.000566133 0)
(0.994948 -0.0011619 0)
(0.993925 -0.00150371 0)
(0.99375 -0.00261357 0)
(0.991731 -0.00157163 0)
(1.00072 -0.00151457 0)
(0.999182 -0.00194943 0)
(0.993966 -0.00573978 0)
(0.99297 0.00829054 0)
(1.007 0.00565187 0)
(1.01138 -0.00776231 0)
(1.00382 -0.0173708 0)
(0.993117 -0.019872 0)
(0.986967 -0.0162651 0)
(0.979943 -0.0120427 0)
(0.978544 -0.00470891 0)
(0.982627 0.000364142 0)
(0.988138 0.0019026 0)
(0.988963 0.00275591 0)
(0.991938 0.00225822 0)
(0.994603 -0.000575564 0)
(0.994994 -0.00120758 0)
(0.993907 -0.001302 0)
(0.993845 -0.00226052 0)
(0.992134 -0.00161564 0)
(1.00061 -0.00144494 0)
(0.999197 -0.00195252 0)
(0.994364 -0.00536996 0)
(0.993209 0.00760208 0)
(1.00661 0.0053576 0)
(1.0107 -0.00770969 0)
(1.00357 -0.0166508 0)
(0.993277 -0.0191198 0)
(0.987468 -0.0157981 0)
(0.980609 -0.0116752 0)
(0.97928 -0.0048531 0)
(0.983107 -9.36347e-06 0)
(0.988378 0.00147003 0)
(0.989094 0.00236346 0)
(0.991792 0.00199682 0)
(0.994437 -0.00057875 0)
(0.995047 -0.00125665 0)
(0.993916 -0.00116037 0)
(0.99391 -0.00192484 0)
(0.9925 -0.00162077 0)
(1.00051 -0.00137064 0)
(0.999204 -0.00196405 0)
(0.99474 -0.00500439 0)
(0.993471 0.00692904 0)
(1.0062 0.00505442 0)
(1.01002 -0.0076243 0)
(1.00331 -0.015958 0)
(0.993463 -0.0183505 0)
(0.987971 -0.0153353 0)
(0.981288 -0.011315 0)
(0.980011 -0.00497227 0)
(0.983583 -0.000373001 0)
(0.988626 0.00105514 0)
(0.989232 0.00197056 0)
(0.991663 0.001753 0)
(0.994269 -0.000576411 0)
(0.995106 -0.00130762 0)
(0.993956 -0.00106763 0)
(0.993956 -0.00162061 0)
(0.992819 -0.00157257 0)
(1.00043 -0.0012922 0)
(0.999203 -0.00198098 0)
(0.995091 -0.00464937 0)
(0.993754 0.00627788 0)
(1.00578 0.00473387 0)
(1.00935 -0.00751186 0)
(1.00305 -0.0152935 0)
(0.993663 -0.0175706 0)
(0.98848 -0.014873 0)
(0.981983 -0.0109686 0)
(0.980748 -0.00506744 0)
(0.984067 -0.000724615 0)
(0.988891 0.00066344 0)
(0.989389 0.00157878 0)
(0.99156 0.00151648 0)
(0.994103 -0.000576651 0)
(0.995168 -0.00134523 0)
(0.994029 -0.00102209 0)
(0.993994 -0.00136309 0)
(0.993085 -0.00148281 0)
(1.00036 -0.0012111 0)
(0.999197 -0.00200016 0)
(0.99542 -0.00430525 0)
(0.994053 0.00565025 0)
(1.00535 0.00439861 0)
(1.00869 -0.00737013 0)
(1.00279 -0.0146553 0)
(0.993869 -0.0167897 0)
(0.988991 -0.0144051 0)
(0.982693 -0.0106447 0)
(0.981494 -0.00514433 0)
(0.984564 -0.00105802 0)
(0.989177 0.000296143 0)
(0.98957 0.00119231 0)
(0.991489 0.00127506 0)
(0.993947 -0.000571399 0)
(0.995231 -0.0013681 0)
(0.994132 -0.00101879 0)
(0.994036 -0.00116501 0)
(0.993299 -0.00136322 0)
(1.00031 -0.00112621 0)
(0.999189 -0.00202049 0)
(0.995732 -0.00397394 0)
(0.994363 0.00504494 0)
(1.00491 0.00405608 0)
(1.00803 -0.00720008 0)
(1.00253 -0.0140407 0)
(0.994074 -0.0160128 0)
(0.989503 -0.0139271 0)
(0.983415 -0.0103306 0)
(0.982249 -0.00520304 0)
(0.985077 -0.00136644 0)
(0.989483 -5.56106e-05 0)
(0.989774 0.000821756 0)
(0.991454 0.00103502 0)
(0.993803 -0.00056193 0)
(0.995289 -0.00138137 0)
(0.99426 -0.00103687 0)
(0.994092 -0.00102624 0)
(0.993469 -0.00122647 0)
(1.00027 -0.00103949 0)
(0.999184 -0.00203792 0)
(0.996031 -0.0036598 0)
(0.994679 0.00446997 0)
(1.00448 0.00370109 0)
(1.00737 -0.00701063 0)
(1.00227 -0.0134485 0)
(0.994277 -0.0152455 0)
(0.990013 -0.0134316 0)
(0.984143 -0.0100188 0)
(0.983008 -0.00525007 0)
(0.9856 -0.00165574 0)
(0.989805 -0.000390513 0)
(0.990003 0.000468398 0)
(0.991453 0.000790306 0)
(0.993674 -0.000558832 0)
(0.995343 -0.00138375 0)
(0.994406 -0.00106345 0)
(0.994167 -0.000938707 0)
(0.993605 -0.00109848 0)
(1.00023 -0.000953518 0)
(0.999184 -0.00205043 0)
(0.996321 -0.00336027 0)
(0.994995 0.00392305 0)
(1.00406 0.00333708 0)
(1.00672 -0.00679782 0)
(1.00202 -0.0128742 0)
(0.994479 -0.0145008 0)
(0.990519 -0.0129285 0)
(0.98487 -0.00971238 0)
(0.983765 -0.00528824 0)
(0.98613 -0.00193523 0)
(0.990141 -0.000694753 0)
(0.990251 0.000126265 0)
(0.991486 0.000546217 0)
(0.993564 -0.000566997 0)
(0.995392 -0.00138041 0)
(0.994564 -0.00109436 0)
(0.994261 -0.00089022 0)
(0.993725 -0.00100438 0)
(1.00019 -0.000865117 0)
(0.999193 -0.00206187 0)
(0.996604 -0.00307741 0)
(0.995307 0.00340415 0)
(1.00364 0.00296621 0)
(1.00609 -0.00656212 0)
(1.00179 -0.0123165 0)
(0.994681 -0.0137852 0)
(0.991018 -0.0124224 0)
(0.985593 -0.0094145 0)
(0.984515 -0.00531204 0)
(0.986665 -0.00220011 0)
(0.990486 -0.000981716 0)
(0.990517 -0.000198337 0)
(0.991553 0.000311254 0)
(0.993474 -0.00059033 0)
(0.995436 -0.0013737 0)
(0.994731 -0.00112822 0)
(0.99437 -0.000855502 0)
(0.993836 -0.000949133 0)
(1.00016 -0.000779452 0)
(0.99921 -0.0020635 0)
(0.99688 -0.00281661 0)
(0.995612 0.0029212 0)
(1.00325 0.00258385 0)
(1.00547 -0.00631079 0)
(1.00156 -0.011765 0)
(0.994884 -0.0130974 0)
(0.991511 -0.0119156 0)
(0.986308 -0.00911713 0)
(0.985256 -0.00531617 0)
(0.987201 -0.00244996 0)
(0.99084 -0.00125997 0)
(0.990801 -0.000495322 0)
(0.991652 8.11701e-05 0)
(0.993406 -0.000624982 0)
(0.995478 -0.00136313 0)
(0.994906 -0.00117436 0)
(0.994491 -0.000826694 0)
(0.993941 -0.000911231 0)
(1.00013 -0.000695989 0)
(0.999234 -0.0020572 0)
(0.99715 -0.00257951 0)
(0.995909 0.00247573 0)
(1.00288 0.00219547 0)
(1.00488 -0.00604625 0)
(1.00135 -0.0112116 0)
(0.995089 -0.0124407 0)
(0.991997 -0.0114181 0)
(0.987014 -0.008816 0)
(0.985983 -0.00529742 0)
(0.987734 -0.00268127 0)
(0.991202 -0.00153162 0)
(0.991102 -0.000769118 0)
(0.991782 -0.000138991 0)
(0.993361 -0.000661225 0)
(0.995516 -0.00135426 0)
(0.995088 -0.00123339 0)
(0.994629 -0.000813798 0)
(0.994038 -0.0008686 0)
(1.00009 -0.000615913 0)
(0.999266 -0.0020395 0)
(0.997414 -0.00237509 0)
(0.996197 0.00207066 0)
(1.00253 0.00180962 0)
(1.00431 -0.00577992 0)
(1.00116 -0.0106557 0)
(0.995295 -0.0118156 0)
(0.992478 -0.0109361 0)
(0.987715 -0.00851693 0)
(0.986696 -0.0052556 0)
(0.988261 -0.00288076 0)
(0.991571 -0.00179793 0)
(0.991421 -0.00103132 0)
(0.991945 -0.0003416 0)
(0.993341 -0.000701113 0)
(0.995549 -0.00134958 0)
(0.995278 -0.00129851 0)
(0.994789 -0.000829467 0)
(0.994131 -0.000818819 0)
(1.00007 -0.000542188 0)
(0.999303 -0.00200649 0)
(0.997672 -0.00220443 0)
(0.996475 0.00171251 0)
(1.00219 0.00142904 0)
(1.00376 -0.00553013 0)
(1.00097 -0.0100946 0)
(0.9955 -0.0112062 0)
(0.992953 -0.0104684 0)
(0.988409 -0.00822809 0)
(0.987397 -0.00519709 0)
(0.988778 -0.00304102 0)
(0.991946 -0.00205934 0)
(0.991761 -0.00129327 0)
(0.992141 -0.000528789 0)
(0.993344 -0.000744495 0)
(0.995578 -0.00134528 0)
(0.99547 -0.00136859 0)
(0.994975 -0.000876998 0)
(0.994229 -0.00076864 0)
(1.00004 -0.000473301 0)
(0.999343 -0.00196025 0)
(0.997924 -0.00206811 0)
(0.996744 0.00140612 0)
(1.00188 0.00106442 0)
(1.00325 -0.00530268 0)
(1.0008 -0.00953373 0)
(0.995702 -0.0106049 0)
(0.993418 -0.0100187 0)
(0.989097 -0.00795578 0)
(0.98809 -0.0051155 0)
(0.989285 -0.00315991 0)
(0.992321 -0.00230097 0)
(0.992125 -0.00155351 0)
(0.992374 -0.000713249 0)
(0.993372 -0.000788965 0)
(0.9956 -0.00134102 0)
(0.995659 -0.00144337 0)
(0.995192 -0.000951075 0)
(0.994341 -0.00073028 0)
(1.00001 -0.000414552 0)
(0.999386 -0.00188788 0)
(0.998171 -0.00197027 0)
(0.997003 0.00113726 0)
(1.00159 0.000717403 0)
(1.00277 -0.0051046 0)
(1.00064 -0.0089835 0)
(0.995901 -0.010008 0)
(0.993873 -0.00958429 0)
(0.989781 -0.00770332 0)
(0.988777 -0.00501953 0)
(0.989781 -0.00324008 0)
(0.992695 -0.00250702 0)
(0.99251 -0.00180643 0)
(0.992647 -0.000899397 0)
(0.99343 -0.000846167 0)
(0.995617 -0.00132964 0)
(0.995842 -0.00151362 0)
(0.99544 -0.00105333 0)
(0.994481 -0.00071884 0)
(0.999988 -0.000365288 0)
(0.999428 -0.00179526 0)
(0.998411 -0.00190153 0)
(0.997253 0.000894251 0)
(1.00132 0.000404787 0)
(1.00233 -0.00493996 0)
(1.00051 -0.00846732 0)
(0.996096 -0.00941449 0)
(0.994312 -0.00915068 0)
(0.99046 -0.00746723 0)
(0.989461 -0.00492273 0)
(0.990269 -0.00327674 0)
(0.993063 -0.00266567 0)
(0.992915 -0.00204451 0)
(0.99296 -0.00109629 0)
(0.993522 -0.000920372 0)
(0.995632 -0.00132261 0)
(0.996006 -0.00156853 0)
(0.995713 -0.00117786 0)
(0.994664 -0.000751892 0)
(0.999965 -0.000325862 0)
(0.999468 -0.00168159 0)
(0.998642 -0.00185704 0)
(0.997496 0.000660425 0)
(1.00106 0.000145681 0)
(1.00192 -0.00479218 0)
(1.00039 -0.00798978 0)
(0.99629 -0.00882338 0)
(0.994733 -0.00869828 0)
(0.991132 -0.00723754 0)
(0.990147 -0.00483373 0)
(0.99075 -0.00328044 0)
(0.99342 -0.00277386 0)
(0.993329 -0.00225769 0)
(0.993312 -0.00131149 0)
(0.993653 -0.00101313 0)
(0.995654 -0.0013332 0)
(0.996153 -0.00160804 0)
(0.995996 -0.00131484 0)
(0.994902 -0.000846158 0)
(0.999945 -0.000295946 0)
(0.999505 -0.00155219 0)
(0.99886 -0.00182767 0)
(0.997732 0.000422574 0)
(1.00082 -4.10942e-05 0)
(1.00153 -0.00463518 0)
(1.00031 -0.00755293 0)
(0.996487 -0.00824375 0)
(0.995133 -0.00822225 0)
(0.991789 -0.00699968 0)
(0.990834 -0.00476572 0)
(0.99123 -0.0032788 0)
(0.993765 -0.00283598 0)
(0.993742 -0.00243669 0)
(0.993698 -0.00153299 0)
(0.993828 -0.00112978 0)
(0.99569 -0.00135604 0)
(0.996281 -0.00163891 0)
(0.996273 -0.00143167 0)
(0.995196 -0.000990195 0)
(0.999926 -0.000274214 0)
(0.999537 -0.00141807 0)
(0.999063 -0.00179463 0)
(0.997967 0.000177238 0)
(1.00059 -0.000169052 0)
(1.00117 -0.00444588 0)
(1.00025 -0.00716119 0)
(0.996694 -0.00770168 0)
(0.995513 -0.00772242 0)
(0.992425 -0.00673992 0)
(0.991521 -0.00471352 0)
(0.991717 -0.0032874 0)
(0.994099 -0.00287013 0)
(0.994145 -0.00257992 0)
(0.994107 -0.00175467 0)
(0.994047 -0.00127518 0)
(0.995749 -0.00139388 0)
(0.996402 -0.00167146 0)
(0.996535 -0.00151998 0)
(0.995525 -0.0011566 0)
(0.999908 -0.00026015 0)
(0.999564 -0.00127903 0)
(0.999246 -0.00175474 0)
(0.998201 -7.85792e-05 0)
(1.00038 -0.000264607 0)
(1.00083 -0.00422121 0)
(1.0002 -0.00679389 0)
(0.996916 -0.00720463 0)
(0.995876 -0.00720104 0)
(0.993031 -0.0064501 0)
(0.992198 -0.00466749 0)
(0.992211 -0.00331522 0)
(0.994426 -0.00290011 0)
(0.994532 -0.002694 0)
(0.994529 -0.00196412 0)
(0.994311 -0.00143327 0)
(0.995837 -0.0014432 0)
(0.996521 -0.00170623 0)
(0.996777 -0.00159223 0)
(0.995864 -0.00130531 0)
(0.999891 -0.000251909 0)
(0.999587 -0.00114288 0)
(0.999405 -0.00170061 0)
(0.998434 -0.000344391 0)
(1.0002 -0.000344513 0)
(1.0005 -0.00395558 0)
(1.00017 -0.00644078 0)
(0.997156 -0.0067638 0)
(0.996227 -0.00669176 0)
(0.993597 -0.00612063 0)
(0.992855 -0.00460236 0)
(0.992712 -0.00334769 0)
(0.994754 -0.00292827 0)
(0.994905 -0.00278263 0)
(0.994958 -0.0021499 0)
(0.994616 -0.00159657 0)
(0.995957 -0.00150617 0)
(0.996645 -0.00174306 0)
(0.997009 -0.00166664 0)
(0.996191 -0.00141919 0)
(0.999874 -0.00024478 0)
(0.999606 -0.00102217 0)
(0.999537 -0.00162633 0)
(0.998663 -0.000611894 0)
(1.00006 -0.000431973 0)
(1.00019 -0.00363652 0)
(1.00014 -0.00607016 0)
(0.997413 -0.00638402 0)
(0.996576 -0.00623348 0)
(0.994129 -0.00576994 0)
(0.993484 -0.00451403 0)
(0.993214 -0.00338458 0)
(0.995083 -0.0029608 0)
(0.995263 -0.00284728 0)
(0.995388 -0.00230496 0)
(0.994956 -0.00175173 0)
(0.996111 -0.00157274 0)
(0.996771 -0.0017694 0)
(0.997237 -0.00174578 0)
(0.996502 -0.00150472 0)
(0.999858 -0.000236551 0)
(0.999622 -0.000918159 0)
(0.999642 -0.00153494 0)
(0.998885 -0.000869202 0)
(0.999948 -0.000543221 0)
(0.99989 -0.00329934 0)
(1.0001 -0.00565926 0)
(0.997673 -0.00603613 0)
(0.996929 -0.00581321 0)
(0.994628 -0.00540376 0)
(0.994074 -0.00438462 0)
(0.993711 -0.00341404 0)
(0.995419 -0.00300327 0)
(0.995614 -0.0029092 0)
(0.995815 -0.00244811 0)
(0.995324 -0.00190938 0)
(0.996299 -0.00165978 0)
(0.996897 -0.00179041 0)
(0.997458 -0.00182373 0)
(0.996803 -0.0015934 0)
(0.999841 -0.000226703 0)
(0.999638 -0.00083575 0)
(0.999716 -0.00141562 0)
(0.999093 -0.00109965 0)
(0.999882 -0.000682092 0)
(0.999624 -0.0029798 0)
(1.00004 -0.00522707 0)
(0.997931 -0.00572398 0)
(0.997288 -0.00546097 0)
(0.995102 -0.00504818 0)
(0.994622 -0.00419463 0)
(0.994187 -0.00339103 0)
(0.995751 -0.0030173 0)
(0.995953 -0.00293985 0)
(0.996235 -0.00255932 0)
(0.995714 -0.00205077 0)
(0.996528 -0.00175709 0)
(0.997031 -0.00180705 0)
(0.997665 -0.00188435 0)
(0.997104 -0.00169854 0)
(0.999824 -0.000207644 0)
(0.999657 -0.000789705 0)
(0.999766 -0.00127665 0)
(0.999282 -0.00129728 0)
(0.999857 -0.000847872 0)
(0.999392 -0.00266156 0)
(0.999962 -0.00474775 0)
(0.998169 -0.00539648 0)
(0.997656 -0.00518857 0)
(0.995571 -0.00474575 0)
(0.995138 -0.00399911 0)
(0.994639 -0.00334164 0)
(0.996079 -0.00303212 0)
(0.99628 -0.00296509 0)
(0.996641 -0.00265868 0)
(0.996114 -0.00218078 0)
(0.996791 -0.00185861 0)
(0.997177 -0.00182679 0)
(0.997845 -0.0019055 0)
(0.997395 -0.00179073 0)
(0.999806 -0.000174967 0)
(0.99968 -0.00076398 0)
(0.999794 -0.00113073 0)
(0.999445 -0.00145808 0)
(0.999877 -0.0010492 0)
(0.999213 -0.00239835 0)
(0.999871 -0.00425379 0)
(0.998367 -0.00503058 0)
(0.998012 -0.00493947 0)
(0.996032 -0.00448068 0)
(0.995625 -0.00378931 0)
(0.99506 -0.00323462 0)
(0.996391 -0.00301378 0)
(0.996594 -0.00297835 0)
(0.997036 -0.00274703 0)
(0.996526 -0.00231369 0)
(0.997092 -0.00197751 0)
(0.997358 -0.00188234 0)
(0.998013 -0.00192564 0)
(0.997671 -0.00188249 0)
(0.999787 -0.000159852 0)
(0.999706 -0.000729487 0)
(0.999805 -0.000964273 0)
(0.999575 -0.00154157 0)
(0.99993 -0.00121929 0)
(0.999092 -0.00215946 0)
(0.999781 -0.0037524 0)
(0.99853 -0.00464234 0)
(0.998354 -0.00470671 0)
(0.996499 -0.00430296 0)
(0.996105 -0.00362374 0)
(0.995456 -0.00311643 0)
(0.996675 -0.00295545 0)
(0.996878 -0.00296497 0)
(0.997401 -0.0028015 0)
(0.996929 -0.00242198 0)
(0.997407 -0.00207853 0)
(0.997563 -0.00193629 0)
(0.998167 -0.0019294 0)
(0.99791 -0.00192848 0)
(0.99977 -0.000103889 0)
(0.999748 -0.000803762 0)
(0.999804 -0.000877681 0)
(0.999676 -0.00158823 0)
(1.00002 -0.00137703 0)
(0.999037 -0.00195989 0)
(0.999694 -0.00326962 0)
(0.998644 -0.00421088 0)
(0.998652 -0.00443083 0)
(0.996952 -0.0041404 0)
(0.996587 -0.00348915 0)
(0.995847 -0.00299327 0)
(0.996947 -0.00286043 0)
(0.997143 -0.00292149 0)
(0.99775 -0.00283843 0)
(0.997336 -0.002529 0)
(0.997752 -0.00219608 0)
(0.997808 -0.00201681 0)
(0.998337 -0.00196447 0)
(0.998122 -0.00196306 0)
(0.999751 -5.79366e-05 0)
(0.999782 -0.000835193 0)
(0.999819 -0.000787123 0)
(0.999765 -0.00153622 0)
(1.00013 -0.00152486 0)
(0.999046 -0.0018523 0)
(0.999629 -0.00284974 0)
(0.998727 -0.00379157 0)
(0.998907 -0.00415582 0)
(0.99738 -0.003994 0)
(0.997066 -0.00342393 0)
(0.996235 -0.00290412 0)
(0.997197 -0.00276619 0)
(0.997365 -0.00283834 0)
(0.998048 -0.00283507 0)
(0.997712 -0.00260335 0)
(0.9981 -0.00230205 0)
(0.998074 -0.00209517 0)
(0.998526 -0.00200348 0)
(0.998314 -0.00197319 0)
(0.999737 -2.05528e-05 0)
(0.999832 -0.000798714 0)
(0.999834 -0.000646493 0)
(0.999819 -0.0013892 0)
(1.00024 -0.00162329 0)
(0.999116 -0.00184413 0)
(0.999595 -0.00252073 0)
(0.998774 -0.00339657 0)
(0.99911 -0.00385691 0)
(0.997767 -0.0038207 0)
(0.99754 -0.00337088 0)
(0.996644 -0.00284003 0)
(0.997462 -0.00267488 0)
(0.997578 -0.00273608 0)
(0.998315 -0.00279446 0)
(0.998066 -0.00265428 0)
(0.998452 -0.00240674 0)
(0.998368 -0.00219451 0)
(0.998744 -0.00207455 0)
(0.9985 -0.00200743 0)
(0.999721 4.12408e-05 0)
(0.999881 -0.000806296 0)
(0.999866 -0.000571725 0)
(0.999844 -0.00126233 0)
(1.00032 -0.00164073 0)
(0.999228 -0.00187173 0)
(0.999617 -0.00227667 0)
(0.998828 -0.00302552 0)
(0.999282 -0.00354262 0)
(0.99811 -0.00362956 0)
(0.997986 -0.00331972 0)
(0.997052 -0.00282889 0)
(0.99772 -0.00261097 0)
(0.99776 -0.00264481 0)
(0.998519 -0.0027252 0)
(0.998356 -0.0026619 0)
(0.998772 -0.00248351 0)
(0.998658 -0.00228245 0)
(0.998978 -0.00215054 0)
(0.998694 -0.0020493 0)
(0.999708 8.05452e-05 0)
(0.999932 -0.000752139 0)
(0.999907 -0.000507975 0)
(0.999868 -0.00112995 0)
(1.00039 -0.00157667 0)