/*--------------------------------*- C++ -*----------------------------------*\
| =========                 |                                                 |
| \\      /  F ield         | OpenFOAM: The Open Source CFD Toolbox           |
|  \\    /   O peration     | Version:  v1812                                 |
|   \\  /    A nd           | Web:      www.OpenFOAM.com                      |
|    \\/     M anipulation  |                                                 |
\*---------------------------------------------------------------------------*/
FoamFile
{
    version     2.0;
    format      ascii;
    class       volScalarField;
    location    "3.6";
    object      p;
}
// * * * * * * * * * * * * * * * * * * * * * * * * * * * * * * * * * * * * * //

dimensions      [0 2 -2 0 0 0 0];


internalField   nonuniform List<scalar> 
9600
(
-9.06671e-11
-0.0020674
-0.00175078
-0.00175886
-0.00171899
-0.00366951
-0.00127711
0.000326348
-9.88797e-05
-0.0010327
-0.00115639
-0.0049946
-0.00574702
-0.00377048
-0.00422088
-0.00249487
-0.00219445
-0.000251042
0.00125525
0.00649274
2.57147e-07
-0.00206965
-0.00174693
-0.00177019
-0.00171973
-0.00363755
-0.00128617
0.000309158
-9.10249e-05
-0.00107031
-0.00115183
-0.00501382
-0.0057361
-0.00376307
-0.00421498
-0.00248899
-0.00217939
-0.000269968
0.00129301
0.00602058
-2.65396e-07
-0.00207215
-0.00174371
-0.00178494
-0.00171603
-0.00361248
-0.00130091
0.000290303
-8.59114e-05
-0.00112313
-0.00114753
-0.00502666
-0.0057187
-0.00374749
-0.00419712
-0.00249342
-0.00216282
-0.000300884
0.00130509
0.00551916
-1.91461e-06
-0.00207498
-0.0017428
-0.00180139
-0.00171177
-0.00358982
-0.00131543
0.000269482
-9.16498e-05
-0.00119074
-0.00115317
-0.00502411
-0.00569834
-0.00372561
-0.00417454
-0.00251106
-0.00214747
-0.000345814
0.00128499
0.00504924
-4.62635e-06
-0.00207865
-0.00174308
-0.0018191
-0.00170737
-0.0035671
-0.00132933
0.000244458
-0.00010467
-0.00127365
-0.00116431
-0.0050036
-0.0056748
-0.00370182
-0.00415036
-0.00253798
-0.00213652
-0.000400352
0.00124285
0.00459475
-8.25213e-06
-0.0020835
-0.00174389
-0.00183726
-0.00170289
-0.00354371
-0.00134292
0.000214636
-0.000121539
-0.00136792
-0.00117462
-0.00496622
-0.00564796
-0.00367875
-0.00412454
-0.00257062
-0.00212967
-0.000458739
0.00117853
0.0041477
-1.26134e-05
-0.00208977
-0.00174506
-0.00185519
-0.00169836
-0.00351907
-0.00135646
0.000179441
-0.000140093
-0.00146824
-0.00118265
-0.00491529
-0.00561789
-0.00365685
-0.00409664
-0.00260608
-0.00212633
-0.000518797
0.00108876
0.00370889
-1.75531e-05
-0.0020976
-0.00174641
-0.00187259
-0.00169376
-0.00349276
-0.00137038
0.000138188
-0.00015842
-0.00157073
-0.00118926
-0.00485373
-0.0055846
-0.0036357
-0.00406732
-0.00264157
-0.00212789
-0.000580925
0.000975709
0.00328285
-2.29681e-05
-0.00210699
-0.00174787
-0.00188944
-0.00168904
-0.00346466
-0.0013852
9.0937e-05
-0.000175482
-0.00167317
-0.00119539
-0.00478372
-0.00554835
-0.00361497
-0.00403777
-0.00267496
-0.00213684
-0.000645458
0.000845475
0.00286705
-2.88038e-05
-0.00211779
-0.00174947
-0.00190588
-0.00168416
-0.00343494
-0.00140135
3.83942e-05
-0.000191378
-0.00177438
-0.00120188
-0.00470693
-0.00550986
-0.00359412
-0.00400925
-0.00270544
-0.00215475
-0.000712024
0.00070219
0.00245527
-3.50318e-05
-0.00212984
-0.00175121
-0.00192204
-0.00167916
-0.00340384
-0.00141907
-1.84523e-05
-0.00020688
-0.00187384
-0.00120946
-0.00462493
-0.00547015
-0.00357211
-0.00398334
-0.00273265
-0.00218169
-0.000781925
0.000548031
0.00204366
-4.16353e-05
-0.0021429
-0.00175308
-0.00193811
-0.00167418
-0.00337154
-0.00143849
-7.8589e-05
-0.000222981
-0.00197125
-0.00121893
-0.0045391
-0.00543029
-0.00354798
-0.00396148
-0.0027563
-0.00221693
-0.000858826
0.000386178
0.00163234
-4.86076e-05
-0.00215676
-0.00175507
-0.00195422
-0.00166938
-0.00333814
-0.00145972
-0.000141086
-0.000240657
-0.00206634
-0.00123116
-0.00445038
-0.00539147
-0.00352104
-0.00394439
-0.00277671
-0.00225935
-0.000946681
0.000221003
0.00122276
-5.59577e-05
-0.00217125
-0.00175715
-0.00197046
-0.00166493
-0.00330365
-0.00148285
-0.000205172
-0.000260772
-0.00215876
-0.00124702
-0.00435937
-0.00535479
-0.00349063
-0.00393257
-0.00279502
-0.00230709
-0.00104931
5.62619e-05
0.000815527
-6.37129e-05
-0.0021862
-0.00175935
-0.00198687
-0.00166104
-0.00326802
-0.00150802
-0.000270267
-0.000284039
-0.00224809
-0.0012673
-0.00426644
-0.00532121
-0.00345628
-0.00392589
-0.00281349
-0.00235769
-0.00117132
-0.000106806
0.000414486
-7.19172e-05
-0.00220151
-0.00176171
-0.00200342
-0.00165791
-0.00323116
-0.00153539
-0.000335948
-0.000311036
-0.00233392
-0.0012928
-0.00417152
-0.00529165
-0.00341793
-0.00392327
-0.00283577
-0.0024073
-0.00131565
-0.000270868
2.70881e-05
-8.06283e-05
-0.00221708
-0.00176433
-0.00202005
-0.00165576
-0.00319294
-0.00156521
-0.00040187
-0.000342298
-0.0024158
-0.00132439
-0.00407438
-0.00526679
-0.00337604
-0.00392305
-0.00286592
-0.00245166
-0.001482
-0.000439079
-0.000339475
-8.99154e-05
-0.00223282
-0.00176733
-0.00203665
-0.00165481
-0.00315327
-0.00159774
-0.000467751
-0.000378349
-0.00249326
-0.00136275
-0.00397489
-0.00524709
-0.00333145
-0.00392274
-0.00290818
-0.00248839
-0.00166906
-0.000564839
-0.000677389
-9.98577e-05
-0.00224863
-0.00177086
-0.0020531
-0.0016553
-0.00311201
-0.00163325
-0.000533384
-0.000419583
-0.002566
-0.00140838
-0.00387301
-0.00523276
-0.00328582
-0.00391887
-0.00296689
-0.00251721
-0.00187401
-0.000756473
-0.000980738
-0.000110546
-0.00226442
-0.00177509
-0.00206922
-0.00165751
-0.00306904
-0.00167206
-0.000598566
-0.00046628
-0.0026338
-0.00146159
-0.00376893
-0.00522316
-0.00324193
-0.00390775
-0.00304496
-0.00254027
-0.0020895
-0.000977181
-0.00124837
-0.000122083
-0.00228007
-0.0017802
-0.00208482
-0.00166173
-0.00302424
-0.0017145
-0.000663131
-0.000518719
-0.00269628
-0.00152243
-0.00366343
-0.005217
-0.00320309
-0.00388619
-0.00314369
-0.00256213
-0.00230561
-0.00122965
-0.00148502
-0.000134586
-0.00229544
-0.00178639
-0.00209972
-0.0016683
-0.00297746
-0.00176081
-0.000727085
-0.000576966
-0.00275291
-0.00159052
-0.00355764
-0.00521307
-0.00317261
-0.00385195
-0.00326244
-0.00258902
-0.00251316
-0.00151432
-0.00169871
-0.000148188
-0.00231036
-0.00179389
-0.00211367
-0.00167756
-0.00292861
-0.00181117
-0.000790525
-0.00064085
-0.00280282
-0.00166504
-0.00345287
-0.00521033
-0.00315338
-0.00380385
-0.00339861
-0.00262848
-0.00270446
-0.00182788
-0.00190088
-0.000163037
-0.00232464
-0.00180295
-0.00212643
-0.00168982
-0.00287771
-0.00186572
-0.00085361
-0.000710034
-0.002853
-0.00174488
-0.00335041
-0.00520765
-0.00314821
-0.00374158
-0.00354852
-0.00268812
-0.002873
-0.00216412
-0.00210549
-0.000179305
-0.00233805
-0.00181385
-0.00213778
-0.00170542
-0.00282478
-0.00192445
-0.00091677
-0.000783836
-0.00290131
-0.00182889
-0.00325163
-0.00520369
-0.00315975
-0.00366642
-0.00370704
-0.00277494
-0.00301509
-0.00251358
-0.00232708
-0.000197178
-0.00235034
-0.00182687
-0.00214747
-0.00172468
-0.00276994
-0.00198711
-0.000980693
-0.000861503
-0.00294874
-0.00191592
-0.0031584
-0.00519723
-0.00318988
-0.00358066
-0.00386789
-0.00289478
-0.00313098
-0.00286372
-0.00257874
-0.000216866
-0.0023612
-0.00184232
-0.0021553
-0.00174781
-0.00271351
-0.00205326
-0.00104633
-0.000941739
-0.00299645
-0.00200536
-0.00306816
-0.00518767
-0.00324041
-0.00348696
-0.00402419
-0.0030517
-0.00322462
-0.00320137
-0.00287008
-0.000238617
-0.00237032
-0.0018605
-0.00216114
-0.00177496
-0.00265592
-0.00212216
-0.00111502
-0.00102282
-0.00304517
-0.00209731
-0.00298215
-0.00517433
-0.00331311
-0.00338952
-0.00416866
-0.00324724
-0.00330447
-0.00351217
-0.00320341
-0.000262711
-0.00237732
-0.0018817
-0.00216491
-0.00180618
-0.00259779
-0.00219273
-0.00118837
-0.00110325
-0.00309506
-0.00219227
-0.00290097
-0.00515602
-0.00340891
-0.00329458
-0.00429356
-0.00347867
-0.00338338
-0.00377972
-0.00357053
-0.000289426
-0.00238185
-0.00190617
-0.00216656
-0.00184142
-0.00253995
-0.0022638
-0.00126797
-0.00118163
-0.00314604
-0.00229146
-0.00282472
-0.00513145
-0.00352811
-0.00320886
-0.00439245
-0.00373941
-0.00347636
-0.00399087
-0.00395151
-0.000319068
-0.00238355
-0.00193405
-0.00216618
-0.00188042
-0.00248354
-0.00233345
-0.0013552
-0.00125765
-0.00319714
-0.00239615
-0.00275412
-0.00509909
-0.00366999
-0.00313897
-0.00446101
-0.00402199
-0.00359343
-0.00414212
-0.00431862
-0.00035197
-0.0023821
-0.00196541
-0.00216405
-0.00192265
-0.00242942
-0.00239933
-0.00145105
-0.00133168
-0.00324661
-0.00250779
-0.00269125
-0.00505648
-0.00383283
-0.00309299
-0.00449607
-0.0043165
-0.00374907
-0.00424533
-0.00464407
-0.000388436
-0.00237721
-0.00200017
-0.00216063
-0.00196745
-0.00237996
-0.0024596
-0.00155609
-0.00140411
-0.00329258
-0.00262815
-0.00263877
-0.00500124
-0.00401332
-0.003079
-0.00449822
-0.0046091
-0.00395249
-0.00432232
-0.00490374
-0.000428749
-0.00236865
-0.00203806
-0.00215661
-0.00201385
-0.00233697
-0.00251347
-0.00167005
-0.00147631
-0.00333303
-0.0027579
-0.00260023
-0.00493215
-0.00420578
-0.00310342
-0.00447182
-0.0048854
-0.00420299
-0.00439568
-0.00508751
-0.000473123
-0.0023564
-0.00207856
-0.00215276
-0.00206069
-0.00230194
-0.00256033
-0.00179197
-0.00155032
-0.00336628
-0.00289628
-0.00258013
-0.00484913
-0.00440357
-0.00317101
-0.00442398
-0.00513307
-0.00449201
-0.00448643
-0.00520396
-0.000521731
-0.00234071
-0.00212087
-0.00214972
-0.0021072
-0.00227606
-0.00260013
-0.00192038
-0.00162867
-0.00339129
-0.00304172
-0.00258292
-0.00475336
-0.00459886
-0.00328397
-0.00436482
-0.00534231
-0.00480766
-0.00460908
-0.00527311
-0.000574669
-0.00232198
-0.00216418
-0.0021481
-0.0021525
-0.00226032
-0.00263318
-0.00205379
-0.00171384
-0.00340799
-0.00319223
-0.00261265
-0.0046472
-0.00478331
-0.00344205
-0.00430515
-0.00550528
-0.00513802
-0.00477189
-0.00531713
-0.000631901
-0.00230093
-0.00220778
-0.00214811
-0.00219556
-0.00225544
-0.00265966
-0.00219014
-0.00180898
-0.00341776
-0.00334407
-0.00267195
-0.00453524
-0.00494869
-0.00364112
-0.00425745
-0.00561752
-0.00546945
-0.00497895
-0.00535683
-0.000693378
-0.00227826
-0.0022509
-0.00215388
-0.00223557
-0.00226232
-0.0026801
-0.00232617
-0.0019169
-0.0034229
-0.00349242
-0.00276152
-0.00442447
-0.00508819
-0.00387241
-0.00423589
-0.00568005
-0.00578538
-0.00523096
-0.00541093
-0.000758975
-0.00225466
-0.00229299
-0.00215824
-0.00227124
-0.00228143
-0.00269859
-0.00245851
-0.00203785
-0.00342614
-0.0036331
-0.00287932
-0.00432255
-0.00519778
-0.00412679
-0.00425183
-0.00569901
-0.0060707
-0.00552316
-0.00549575
-0.000828517
-0.00223069
-0.0023338
-0.00216592
-0.00230146
-0.00231265
-0.00271881
-0.00258435
-0.00217038
-0.00343186
-0.00376301
-0.00301972
-0.00423649
-0.00527655
-0.00439593
-0.00431265
-0.00568457
-0.0063106
-0.00584242
-0.00562485
-0.000901736
-0.00220701
-0.00237301
-0.00217798
-0.00232493
-0.00235534
-0.00274583
-0.00270303
-0.00231166
-0.00344388
-0.00387995
-0.00317614
-0.00417278
-0.00532667
-0.00466862
-0.00442195
-0.00565429
-0.00649266
-0.00616791
-0.0058065
-0.000978241
-0.00218421
-0.00241047
-0.00219577
-0.0023402
-0.00240701
-0.00278448
-0.00281499
-0.0024602
-0.00346474
-0.00398297
-0.00334267
-0.00413481
-0.00535146
-0.00493317
-0.00457936
-0.005629
-0.00661509
-0.00647809
-0.00603793
-0.00105779
-0.00216235
-0.00244571
-0.00222073
-0.0023477
-0.00246064
-0.00283688
-0.00292589
-0.00261297
-0.00349501
-0.0040735
-0.00351523
-0.00412363
-0.00535578
-0.00517949
-0.0047781
-0.00562362
-0.00668716
-0.00675353
-0.00630438
-0.00114002
-0.00214184
-0.00247781
-0.00225461
-0.00235243
-0.00251989
-0.00290418
-0.00303438
-0.00276161
-0.00353355
-0.0041568
-0.00369171
-0.00413993
-0.00534601
-0.0053995
-0.00500815
-0.00565106
-0.00672311
-0.00698153
-0.00658506
-0.00122438
-0.00212318
-0.00250646
-0.00230044
-0.00235809
-0.00257189
-0.00298037
-0.00314118
-0.00290474
-0.00358112
-0.0042367
-0.00387114
-0.00418352
-0.00532808
-0.00558758
-0.00525733
-0.00571936
-0.00673888
-0.00715773
-0.0068591
-0.0013105
-0.00210724
-0.0025315
-0.00235805
-0.00236751
-0.00261617
-0.00306184
-0.00325205
-0.00304605
-0.00363623
-0.00431286
-0.00405217
-0.00425411
-0.00530838
-0.00574119
-0.00551326
-0.00583045
-0.00675153
-0.00728507
-0.00710874
-0.00139796
-0.00209517
-0.00255115
-0.00242657
-0.00238675
-0.00265249
-0.00314377
-0.00336799
-0.00318753
-0.00369632
-0.00438386
-0.00423249
-0.00435207
-0.00529466
-0.00586066
-0.00576256
-0.00597918
-0.0067763
-0.00737321
-0.00732205
-0.00148583
-0.00208814
-0.0025648
-0.00250472
-0.00242037
-0.00268186
-0.00322048
-0.00348814
-0.00333164
-0.00376129
-0.00444857
-0.00440836
-0.00447558
-0.00529621
-0.00595085
-0.00599281
-0.00615525
-0.00682361
-0.00743564
-0.00749426
-0.00157306
-0.00208736
-0.00257267
-0.00258895
-0.00247519
-0.00271011
-0.00328725
-0.00360863
-0.00348034
-0.00383301
-0.00450691
-0.00457588
-0.00462007
-0.00532057
-0.00601918
-0.00619563
-0.00634654
-0.00689742
-0.00748584
-0.00762753
-0.00165878
-0.00209352
-0.00257582
-0.00267587
-0.00255273
-0.00274339
-0.00334131
-0.00372374
-0.00363396
-0.00391552
-0.0045608
-0.00473065
-0.00477955
-0.00536979
-0.00607495
-0.00636911
-0.0065415
-0.00699667
-0.00753562
-0.00772981
-0.00174239
-0.00210727
-0.00257639
-0.00276219
-0.00265289
-0.00278714
-0.00338241
-0.0038288
-0.00379157
-0.00401212
-0.00461318
-0.00486891
-0.00494611
-0.0054436
-0.00612848
-0.00651666
-0.00673079
-0.00711648
-0.00759346
-0.00781057
-0.00182345
-0.0021299
-0.00257721
-0.00284308
-0.00277133
-0.00284749
-0.00341419
-0.00392019
-0.00394937
-0.0041238
-0.00466961
-0.0049911
-0.00511167
-0.00553931
-0.00618713
-0.0066425
-0.00690703
-0.00724893
-0.00766383
-0.00787887
-0.00190185
-0.00216261
-0.00258139
-0.00291359
-0.00289995
-0.0029299
-0.00344518
-0.00399664
-0.00410173
-0.00424882
-0.0047358
-0.00510101
-0.00526995
-0.00565092
-0.00625407
-0.00675119
-0.00706697
-0.00738664
-0.0077477
-0.00794425
-0.00197802
-0.00220486
-0.00259271
-0.00297221
-0.00303025
-0.00303518
-0.00348487
-0.00405877
-0.00424269
-0.00438398
-0.00481464
-0.00520352
-0.00541939
-0.00577126
-0.00632958
-0.00684807
-0.00721087
-0.00752427
-0.00784228
-0.00801383
-0.00205239
-0.0022557
-0.00261368
-0.00302046
-0.00315524
-0.00316142
-0.00354056
-0.00410986
-0.00436797
-0.00452419
-0.0049068
-0.00530321
-0.00556018
-0.00589621
-0.00641285
-0.00693713
-0.00733883
-0.00765779
-0.00794339
-0.00808995
-0.00212534
-0.00231326
-0.00264615
-0.00306296
-0.00327043
-0.00330175
-0.00361638
-0.00415749
-0.00447646
-0.00466225
-0.00501067
-0.00540371
-0.005693
-0.00602333
-0.00650316
-0.00702128
-0.00745133
-0.00778338
-0.00804728
-0.00817132
-0.00219754
-0.00237545
-0.00269053
-0.00310568
-0.00337389
-0.00344704
-0.00371258
-0.0042106
-0.00457008
-0.00479176
-0.00512197
-0.00550773
-0.00581989
-0.00614981
-0.00659923
-0.00710312
-0.00755062
-0.00789819
-0.00815049
-0.00825557
-0.00227005
-0.0024416
-0.00274577
-0.00315315
-0.00346609
-0.00358967
-0.00382725
-0.00427545
-0.00465308
-0.00491012
-0.00523447
-0.00561454
-0.00594362
-0.00627456
-0.00669941
-0.00718484
-0.00763964
-0.00800113
-0.00824941
-0.00834023
-0.0023438
-0.00251077
-0.00281004
-0.00320807
-0.00355026
-0.00372499
-0.00395467
-0.00435517
-0.00473215
-0.00501779
-0.00534363
-0.00572055
-0.00606443
-0.00639874
-0.00680227
-0.00726672
-0.00772024
-0.00809231
-0.0083415
-0.00842331
-0.00241956
-0.00258275
-0.00288124
-0.00327162
-0.00363148
-0.00385149
-0.00408689
-0.00444934
-0.00481378
-0.0051162
-0.00544749
-0.00582314
-0.00617988
-0.00652111
-0.00690776
-0.00734942
-0.00779459
-0.00817247
-0.00842488
-0.00850198
-0.00249801
-0.00265779
-0.0029574
-0.0033436
-0.00371391
-0.00396982
-0.0042178
-0.00455518
-0.00490252
-0.00520936
-0.00554421
-0.00592085
-0.00628809
-0.00663791
-0.00701478
-0.0074347
-0.00786549
-0.00824303
-0.00849835
-0.00857333
-0.00257955
-0.00273635
-0.00303741
-0.00342304
-0.00380009
-0.00408176
-0.00434461
-0.0046673
-0.00499844
-0.00530269
-0.00563436
-0.00601123
-0.00638845
-0.00674624
-0.00711846
-0.00752185
-0.00793552
-0.00830722
-0.00856351
-0.0086371
-0.00266434
-0.00281882
-0.00312113
-0.00350831
-0.00389093
-0.00419069
-0.00446687
-0.00478084
-0.00509917
-0.00539859
-0.00572197
-0.0060931
-0.00647856
-0.00684547
-0.00721528
-0.00760675
-0.00800427
-0.00836677
-0.00862236
-0.0086949
-0.00275247
-0.00290547
-0.00320886
-0.00359774
-0.00398601
-0.00429961
-0.00458517
-0.00489336
-0.00520204
-0.00549521
-0.00580953
-0.00616958
-0.00655669
-0.00693316
-0.00730322
-0.00768514
-0.00806857
-0.00841979
-0.00867381
-0.00874743
-0.00284419
-0.00299654
-0.0033007
-0.0036908
-0.00408484
-0.0044096
-0.0047006
-0.00500378
-0.00530515
-0.00559123
-0.00589512
-0.00624304
-0.00662434
-0.00700612
-0.00737968
-0.00775434
-0.00812577
-0.00846451
-0.00871393
-0.00878981
-0.00293966
-0.00309212
-0.00339697
-0.00378744
-0.00418639
-0.00452093
-0.00481547
-0.00511208
-0.00540611
-0.00568615
-0.00597768
-0.00631129
-0.00668315
-0.00706387
-0.00744102
-0.00781204
-0.00817377
-0.00850119
-0.00874259
-0.0088182
-0.00303905
-0.00319171
-0.0034978
-0.00388829
-0.00429052
-0.00463302
-0.00493056
-0.00521941
-0.00550409
-0.00577836
-0.00605764
-0.00637179
-0.00672981
-0.00710521
-0.00748298
-0.00785429
-0.00821034
-0.00852949
-0.00876395
-0.00883761
-0.00314262
-0.0032955
-0.00360274
-0.00399334
-0.00439816
-0.00474634
-0.00504537
-0.00532678
-0.00560017
-0.00586621
-0.00613492
-0.00642648
-0.00676142
-0.00712548
-0.00749845
-0.00787044
-0.00822743
-0.00854344
-0.00877515
-0.00885068
-0.00325047
-0.00340372
-0.00371201
-0.00410247
-0.00450858
-0.00486167
-0.00516125
-0.00543457
-0.00569524
-0.00594894
-0.00620617
-0.00647818
-0.0067836
-0.00712446
-0.00748233
-0.00784539
-0.00820413
-0.00852612
-0.00876306
-0.00884495
-0.00336274
-0.00351489
-0.0038252
-0.00421635
-0.00462199
-0.00497872
-0.0052795
-0.0055441
-0.00579088
-0.00602887
-0.00626758
-0.00651948
-0.00679858
-0.00710592
-0.00743619
-0.00777809
-0.00812242
-0.0084466
-0.00870069
-0.00880541
-0.0034802
-0.00363139
-0.00394179
-0.00433331
-0.00473903
-0.00509859
-0.00540084
-0.00565811
-0.00588843
-0.0061087
-0.00632437
-0.00654464
-0.00679253
-0.00706473
-0.00735835
-0.00766408
-0.0079751
-0.00828214
-0.00854352
-0.00867915
-0.00360207
-0.00375325
-0.00406264
-0.00445339
-0.00485912
-0.00522139
-0.00552655
-0.00578111
-0.00599567
-0.00619263
-0.00637933
-0.00655374
-0.00675468
-0.00698988
-0.00724783
-0.00752185
-0.00779638
-0.00806091
-0.00827438
-0.00837711
-0.00372562
-0.00387649
-0.0041884
-0.00457787
-0.0049823
-0.00534522
-0.00565554
-0.00591634
-0.00613312
-0.00631516
-0.00645423
-0.00654029
-0.00661675
-0.00672473
-0.00688182
-0.00711366
-0.00743072
-0.00780587
-0.00817194
-0.00843598
-0.00385451
-0.00400606
-0.00431928
-0.00470521
-0.00510255
-0.00546149
-0.00577495
-0.00605227
-0.00629836
-0.0065296
-0.00674308
-0.00686746
-0.00684199
-0.00672184
-0.00660025
-0.00652296
-0.00646872
-0.00639835
-0.00632314
-0.00631029
-0.00399311
-0.0041454
-0.00445336
-0.00483542
-0.00522109
-0.00556954
-0.0058777
-0.00615721
-0.00639506
-0.00652075
-0.00650156
-0.00641248
-0.00634477
-0.00633632
-0.00640054
-0.0065081
-0.00662515
-0.00673032
-0.00682806
-0.00696225
-0.00414123
-0.00427981
-0.00458835
-0.0049716
-0.00536341
-0.00571563
-0.00598588
-0.00613344
-0.00619597
-0.00625193
-0.00633196
-0.00642519
-0.00653601
-0.00661643
-0.00663334
-0.0065734
-0.00643543
-0.00626286
-0.00610902
-0.00606153
-0.00432252
-0.00443684
-0.00467657
-0.00497405
-0.00528175
-0.00555606
-0.00578635
-0.00597769
-0.00611862
-0.00622113
-0.00632295
-0.00639662
-0.00647038
-0.00657817
-0.00673054
-0.00697244
-0.00730756
-0.00771646
-0.0081479
-0.00852085
-0.00453289
-0.00465696
-0.0048021
-0.00499427
-0.00523737
-0.00550401
-0.00577195
-0.00602096
-0.00621874
-0.00633985
-0.00644302
-0.00652511
-0.00655342
-0.00657575
-0.00656072
-0.00648102
-0.00635082
-0.00621064
-0.00612959
-0.00618077
-0.00466227
-0.00477465
-0.00489028
-0.0050327
-0.00523102
-0.00548271
-0.00574246
-0.00595622
-0.00611961
-0.00622235
-0.00631303
-0.00643124
-0.00652922
-0.00661757
-0.00670458
-0.00677067
-0.00681287
-0.00685431
-0.00693617
-0.00711485
0.00898159
0.00210859
-0.00621026
-0.0121971
-0.0139221
-0.013568
-0.012924
-0.012125
-0.0111537
-0.0102674
-0.00969715
-0.00947173
-0.0095527
-0.00982926
-0.0100098
-0.00991461
-0.00972454
-0.00965918
-0.00974037
-0.00989772
-0.0100222
-0.0100613
-0.0100939
-0.0101861
-0.0102979
-0.0103579
-0.0103508
-0.0103429
-0.0104043
-0.0105093
-0.0105818
-0.010608
-0.0106415
-0.0107195
-0.010816
-0.0108952
-0.0109649
-0.0110544
-0.0111542
-0.0112251
-0.0112718
-0.0113295
-0.0113921
-0.01143
-0.0114654
-0.0115387
-0.0116247
-0.0116952
-0.0117712
-0.0118628
-0.0119359
-0.0119749
-0.0120229
-0.0120828
-0.0121305
-0.0122043
-0.012307
-0.0123877
-0.0124573
-0.0125284
-0.0125786
-0.0126189
-0.0126814
-0.0127585
-0.0128381
-0.0129182
-0.0129975
-0.0130652
-0.0131326
-0.0132012
-0.0132712
-0.0133426
-0.0134232
-0.0135036
-0.0135847
-0.0136631
-0.0137442
-0.013823
-0.0139035
-0.0139822
-0.0140655
-0.0141518
-0.0142385
-0.0143249
-0.0144069
-0.0144951
-0.0145794
-0.0146718
-0.0147569
-0.0148457
-0.0149318
-0.0150211
-0.015113
-0.0152024
-0.015291
-0.0153875
-0.0154896
-0.0155573
-0.0158088
-0.0159942
0.00823641
0.00195955
-0.0061154
-0.0120425
-0.0138395
-0.013534
-0.0129066
-0.0121141
-0.0111452
-0.0102596
-0.00968954
-0.00946415
-0.00954554
-0.00982337
-0.0100053
-0.00991085
-0.00972088
-0.00965565
-0.0097371
-0.00989487
-0.0100198
-0.010059
-0.0100916
-0.0101839
-0.0102959
-0.0103562
-0.0103491
-0.0103413
-0.0104027
-0.0105079
-0.0105805
-0.0106068
-0.0106403
-0.0107184
-0.010815
-0.0108943
-0.010964
-0.0110536
-0.0111534
-0.0112244
-0.0112711
-0.0113288
-0.0113915
-0.0114295
-0.0114648
-0.0115382
-0.0116242
-0.0116947
-0.0117707
-0.0118623
-0.0119355
-0.0119745
-0.0120225
-0.0120825
-0.0121302
-0.0122039
-0.0123067
-0.0123874
-0.012457
-0.0125281
-0.0125783
-0.0126186
-0.0126811
-0.0127583
-0.0128379
-0.012918
-0.0129973
-0.013065
-0.0131323
-0.013201
-0.013271
-0.0133424
-0.013423
-0.0135034
-0.0135846
-0.0136629
-0.013744
-0.0138228
-0.0139034
-0.0139821
-0.0140654
-0.0141516
-0.0142383
-0.0143248
-0.0144068
-0.014495
-0.0145793
-0.0146717
-0.0147568
-0.0148456
-0.0149317
-0.015021
-0.0151129
-0.0152023
-0.015291
-0.0153874
-0.0154896
-0.0155573
-0.0158087
-0.0159943
0.00751256
0.00176044
-0.00596388
-0.0117747
-0.0136954
-0.013479
-0.0128779
-0.0120957
-0.0111325
-0.0102506
-0.00968304
-0.00945871
-0.00953982
-0.00981742
-0.00999994
-0.00990632
-0.00971709
-0.00965233
-0.00973401
-0.00989209
-0.0100175
-0.010057
-0.0100897
-0.0101821
-0.0102942
-0.0103546
-0.0103476
-0.0103397
-0.0104013
-0.0105066
-0.0105794
-0.0106057
-0.0106392
-0.0107174
-0.0108141
-0.0108935
-0.0109632
-0.0110528
-0.0111527
-0.0112238
-0.0112705
-0.0113283
-0.011391
-0.011429
-0.0114643
-0.0115377
-0.0116238
-0.0116943
-0.0117703
-0.011862
-0.0119352
-0.0119742
-0.0120222
-0.0120822
-0.0121299
-0.0122036
-0.0123064
-0.0123871
-0.0124568
-0.0125278
-0.012578
-0.0126183
-0.0126809
-0.0127581
-0.0128377
-0.0129178
-0.0129971
-0.0130648
-0.0131322
-0.0132008
-0.0132709
-0.0133422
-0.0134228
-0.0135033
-0.0135844
-0.0136628
-0.0137439
-0.0138227
-0.0139032
-0.013982
-0.0140653
-0.0141515
-0.0142382
-0.0143247
-0.0144067
-0.0144949
-0.0145792
-0.0146716
-0.0147567
-0.0148455
-0.0149316
-0.015021
-0.0151128
-0.0152022
-0.0152909
-0.0153873
-0.0154895
-0.0155572
-0.0158086
-0.0159944
0.00682563
0.00155165
-0.0057753
-0.0114283
-0.0134837
-0.013386
-0.0128241
-0.0120604
-0.0111104
-0.0102376
-0.00967646
-0.0094553
-0.00953563
-0.0098105
-0.00999177
-0.00989957
-0.00971267
-0.00964899
-0.00973032
-0.00988809
-0.010014
-0.0100545
-0.0100878
-0.0101803
-0.0102924
-0.0103528
-0.010346
-0.0103382
-0.0103998
-0.0105052
-0.010578
-0.0106045
-0.0106381
-0.0107163
-0.0108131
-0.0108926
-0.0109623
-0.011052
-0.011152
-0.0112232
-0.0112699
-0.0113277
-0.0113905
-0.0114284
-0.0114638
-0.0115372
-0.0116233
-0.0116939
-0.0117699
-0.0118616
-0.0119349
-0.0119739
-0.0120218
-0.0120818
-0.0121295
-0.0122033
-0.0123061
-0.0123869
-0.0124565
-0.0125276
-0.0125778
-0.0126181
-0.0126806
-0.0127578
-0.0128375
-0.0129176
-0.0129969
-0.0130646
-0.013132
-0.0132006
-0.0132707
-0.0133421
-0.0134227
-0.0135031
-0.0135843
-0.0136627
-0.0137438
-0.0138226
-0.0139031
-0.0139819
-0.0140652
-0.0141514
-0.0142381
-0.0143246
-0.0144066
-0.0144948
-0.0145791
-0.0146715
-0.0147566
-0.0148455
-0.0149315
-0.0150209
-0.0151128
-0.0152022
-0.0152908
-0.0153872
-0.0154894
-0.0155571
-0.0158084
-0.0159947
0.00615188
0.00133322
-0.00556957
-0.0110512
-0.0132375
-0.0132696
-0.0127521
-0.0120101
-0.0110783
-0.0102196
-0.00966879
-0.00945354
-0.00953312
-0.00980224
-0.00997961
-0.00988955
-0.00970756
-0.0096463
-0.00972642
-0.00988231
-0.0100084
-0.0100506
-0.0100856
-0.0101783
-0.0102899
-0.0103503
-0.010344
-0.0103367
-0.0103982
-0.0105033
-0.0105762
-0.010603
-0.0106367
-0.0107149
-0.0108117
-0.0108913
-0.0109613
-0.0110511
-0.0111511
-0.0112223
-0.0112691
-0.011327
-0.0113898
-0.0114278
-0.0114631
-0.0115366
-0.0116228
-0.0116934
-0.0117694
-0.0118612
-0.0119345
-0.0119735
-0.0120214
-0.0120815
-0.0121292
-0.0122029
-0.0123058
-0.0123866
-0.0124562
-0.0125273
-0.0125776
-0.0126178
-0.0126804
-0.0127576
-0.0128372
-0.0129173
-0.0129967
-0.0130644
-0.0131318
-0.0132004
-0.0132705
-0.0133419
-0.0134225
-0.013503
-0.0135841
-0.0136625
-0.0137436
-0.0138224
-0.013903
-0.0139817
-0.014065
-0.0141513
-0.014238
-0.0143245
-0.0144065
-0.0144947
-0.014579
-0.0146714
-0.0147565
-0.0148454
-0.0149315
-0.0150208
-0.0151127
-0.0152021
-0.0152907
-0.0153872
-0.0154894
-0.0155569
-0.0158082
-0.015995
0.00549221
0.001106
-0.00536815
-0.0106691
-0.0129761
-0.013144
-0.0126732
-0.0119517
-0.0110395
-0.0101977
-0.00966
-0.00945278
-0.00953162
-0.00979252
-0.00996376
-0.00987644
-0.00970193
-0.00964477
-0.00972308
-0.0098752
-0.0100003
-0.010045
-0.0100825
-0.0101758
-0.0102865
-0.0103468
-0.0103416
-0.0103352
-0.0103966
-0.0105011
-0.0105739
-0.0106011
-0.0106351
-0.0107131
-0.0108098
-0.0108897
-0.01096
-0.0110499
-0.0111499
-0.0112212
-0.0112682
-0.0113261
-0.0113889
-0.011427
-0.0114624
-0.0115359
-0.0116222
-0.0116928
-0.0117689
-0.0118607
-0.011934
-0.011973
-0.012021
-0.012081
-0.0121287
-0.0122025
-0.0123055
-0.0123863
-0.0124559
-0.012527
-0.0125773
-0.0126175
-0.0126801
-0.0127573
-0.012837
-0.0129171
-0.0129965
-0.0130642
-0.0131315
-0.0132002
-0.0132703
-0.0133417
-0.0134223
-0.0135028
-0.0135839
-0.0136623
-0.0137435
-0.0138223
-0.0139028
-0.0139816
-0.0140649
-0.0141512
-0.0142379
-0.0143244
-0.0144064
-0.0144945
-0.0145789
-0.0146713
-0.0147564
-0.0148453
-0.0149314
-0.0150207
-0.0151126
-0.015202
-0.0152906
-0.0153871
-0.0154893
-0.0155568
-0.015808
-0.0159953
0.00485681
0.000866335
-0.00518848
-0.010292
-0.0127023
-0.0130106
-0.0125907
-0.0118884
-0.0109956
-0.0101725
-0.00964985
-0.00945208
-0.0095303
-0.00978167
-0.00994544
-0.00986117
-0.00969589
-0.00964434
-0.00972076
-0.00986774
-0.0099908
-0.0100379
-0.0100786
-0.0101722
-0.0102817
-0.0103419
-0.0103384
-0.0103336
-0.0103948
-0.0104983
-0.0105711
-0.0105991
-0.0106335
-0.010711
-0.0108072
-0.0108874
-0.0109582
-0.0110482
-0.0111483
-0.0112198
-0.011267
-0.011325
-0.0113878
-0.0114259
-0.0114614
-0.0115351
-0.0116213
-0.0116921
-0.0117682
-0.0118601
-0.0119335
-0.0119725
-0.0120204
-0.0120805
-0.0121282
-0.012202
-0.0123051
-0.0123859
-0.0124555
-0.0125267
-0.0125769
-0.0126171
-0.0126797
-0.012757
-0.0128367
-0.0129168
-0.0129962
-0.0130639
-0.0131313
-0.0132
-0.01327
-0.0133414
-0.0134221
-0.0135026
-0.0135837
-0.0136621
-0.0137433
-0.0138221
-0.0139027
-0.0139814
-0.0140647
-0.014151
-0.0142377
-0.0143242
-0.0144062
-0.0144944
-0.0145787
-0.0146712
-0.0147563
-0.0148452
-0.0149313
-0.0150206
-0.0151125
-0.0152019
-0.0152906
-0.015387
-0.0154892
-0.0155566
-0.0158076
-0.0159957
0.00424973
0.000606674
-0.00503971
-0.00991963
-0.0124102
-0.0128656
-0.0125046
-0.0118218
-0.0109476
-0.0101441
-0.00963797
-0.00945074
-0.00952877
-0.00977017
-0.00992575
-0.00984455
-0.00968936
-0.0096444
-0.00971924
-0.00986055
-0.0099809
-0.0100302
-0.0100739
-0.0101676
-0.0102755
-0.0103356
-0.0103345
-0.0103319
-0.0103928
-0.0104949
-0.0105676
-0.010597
-0.010632
-0.0107087
-0.0108041
-0.0108846
-0.0109561
-0.0110461
-0.011146
-0.0112179
-0.0112656
-0.0113237
-0.0113864
-0.0114246
-0.0114603
-0.0115339
-0.0116202
-0.0116911
-0.0117674
-0.0118594
-0.0119328
-0.0119718
-0.0120198
-0.0120798
-0.0121276
-0.0122014
-0.0123046
-0.0123854
-0.0124551
-0.0125263
-0.0125765
-0.0126167
-0.0126793
-0.0127566
-0.0128363
-0.0129165
-0.012996
-0.0130636
-0.013131
-0.0131997
-0.0132698
-0.0133412
-0.0134218
-0.0135023
-0.0135835
-0.0136619
-0.0137431
-0.0138219
-0.0139025
-0.0139812
-0.0140646
-0.0141509
-0.0142376
-0.0143241
-0.0144061
-0.0144943
-0.0145786
-0.0146711
-0.0147562
-0.014845
-0.0149311
-0.0150205
-0.0151124
-0.0152018
-0.0152905
-0.0153869
-0.0154891
-0.0155565
-0.0158071
-0.0159961
0.00366798
0.000327582
-0.00491826
-0.0095471
-0.0120961
-0.0127073
-0.012416
-0.0117534
-0.0108964
-0.0101125
-0.00962396
-0.00944838
-0.00952696
-0.00975835
-0.00990525
-0.00982693
-0.00968219
-0.00964442
-0.00971805
-0.00985367
-0.00997109
-0.0100225
-0.0100689
-0.0101622
-0.0102679
-0.0103281
-0.0103299
-0.0103299
-0.0103905
-0.0104909
-0.0105635
-0.0105946
-0.0106306
-0.0107065
-0.0108008
-0.0108815
-0.0109536
-0.0110435
-0.0111431
-0.0112154
-0.0112639
-0.0113222
-0.0113848
-0.0114232
-0.0114591
-0.0115326
-0.0116188
-0.0116899
-0.0117664
-0.0118584
-0.011932
-0.0119711
-0.012019
-0.012079
-0.0121268
-0.0122007
-0.0123039
-0.0123849
-0.0124547
-0.0125259
-0.012576
-0.0126163
-0.0126789
-0.0127562
-0.0128359
-0.0129162
-0.0129956
-0.0130633
-0.0131307
-0.0131994
-0.0132695
-0.0133409
-0.0134215
-0.0135021
-0.0135833
-0.0136617
-0.0137428
-0.0138217
-0.0139022
-0.013981
-0.0140644
-0.0141507
-0.0142374
-0.0143239
-0.0144059
-0.0144941
-0.0145784
-0.0146709
-0.0147561
-0.0148449
-0.014931
-0.0150204
-0.0151123
-0.0152017
-0.0152903
-0.0153867
-0.015489
-0.0155563
-0.0158066
-0.0159964
0.00311002
4.11866e-05
-0.00481775
-0.00917725
-0.011763
-0.0125357
-0.0123254
-0.0116842
-0.0108422