/*--------------------------------*- C++ -*----------------------------------*\
| =========                 |                                                 |
| \\      /  F ield         | OpenFOAM: The Open Source CFD Toolbox           |
|  \\    /   O peration     | Version:  v1906                                 |
|   \\  /    A nd           | Web:      www.OpenFOAM.com                      |
|    \\/     M anipulation  |                                                 |
\*---------------------------------------------------------------------------*/
FoamFile
{
    version     2.0;
    format      ascii;
    class       surfaceScalarField;
    location    "3.6";
    object      phi;
}
// * * * * * * * * * * * * * * * * * * * * * * * * * * * * * * * * * * * * * //

dimensions      [0 3 -1 0 0 0 0];
oriented        oriented;


internalField   nonuniform List<scalar> 
19000
(
1.17125e-06
4.58754e-07
1.15817e-06
-6.68041e-07
1.17976e-06
1.05339e-06
1.1155e-06
-6.73413e-07
1.13067e-06
-1.91436e-07
1.19821e-06
-1.08723e-07
1.16897e-06
1.06578e-07
1.1324e-06
-1.7775e-07
1.16338e-06
1.31087e-06
1.0862e-06
-3.56874e-07
1.12859e-06
8.38332e-07
1.08329e-06
-2.27132e-07
1.11632e-06
-3.42153e-07
1.1116e-06
-2.23795e-07
1.12408e-06
-5.22726e-07
1.14858e-06
-1.69818e-07
1.15434e-06
-3.16909e-07
1.15837e-06
-7.75912e-08
1.16331e-06
-1.09293e-07
4.49758e-08
1.14106e-06
1.22484e-06
4.58175e-07
1.2121e-06
-6.55298e-07
1.23094e-06
1.03455e-06
1.16971e-06
-6.12182e-07
1.18258e-06
-2.04311e-07
1.25199e-06
-1.78132e-07
1.22181e-06
1.36759e-07
1.18685e-06
-1.42785e-07
1.21197e-06
1.28575e-06
1.14263e-06
-2.87528e-07
1.16988e-06
8.11081e-07
1.14642e-06
-2.03676e-07
1.16558e-06
-3.61306e-07
1.18054e-06
-2.38756e-07
1.17975e-06
-5.21941e-07
1.22048e-06
-2.10542e-07
1.20585e-06
-3.02279e-07
1.23248e-06
-1.04225e-07
1.20794e-06
-8.4754e-08
2.82049e-08
1.22471e-06
1.2817e-06
4.59261e-07
1.26753e-06
-6.41129e-07
1.28424e-06
1.01784e-06
1.23239e-06
-5.60338e-07
1.23812e-06
-2.10039e-07
1.30416e-06
-2.44169e-07
1.27895e-06
1.6196e-07
1.24268e-06
-1.06512e-07
1.26244e-06
1.26599e-06
1.20712e-06
-2.3221e-07
1.22294e-06
7.95257e-07
1.22261e-06
-2.03342e-07
1.225e-06
-3.63696e-07
1.25154e-06
-2.65294e-07
1.24187e-06
-5.1227e-07
1.27802e-06
-2.46695e-07
1.26646e-06
-2.90719e-07
1.28086e-06
-1.1863e-07
1.27129e-06
-7.51839e-08
3.31483e-08
1.26635e-06
1.34225e-06
4.61116e-07
1.32679e-06
-6.25673e-07
1.34129e-06
1.00335e-06
1.30335e-06
-5.22396e-07
1.29947e-06
-2.06159e-07
1.35758e-06
-3.02285e-07
1.34044e-06
1.79105e-07
1.30215e-06
-6.82247e-08
1.31674e-06
1.2514e-06
1.27887e-06
-1.94336e-07
1.28881e-06
7.85313e-07
1.30078e-06
-2.15314e-07
1.29426e-06
-3.57172e-07
1.31939e-06
-2.90429e-07
1.31096e-06
-5.03836e-07
1.33401e-06
-2.69745e-07
1.33288e-06
-2.89586e-07
1.33758e-06
-1.23338e-07
1.33387e-06
-7.14716e-08
4.07602e-08
1.32626e-06
1.4068e-06
4.62672e-07
1.39074e-06
-6.09619e-07
1.40343e-06
9.90664e-07
1.37967e-06
-4.98635e-07
1.36759e-06
-1.94089e-07
1.41402e-06
-3.48708e-07
1.40627e-06
1.86854e-07
1.36698e-06
-2.89314e-08
1.37751e-06
1.24086e-06
1.35516e-06
-1.71987e-07
1.36502e-06
7.75453e-07
1.37878e-06
-2.29073e-07
1.37041e-06
-3.48798e-07
1.38799e-06
-3.08006e-07
1.38275e-06
-4.98603e-07
1.3972e-06
-2.84186e-07
1.40033e-06
-2.92723e-07
1.40473e-06
-1.27734e-07
1.40005e-06
-6.67897e-08
4.74726e-08
1.39333e-06
1.4752e-06
4.63146e-07
1.45953e-06
-5.93951e-07
1.47109e-06
9.79103e-07
1.45839e-06
-4.85928e-07
1.44181e-06
-1.77508e-07
1.47477e-06
-3.81675e-07
1.47502e-06
1.86606e-07
1.43783e-06
8.26186e-09
1.44666e-06
1.23203e-06
1.43489e-06
-1.60215e-07
1.44707e-06
7.63279e-07
1.45759e-06
-2.39594e-07
1.4495e-06
-3.40715e-07
1.45931e-06
-3.17816e-07
1.45462e-06
-4.93914e-07
1.46518e-06
-2.94741e-07
1.46836e-06
-2.95902e-07
1.47403e-06
-1.33409e-07
1.47002e-06
-6.27743e-08
5.44763e-08
1.46301e-06
1.54708e-06
4.6228e-07
1.53275e-06
-5.79618e-07
1.54382e-06
9.68036e-07
1.5378e-06
-4.79908e-07
1.52041e-06
-1.60116e-07
1.54051e-06
-4.01782e-07
1.5455e-06
1.81622e-07
1.51397e-06
3.97858e-08
1.52388e-06
1.22212e-06
1.51762e-06
-1.53953e-07
1.53203e-06
7.48861e-07
1.53806e-06
-2.45624e-07
1.53e-06
-3.32651e-07
1.53359e-06
-3.21402e-07
1.52736e-06
-4.87685e-07
1.53507e-06
-3.02454e-07
1.53762e-06
-2.98454e-07
1.54301e-06
-1.38792e-07
1.54087e-06
-6.06349e-08
6.12265e-08
1.53412e-06
1.62212e-06
4.60286e-07
1.60978e-06
-5.67278e-07
1.62072e-06
9.57096e-07
1.61756e-06
-4.76745e-07
1.60182e-06
-1.4438e-07
1.61133e-06
-4.11285e-07
1.6177e-06
1.75251e-07
1.59403e-06
6.34518e-08
1.60703e-06
1.20912e-06
1.60274e-06
-1.4966e-07
1.61891e-06
7.32691e-07
1.62044e-06
-2.47154e-07
1.61215e-06
-3.24359e-07
1.61098e-06
-3.20237e-07
1.60274e-06
-4.79446e-07
1.60695e-06
-3.06662e-07
1.60882e-06
-3.00326e-07
1.61275e-06
-1.42714e-07
1.61201e-06
-5.99e-08
6.69318e-08
1.60631e-06
1.70028e-06
4.57581e-07
1.69015e-06
-5.57146e-07
1.70112e-06
9.46125e-07
1.69828e-06
-4.73911e-07
1.68535e-06
-1.3145e-07
1.68705e-06
-4.12985e-07
1.69257e-06
1.69738e-07
1.67696e-06
7.9059e-08
1.69384e-06
1.19224e-06
1.68963e-06
-1.45458e-07
1.70744e-06
7.14881e-07
1.70474e-06
-2.44451e-07
1.69653e-06
-3.16148e-07
1.69171e-06
-3.15421e-07
1.68194e-06
-4.69678e-07
1.6821e-06
-3.06822e-07
1.68289e-06
-3.01114e-07
1.6848e-06
-1.44624e-07
1.68457e-06
-5.96707e-08
7.1236e-08
1.68027e-06
1.78179e-06
4.54518e-07
1.77364e-06
-5.48998e-07
1.78475e-06
9.35018e-07
1.78098e-06
-4.70142e-07
1.77107e-06
-1.21548e-07
1.76746e-06
-4.09372e-07
1.7712e-06
1.66001e-07
1.76239e-06
8.78705e-08
1.78298e-06
1.17165e-06
1.77805e-06
-1.40525e-07
1.7976e-06
6.95326e-07
1.79106e-06
-2.37907e-07
1.78348e-06
-3.08573e-07
1.77581e-06
-3.07743e-07
1.76532e-06
-4.59194e-07
1.76152e-06
-3.03016e-07
1.76075e-06
-3.00343e-07
1.76043e-06
-1.44311e-07
1.75985e-06
-5.90845e-08
7.39713e-08
1.75711e-06
1.86701e-06
4.51255e-07
1.86031e-06
-5.42302e-07
1.87173e-06
9.23605e-07
1.86663e-06
-4.65043e-07
1.85941e-06
-1.14333e-07
1.85233e-06
-4.0229e-07
1.85436e-06
1.63972e-07
1.85043e-06
9.1797e-08
1.87419e-06
1.14789e-06
1.86815e-06
-1.34489e-07
1.88952e-06
6.73965e-07
1.87964e-06
-2.28027e-07
1.87319e-06
-3.02124e-07
1.86322e-06
-2.97777e-07
1.85279e-06
-4.48759e-07
1.8456e-06
-2.95833e-07
1.84302e-06
-2.97763e-07
1.8406e-06
-1.41892e-07
1.83884e-06
-5.73196e-08
7.50664e-08
1.83774e-06
1.95629e-06
4.47802e-07
1.95038e-06
-5.36393e-07
1.96237e-06
9.11624e-07
1.95599e-06
-4.5867e-07
1.95084e-06
-1.0918e-07
1.94149e-06
-3.9294e-07
1.9424e-06
1.63059e-07
1.9414e-06
9.27985e-08
1.96774e-06
1.12155e-06
1.9604e-06
-1.27144e-07
1.98353e-06
6.50833e-07
1.97088e-06
-2.15383e-07
1.96583e-06
-2.97074e-07
1.954e-06
-2.85944e-07
1.94414e-06
-4.38901e-07
1.93444e-06
-2.86128e-07
1.93001e-06
-2.93341e-07
1.92599e-06
-1.37864e-07
1.92232e-06
-5.36528e-08
7.46076e-08
1.92278e-06
2.04989e-06
4.44101e-07
2.04414e-06
-5.30646e-07
2.057e-06
8.9877e-07
2.04955e-06
-4.51223e-07
2.04577e-06
-1.05397e-07
2.03484e-06
-3.82016e-07
2.03539e-06
1.62518e-07
2.03564e-06
9.25447e-08
2.0641e-06
1.09309e-06
2.05534e-06
-1.18384e-07
2.08018e-06
6.25999e-07
2.06534e-06
-2.00542e-07
2.06175e-06
-2.9349e-07
2.04836e-06
-2.72552e-07
2.0393e-06
-4.29845e-07
2.028e-06
-2.74823e-07
2.02177e-06
-2.87112e-07
2.01695e-06
-1.33045e-07
2.0109e-06
-4.76038e-08
7.28719e-08
2.01264e-06
2.148e-06
4.401e-07
2.14192e-06
-5.24569e-07
2.15593e-06
8.8476e-07
2.1476e-06
-4.42892e-07
2.1446e-06
-1.02397e-07
2.13244e-06
-3.69852e-07
2.13328e-06
1.61675e-07
2.13357e-06
9.22526e-08
2.16382e-06
1.06284e-06
2.15363e-06
-1.08193e-07
2.18012e-06
5.99512e-07
2.16357e-06
-1.83995e-07
2.16139e-06
-2.91306e-07
2.14669e-06
-2.5785e-07
2.13837e-06
-4.21531e-07
2.12632e-06
-2.6277e-07
2.11826e-06
-2.7905e-07
2.11356e-06
-1.28346e-07
2.10512e-06
-3.91634e-08
7.03726e-08
2.10762e-06
2.25083e-06
4.35758e-07
2.24409e-06
-5.17826e-07
2.25945e-06
8.69397e-07
2.25035e-06
-4.3379e-07
2.24775e-06
-9.97942e-08
2.23444e-06
-3.56548e-07
2.2361e-06
1.60012e-07
2.23569e-06
9.26694e-08
2.26749e-06
1.03104e-06
2.25591e-06
-9.66101e-08
2.28401e-06
5.71413e-07
2.26612e-06
-1.66111e-07
2.2652e-06
-2.90388e-07
2.24943e-06
-2.42081e-07
2.24157e-06
-4.1367e-07
2.22954e-06
-2.50735e-07
2.21947e-06
-2.68982e-07
2.21568e-06
-1.24555e-07
2.20535e-06
-2.88317e-08
6.78519e-08
2.20787e-06
2.35859e-06
4.31041e-07
2.35098e-06
-5.10214e-07
2.3678e-06
8.52574e-07
2.35796e-06
-4.23949e-07
2.35558e-06
-9.74162e-08
2.34112e-06
-3.42088e-07
2.34396e-06
1.57174e-07
2.34246e-06
9.41691e-08
2.37566e-06
9.97837e-07
2.36275e-06
-8.36974e-08
2.39238e-06
5.41788e-07
2.37343e-06
-1.47165e-07
2.37358e-06
-2.90543e-07
2.35704e-06
-2.25538e-07
2.34917e-06
-4.05802e-07
2.33787e-06
-2.39429e-07
2.32552e-06
-2.56631e-07
2.3231e-06
-1.22133e-07
2.31169e-06
-1.74292e-08
6.61163e-08
2.31343e-06
2.47153e-06
4.25909e-07
2.46293e-06
-5.01619e-07
2.48124e-06
8.34267e-07
2.47062e-06
-4.13328e-07
2.46847e-06
-9.52716e-08
2.4528e-06
-3.26416e-07
2.45703e-06
1.52949e-07
2.45431e-06
9.68893e-08
2.48882e-06
9.63321e-07
2.47466e-06
-6.95306e-08
2.50564e-06
5.10802e-07
2.48587e-06
-1.27398e-07
2.48684e-06
-2.9151e-07
2.46988e-06
-2.08578e-07
2.46145e-06
-3.97367e-07
2.45149e-06
-2.29474e-07
2.43668e-06
-2.4182e-07
2.43562e-06
-1.21068e-07
2.42409e-06
-5.90166e-09
6.58496e-08
2.42435e-06
2.58989e-06
4.20318e-07
2.58025e-06
-4.91985e-07
2.60002e-06
8.14496e-07
2.58853e-06
-4.01834e-07
2.58675e-06
-9.34932e-08
2.56982e-06
-3.09483e-07
2.57552e-06
1.47249e-07
2.57157e-06
1.00839e-07
2.60735e-06
9.2754e-07
2.59203e-06
-5.42174e-08
2.62413e-06
4.78711e-07
2.60379e-06
-1.07067e-07
2.60523e-06
-2.92949e-07
2.58829e-06
-1.91638e-07
2.57866e-06
-3.87737e-07
2.57057e-06
-2.21379e-07
2.55339e-06
-2.24639e-07
2.55314e-06
-1.20822e-07
2.54253e-06
4.71264e-09
6.75292e-08
2.54085e-06
2.71392e-06
4.14227e-07
2.70323e-06
-4.81294e-07
2.72442e-06
7.93302e-07
2.71193e-06
-3.89345e-07
2.71072e-06
-9.22773e-08
2.6925e-06
-2.91262e-07
2.69966e-06
1.40088e-07
2.69454e-06
1.05957e-07
2.73153e-06
8.90552e-07
2.71523e-06
-3.79176e-08
2.7481e-06
4.4584e-07
2.7275e-06
-8.64688e-08
2.729e-06
-2.94449e-07
2.71259e-06
-1.7522e-07
2.70113e-06
-3.76283e-07
2.69521e-06
-2.15456e-07
2.67607e-06
-2.055e-07
2.67581e-06
-1.20565e-07
2.66702e-06
1.35098e-08
7.1255e-08
2.66329e-06
2.84389e-06
4.07603e-07
2.83214e-06
-4.69541e-07
2.85473e-06
7.70716e-07
2.84111e-06
-3.75732e-07
2.84066e-06
-9.18273e-08
2.82116e-06
-2.71758e-07
2.82969e-06
1.31552e-07
2.82352e-06
1.12133e-07
2.86161e-06
8.52458e-07
2.84456e-06
-2.08614e-08
2.87783e-06
4.1257e-07
2.8573e-06
-6.5948e-08
2.85841e-06
-2.95556e-07
2.84305e-06
-1.59855e-07
2.82922e-06
-3.6246e-07
2.82552e-06
-2.11751e-07
2.80514e-06
-1.85124e-07
2.80386e-06
-1.19282e-07
2.79764e-06
1.97269e-08
7.67659e-08
2.79213e-06
2.98008e-06
4.00418e-07
2.96726e-06
-4.56723e-07
2.99122e-06
7.46756e-07
2.97637e-06
-3.60878e-07
2.97686e-06
-9.23141e-08
2.9561e-06
-2.51002e-07
2.96588e-06
1.21774e-07
2.95879e-06
1.19219e-07
2.99782e-06
8.13429e-07
2.98032e-06
-3.35719e-09
3.01355e-06
3.79338e-07
2.99349e-06
-4.58855e-08
2.99374e-06
-2.95812e-07
2.97991e-06
-1.46021e-07
2.96338e-06
-3.45935e-07
2.96162e-06
-2.09992e-07
2.94089e-06
-1.64391e-07
2.93769e-06
-1.1608e-07
2.93445e-06
2.29692e-08
8.34202e-08
2.92779e-06
3.12277e-06
3.9265e-07
3.10888e-06
-4.42827e-07
3.13421e-06
7.21424e-07
3.11802e-06
-3.44691e-07
3.11956e-06
-9.38535e-08
3.09762e-06
-2.2906e-07
3.10849e-06
1.10907e-07
3.10068e-06
1.27027e-07
3.14038e-06
7.73727e-07
3.12281e-06
1.42121e-08
3.15553e-06
3.4662e-07
3.13633e-06
-2.66827e-08
3.1353e-06
-2.94785e-07
3.12339e-06
-1.34113e-07
3.10408e-06
-3.26626e-07
3.10372e-06
-2.09632e-07
3.08356e-06
-1.44224e-07
3.07786e-06
-1.10381e-07
3.07749e-06
2.33345e-08
9.03164e-08
3.0706e-06
3.27228e-06
3.84281e-07
3.25728e-06
-4.27828e-07
3.28399e-06
6.94711e-07
3.26641e-06
-3.27113e-07
3.26906e-06
-9.65022e-08
3.24603e-06
-2.06027e-07
3.25781e-06
9.91245e-08
3.24952e-06
1.35324e-07
3.28954e-06
7.33702e-07
3.27237e-06
3.13877e-08
3.30406e-06
3.14925e-07
3.28611e-06
-8.73039e-09
3.28343e-06
-2.92105e-07
3.2737e-06
-1.24382e-07
3.25178e-06
-3.04708e-07
3.25208e-06
-2.09932e-07
3.23336e-06
-1.25508e-07
3.22492e-06
-1.01941e-07
3.22689e-06
2.13731e-08
9.64358e-08
3.22077e-06
3.42892e-06
3.75295e-07
3.41278e-06
-4.11693e-07
3.44088e-06
6.66612e-07
3.42189e-06
-3.08123e-07
3.42565e-06
-1.00265e-07
3.40166e-06
-1.82034e-07
3.41415e-06
8.66336e-08
3.40566e-06
1.43819e-07
3.44556e-06
6.93796e-07
3.4293e-06
4.76542e-08
3.45947e-06
2.84749e-07
3.4431e-06
7.6473e-09
3.4385e-06
-2.8751e-07
3.43102e-06
-1.16904e-07
3.40691e-06
-2.80593e-07
3.40704e-06
-2.10065e-07
3.39049e-06
-1.08954e-07
3.37942e-06
-9.08757e-08
3.38285e-06
1.79411e-08
1.0083e-07
3.37846e-06
3.59303e-06
3.65677e-07
3.57572e-06
-3.94389e-07
3.60521e-06
6.37127e-07
3.58482e-06
-2.87735e-07
3.58965e-06
-1.05098e-07
3.56488e-06
-1.57261e-07
3.57782e-06
7.36896e-08
3.56949e-06
1.52156e-07
3.60876e-06
6.54527e-07
3.59393e-06
6.24779e-08
3.62215e-06
2.56533e-07
3.60756e-06
2.22314e-08
3.60092e-06
-2.80869e-07
3.59561e-06
-1.11587e-07
3.56986e-06
-2.54843e-07
3.56902e-06
-2.09229e-07
3.55512e-06
-9.50531e-08
3.54186e-06
-7.76117e-08
3.54571e-06
1.40862e-08
1.02742e-07
3.5438e-06
3.76497e-06
3.55416e-07
3.74646e-06
-3.75885e-07
3.77732e-06
6.06273e-07
3.75559e-06
-2.66005e-07
3.7614e-06
-1.10911e-07
3.73608e-06
-1.31939e-07
3.74916e-06
6.06088e-08
3.7414e-06
1.59912e-07
3.77947e-06
6.16458e-07
3.76657e-06
7.53827e-08
3.79254e-06
2.30561e-07
3.77978e-06
3.49857e-08
3.77112e-06
-2.72208e-07
3.76773e-06
-1.08197e-07
3.74097e-06
-2.2808e-07
3.73849e-06
-2.06749e-07
3.72752e-06
-8.40782e-08
3.71265e-06
-6.27491e-08
3.71589e-06
1.08441e-08
1.01779e-07
3.71686e-06
3.9451e-06
3.44501e-07
3.92539e-06
-3.56169e-07
3.95757e-06
5.74095e-07
3.93459e-06
-2.43034e-07
3.94125e-06
-1.17562e-07
3.91567e-06
-1.06363e-07
3.9285e-06
4.77745e-08
3.92181e-06
1.66602e-07
3.9581e-06
5.80175e-07
3.9475e-06
8.59793e-08
3.97112e-06
2.06942e-07
3.96006e-06
4.60434e-08
3.94953e-06
-2.61677e-07
3.94773e-06
-1.064e-07
3.92062e-06
-2.00971e-07
3.91592e-06
-2.0205e-07
3.90792e-06
-7.60712e-08
3.89228e-06
-4.71112e-08
3.89388e-06
9.24726e-09
9.79024e-08
3.89775e-06
4.13382e-06
3.32926e-07
4.1129e-06
-3.3525e-07
4.14633e-06
5.40675e-07
4.12227e-06
-2.18975e-07
4.12955e-06
-1.24849e-07
4.10409e-06
-8.08972e-08
4.11624e-06
3.56262e-08
4.11113e-06
1.71708e-07
4.14512e-06
5.46187e-07
4.13702e-06
9.40773e-08
4.15837e-06
1.85587e-07
4.14877e-06
5.56494e-08
4.13651e-06
-2.4942e-07
4.13603e-06
-1.05916e-07
4.10916e-06
-1.74103e-07
4.10187e-06
-1.9476e-07
4.09658e-06
-7.07792e-08
4.08112e-06
-3.16511e-08
4.08032e-06
1.00429e-08
9.16656e-08
4.08656e-06
4.33153e-06
3.20697e-07
4.30945e-06
-3.13166e-07
4.34398e-06
5.06141e-07
4.31905e-06
-1.94039e-07
4.3267e-06
-1.32502e-07
4.30177e-06
-5.59711e-08
4.31275e-06
2.46516e-08
4.30977e-06
1.74691e-07
4.34106e-06
5.1489e-07
4.33539e-06
9.9746e-08
4.35476e-06
1.66219e-07
4.34634e-06
6.40748e-08
4.33246e-06
-2.35545e-07
4.33304e-06
-1.06498e-07
4.30696e-06
-1.48019e-07
4.29687e-06
-1.8467e-07
4.29383e-06
-6.77429e-08
4.2795e-06
-1.73183e-08
4.276e-06
1.35378e-08
8.41559e-08
4.28351e-06
4.53864e-06
3.07828e-07
4.51547e-06
-2.89995e-07
4.55093e-06
4.7068e-07
4.5254e-06
-1.68506e-07
4.53307e-06
-1.40172e-07
4.50919e-06
-3.20933e-08
4.51847e-06
1.53755e-08
4.51805e-06
1.75113e-07
4.54651e-06
4.86422e-07
4.54293e-06
1.0333e-07
4.56072e-06
1.48428e-07
4.55323e-06
7.15668e-08
4.53779e-06
-2.20109e-07
4.5392e-06
-1.07905e-07
4.51442e-06
-1.23236e-07
4.5015e-06
-1.71754e-07
4.50003e-06
-6.62752e-08
4.4877e-06
-4.98108e-09
4.48174e-06
1.9493e-08
7.68198e-08
4.48908e-06
4.75559e-06
2.94348e-07
4.73146e-06
-2.65856e-07
4.76759e-06
4.34549e-07
4.74181e-06
-1.42732e-07
4.74909e-06
-1.47446e-07
4.7268e-06
-9.80383e-09
4.73386e-06
8.30734e-09
4.73627e-06
1.72708e-07
4.76204e-06
4.60648e-07
4.76001e-06
1.05359e-07
4.77665e-06
1.31788e-07
4.76995e-06
7.82701e-08
4.75298e-06
-2.03136e-07
4.75489e-06
-1.09818e-07
4.73198e-06
-1.00323e-07
4.71634e-06
-1.56119e-07
4.71565e-06
-6.55858e-08
4.7059e-06
4.7746e-09
4.69821e-06
2.71767e-08
7.09747e-08
4.70406e-06
4.98284e-06
2.80303e-07
4.9579e-06
-2.40912e-07
4.99437e-06
3.9808e-07
4.96878e-06
-1.17142e-07
4.9752e-06
-1.53864e-07
4.95505e-06
1.03406e-08
4.95945e-06
3.90741e-09
4.96474e-06
1.67423e-07
4.98821e-06
4.37175e-07
4.9871e-06
1.06473e-07
5.00297e-06
1.15911e-07
4.99701e-06
8.42328e-08
4.9785e-06
-1.84623e-07
4.98059e-06
-1.11907e-07
4.96001e-06
-7.97416e-08
4.94199e-06
-1.38098e-07
4.94129e-06
-6.4893e-08
4.93426e-06
1.18094e-08
4.92596e-06
3.54767e-08
6.75189e-08
4.92941e-06
5.22087e-06
2.65752e-07
5.19533e-06
-2.15374e-07
5.23172e-06
3.61685e-07
5.20681e-06
-9.22239e-08
5.2119e-06
-1.58961e-07
5.19442e-06
2.78263e-08
5.19583e-06
2.49668e-09
5.20378e-06
1.59473e-07
5.22553e-06
4.15419e-07
5.22475e-06
1.07257e-07
5.24005e-06
1.0061e-07
5.23494e-06
8.93484e-08
5.21491e-06
-1.64596e-07
5.21675e-06
-1.13743e-07
5.1989e-06
-6.18926e-08
5.17899e-06
-1.18196e-07
5.17755e-06
-6.34515e-08
5.17312e-06
1.62408e-08
5.16522e-06
4.33819e-08
6.66027e-08
5.16613e-06
5.47017e-06
2.50774e-07
5.44429e-06
-1.89501e-07
5.48012e-06
3.25861e-07
5.4564e-06
-6.85124e-08
5.45974e-06
-1.62298e-07
5.44535e-06
4.22215e-08
5.44374e-06
4.10785e-09
5.45385e-06
1.49362e-07
5.47454e-06
3.94723e-07
5.47355e-06
1.08251e-07
5.48831e-06
8.58498e-08
5.48425e-06
9.3409e-08
5.46276e-06
-1.43108e-07
5.46386e-06
-1.14841e-07
5.44906e-06
-4.70958e-08
5.42787e-06
-9.70052e-08
5.42513e-06
-6.07173e-08
5.42294e-06
1.84348e-08
5.41614e-06
5.01858e-08
6.7708e-08
5.41503e-06
5.73127e-06
2.35461e-07
5.70536e-06
-1.63592e-07
5.74004e-06
2.91186e-07
5.71806e-06
-4.65327e-08
5.71929e-06
-1.63533e-07
5.70825e-06
5.32625e-08
5.704e-06
8.35864e-09
5.71555e-06
1.37817e-07
5.73573e-06
3.74535e-07
5.73417e-06
1.09819e-07
5.74816e-06
7.18538e-08
5.74541e-06
9.61595e-08
5.72265e-06
-1.20341e-07
5.72246e-06
-1.14651e-07
5.71086e-06
-3.5497e-08
5.68917e-06
-7.53187e-08
5.68468e-06
-5.62251e-08
5.68429e-06
1.88272e-08
5.67896e-06
5.55124e-08
6.99754e-08
5.67669e-06
6.00474e-06
2.19913e-07
5.97913e-06
-1.37977e-07
6.01201e-06
2.58299e-07
5.99223e-06
-2.6753e-08
5.99119e-06
-1.62494e-07
5.98353e-06
6.09238e-08
5.97727e-06
1.46247e-08
5.98963e-06
1.25452e-07
6.00971e-06
3.54454e-07
6.00725e-06
1.12283e-07
6.02007e-06
5.90344e-08
6.01883e-06
9.74038e-08
5.99513e-06
-9.66449e-08
5.9931e-06
-1.12618e-07
5.98473e-06
-2.71337e-08
5.96343e-06
-5.40143e-08
5.95688e-06
-4.96806e-08
5.95775e-06
1.79604e-08
5.95409e-06
5.91724e-08
7.26202e-08
5.95145e-06
6.29116e-06
2.04237e-07
6.26617e-06
-1.12988e-07
6.29674e-06
2.27729e-07
6.27938e-06
-9.3931e-09
6.2761e-06
-1.59205e-07
6.2716e-06
6.54148e-08
6.26394e-06
2.22925e-08
6.27668e-06
1.12706e-07
6.29689e-06
3.34249e-07
6.2933e-06
1.15873e-07
6.30441e-06
4.79219e-08
6.30476e-06
9.70531e-08
6.28079e-06
-7.26729e-08
6.27639e-06
-1.0822e-07
6.27115e-06
-2.18946e-08
6.25113e-06
-3.39947e-08
6.24245e-06
-4.10016e-08
6.244e-06
1.64091e-08
6.24208e-06
6.10968e-08
7.51125e-08
6.23959e-06
6.59117e-06
1.88534e-07
6.56711e-06
-8.89212e-08
6.59524e-06
1.99599e-07
6.58004e-06
5.807e-09
6.57462e-06
-1.53787e-07
6.57292e-06
6.71169e-08
6.56403e-06
3.11774e-08
6.57631e-06
1.00428e-07
6.59671e-06
3.13851e-07
6.59223e-06
1.20352e-07
6.60135e-06
3.87969e-08
6.60351e-06
9.48957e-08
6.58019e-06
-4.93493e-08
6.5732e-06
-1.01236e-07
6.57063e-06
-1.93177e-08
6.55276e-06
-1.61256e-08
6.54214e-06
-3.0387e-08
6.54371e-06
1.4842e-08
6.54352e-06
6.12886e-08
7.71214e-08
6.54151e-06
6.90542e-06
1.72901e-07
6.88254e-06
-6.6043e-08
6.90826e-06
1.7388e-07
6.89487e-06
1.92004e-08
6.88732e-06
-1.4624e-07
6.88811e-06
6.63363e-08
6.87782e-06
4.1461e-08
6.88831e-06
8.9938e-08
6.90951e-06
2.92653e-07
6.90464e-06
1.25219e-07
6.91147e-06
3.19739e-08
6.91567e-06
9.06897e-08
6.89401e-06
-2.76882e-08
6.88449e-06
-9.17189e-08
6.88378e-06
-1.86073e-08
6.86876e-06
-1.1011e-09
6.85673e-06
-1.83624e-08
6.85755e-06
1.40299e-08
6.85901e-06
5.98292e-08
7.83944e-08
6.85773e-06
7.2346e-06
1.57433e-07
7.21315e-06
-4.45834e-08
7.23648e-06
1.50547e-07
7.22479e-06
3.08903e-08
7.21476e-06
-1.36211e-07
7.21791e-06
6.31886e-08
7.20736e-06
5.20035e-08
7.21527e-06
8.20285e-08
7.23729e-06
2.70641e-07
7.23245e-06
1.30052e-07
7.23626e-06
2.81651e-08
7.24226e-06
8.46925e-08
7.223e-06
-8.4273e-09
7.21127e-06
-7.99953e-08
7.21139e-06
-1.87208e-08
7.19969e-06
1.05972e-08
7.18693e-06
-5.60305e-09
7.18635e-06
1.46134e-08
7.18911e-06
5.70654e-08
7.86172e-08
7.18889e-06
7.57944e-06
1.42224e-07
7.55963e-06
-2.47816e-08
7.58054e-06
1.29637e-07
7.57072e-06
4.07123e-08
7.55792e-06
-1.23407e-07
7.56338e-06
5.7728e-08
7.55337e-06
6.2015e-08
7.55862e-06
7.67758e-08
7.58091e-06
2.48348e-07
7.57658e-06
1.34386e-07
7.57727e-06
2.74725e-08
7.5843e-06
7.76667e-08
7.56784e-06
8.02831e-09
7.55437e-06
-6.65242e-08
7.55448e-06
-1.88322e-08
7.54598e-06
1.90978e-08
7.53339e-06
6.98328e-09
7.5311e-06
1.69027e-08
7.53449e-06
5.36814e-08
7.75256e-08
7.53558e-06
7.94067e-06
1.27364e-07
7.92266e-06
-6.77425e-09
7.94132e-06
1.10985e-07
7.93348e-06
4.85504e-08
7.91856e-06
-1.08493e-07
7.92629e-06
4.99981e-08
7.91799e-06
7.03219e-08
7.92107e-06
7.36967e-08
7.94095e-06
2.28466e-07
7.93738e-06
1.37958e-07
7.93567e-06
2.9183e-08
7.94279e-06
7.05461e-08
7.92922e-06
2.15973e-08
7.91457e-06
-5.18816e-08
7.91397e-06
-1.82313e-08
7.90836e-06
2.47075e-08
7.8967e-06
1.86424e-08
7.89278e-06
2.08287e-08
7.896e-06
5.04609e-08
7.50896e-08
7.89844e-06
8.3191e-06
1.12943e-07
8.30293e-06
9.39727e-09
8.31999e-06
9.39268e-08
8.31415e-06
5.43888e-08
8.29828e-06
-9.26241e-08
8.3078e-06
4.04794e-08
8.30147e-06
7.66567e-08
8.29908e-06
7.60788e-08
8.31698e-06
2.10574e-07
8.31551e-06
1.39422e-07
8.31222e-06
3.24779e-08
8.31874e-06
6.40232e-08
8.3078e-06
3.25394e-08
8.29264e-06
-3.67298e-08
8.29083e-06
-1.64132e-08
8.2876e-06
2.79329e-08
8.27748e-06
2.87623e-08
8.27227e-06
2.60428e-08
8.2747e-06
4.80293e-08
7.16298e-08
8.27816e-06
8.71552e-06
9.90835e-08
8.70135e-06
2.35658e-08
8.71678e-06
7.85015e-08
8.71485e-06
5.63167e-08
8.69513e-06
-7.29023e-08
8.69716e-06
3.8449e-08
8.69241e-06
8.14024e-08
8.69132e-06
7.7177e-08
8.71045e-06
1.91439e-07
8.71179e-06
1.38077e-07
8.70765e-06
3.66232e-08
8.71301e-06
5.86655e-08
8.7044e-06
4.11469e-08
8.68928e-06
-2.16058e-08
8.68597e-06
-1.31107e-08
8.68451e-06
2.93933e-08
8.67626e-06
3.70119e-08
8.67038e-06
3.1923e-08
8.67166e-06
4.67485e-08
6.77276e-08
8.67557e-06
9.13078e-06
8.59191e-08
9.11882e-06
3.55297e-08
9.13131e-06
6.60154e-08
9.13014e-06
5.7487e-08
9.10808e-06
-5.0845e-08
9.11008e-06
3.64515e-08
9.10904e-06
8.24388e-08
9.10725e-06
7.89643e-08
9.12374e-06
1.74956e-07
9.12668e-06
1.35136e-07
9.12227e-06
4.10284e-08
9.12644e-06
5.44948e-08
9.11991e-06
4.76841e-08
9.10529e-06
-6.99272e-09
9.10046e-06
-8.27994e-09
9.10006e-06
2.97933e-08
9.0939e-06
4.31769e-08
9.08789e-06
3.79273e-08
9.08801e-06
4.66334e-08
6.39772e-08
9.09176e-06
9.56578e-06
7.35945e-08
9.55583e-06
4.54847e-08
9.56542e-06
5.64286e-08
9.56711e-06
5.57952e-08
9.54571e-06
-2.94482e-08
9.54471e-06
3.74551e-08
9.54517e-06
8.19802e-08
9.54364e-06
8.04917e-08
9.55755e-06
1.61042e-07
9.5612e-06
1.3149e-07
9.55683e-06
4.53931e-08
9.55999e-06
5.13425e-08
9.55524e-06
5.243e-08
9.54157e-06
6.67719e-09
9.53535e-06
-2.05593e-09
9.5353e-06
2.98402e-08
9.53121e-06
4.72688e-08
9.52557e-06
4.35692e-08
9.52469e-06
4.75078e-08
6.07766e-08
9.52789e-06
1.00215e-05
6.22786e-08
1.00138e-05
5.31608e-08
1.00206e-05
4.96429e-08
1.00251e-05
5.12537e-08
1.0005e-05
-9.30878e-09
1.00007e-05
4.1725e-08
1.00017e-05
8.10121e-08
1.0001e-05
8.11573e-08
1.00128e-05
1.4924e-07
1.00165e-05
1.27778e-07
1.00122e-05
4.97141e-08
1.00145e-05
4.90456e-08
1.00113e-05
5.5647e-08
9.99903e-06
1.89184e-08
9.99161e-06
5.36218e-09
9.99139e-06
3.00618e-08
9.98908e-06
4.95794e-08
9.98424e-06
4.84095e-08
9.98267e-06
4.90745e-08
5.83652e-08
9.98508e-06
1.04988e-05
5.21188e-08
1.04938e-05
5.81197e-08
1.04976e-05
4.59127e-08
1.05043e-05
4.4529e-08
1.04867e-05
8.31776e-09
1.04792e-05
4.91661e-08
1.04796e-05
8.06416e-08
1.048e-05
8.07823e-08
1.04903e-05
1.38916e-07
1.04938e-05
1.24241e-07
1.04894e-05
5.41174e-08
1.04909e-05
4.75632e-08
1.0489e-05
5.7523e-08
1.04784e-05
2.95663e-08
1.04703e-05
1.3447e-08
1.04694e-05
3.09172e-08
1.04685e-05
5.05558e-08
1.04647e-05
5.21404e-08
1.04628e-05
5.09746e-08
5.67757e-08
1.04644e-05
1.09989e-05
4.32385e-08
1.09968e-05
6.02464e-08
1.09978e-05
4.49194e-08
1.10055e-05
3.6766e-08
1.09912e-05
2.26325e-08
1.09813e-05
5.91079e-08
1.09803e-05
8.15631e-08
1.09815e-05
7.96158e-08
1.0991e-05
1.29457e-07
1.09943e-05
1.20936e-07
1.09897e-05
5.86896e-08
1.09903e-05
4.69272e-08
1.09895e-05
5.83563e-08
1.09806e-05
3.84297e-08
1.09724e-05
2.16975e-08
1.09707e-05
3.26108e-08
1.09706e-05
5.06858e-08
1.0968e-05
5.4679e-08
1.09662e-05
5.2851e-08
5.58753e-08
1.09671e-05
1.15229e-05
3.57081e-08
1.15234e-05
5.97513e-08
1.15223e-05
4.6032e-08
1.15295e-05
2.95075e-08
1.15188e-05
3.33226e-08
1.15077e-05
7.02046e-08
1.15053e-05
8.40088e-08
1.15067e-05
7.81967e-08
1.15156e-05
1.20537e-07
1.1519e-05
1.17612e-07
1.15143e-05
6.34011e-08
1.15139e-05
4.72678e-08
1.15138e-05
5.84592e-08
1.15068e-05
4.54272e-08
1.14988e-05
2.96675e-08
1.14963e-05
3.51316e-08
1.14966e-05
5.04454e-08
1.14951e-05
5.61099e-08
1.14935e-05
5.44376e-08
5.54402e-08
1.1494e-05
1.2072e-05
2.9571e-08
1.20746e-05
5.70753e-08
1.20719e-05
4.87862e-08
1.20771e-05
2.43357e-08
1.20701e-05
4.02697e-08
1.20597e-05
8.05988e-08
1.20558e-05
8.79179e-08
1.20568e-05
7.71587e-08
1.20653e-05
1.12038e-07
1.20689e-05
1.14046e-07
1.20643e-05
6.80141e-08
1.20629e-05
4.87043e-08
1.20632e-05
5.81492e-08
1.20579e-05
5.07106e-08
1.20506e-05
3.69165e-08
1.20475e-05
3.82732e-08
1.20477e-05
5.0249e-08
1.20472e-05
5.66011e-08
1.20461e-05
5.55556e-08
5.52329e-08
1.20463e-05
1.26473e-05
2.48285e-08
1.26512e-05
5.3221e-08
1.26467e-05
5.33038e-08
1.26491e-05
2.19317e-08
1.26463e-05
4.30025e-08
1.26382e-05
8.87354e-08
1.26332e-05
9.29664e-08
1.26333e-05
7.70608e-08
1.26412e-05
1.04142e-07
1.26452e-05
1.10034e-07
1.26409e-05
7.22516e-08
1.26385e-05
5.11318e-08
1.26388e-05
5.78137e-08
1.26351e-05
5.44678e-08
1.26288e-05
4.31746e-08
1.26254e-05
4.1729e-08
1.26253e-05
5.0297e-08
1.26254e-05
5.64774e-08
1.26249e-05
5.60988e-08
5.50653e-08
1.26251e-05
1.32504e-05
2.14113e-08
1.32542e-05
4.93921e-08
1.3249e-05
5.85054e-08
1.32482e-05
2.27453e-08
1.32491e-05
4.2078e-08
1.32442e-05
9.3626e-08
1.32386e-05
9.85652e-08
1.32374e-05
7.8272e-08
1.32444e-05
9.71491e-08
1.32489e-05
1.05554e-07
1.32453e-05
7.58134e-08
1.32422e-05
5.42338e-08
1.32422e-05
5.78211e-08
1.32397e-05
5.6969e-08
1.32346e-05
4.82909e-08
1.32311e-05
4.5219e-08
1.32307e-05
5.06451e-08
1.32312e-05
5.60443e-08
1.32312e-05
5.60772e-08
5.47679e-08
1.32315e-05
1.38825e-05
1.90758e-08
1.38871e-05
4.47654e-08
1.3882e-05
6.35927e-08
1.38778e-05
2.70161e-08
1.38799e-05
3.99723e-08
1.38786e-05
9.49083e-08
1.38733e-05
1.03826e-07
1.38707e-05
8.086e-08
1.38764e-05
9.1467e-08
1.38813e-05
1.00719e-07
1.38786e-05
7.84327e-08
1.38752e-05
5.77022e-08
1.38747e-05
5.82959e-08
1.38731e-05
5.8611e-08
1.38691e-05
5.22496e-08
1.38658e-05
4.84768e-08
1.38653e-05
5.12321e-08
1.38658e-05
5.54602e-08
1.38662e-05
5.56719e-08
5.41989e-08
1.38668e-05
1.45452e-05
1.75581e-08
1.45494e-05
4.05134e-08
1.45459e-05
6.7079e-08
1.45394e-05
3.361e-08
1.45405e-05
3.88155e-08
1.45425e-05
9.2941e-08
1.45385e-05
1.07791e-07
1.45348e-05
8.45688e-08
1.45388e-05
8.74654e-08
1.45437e-05
9.57775e-08
1.45422e-05
8.00039e-08
1.45387e-05
6.11607e-08
1.45378e-05
5.92098e-08
1.45366e-05
5.9779e-08
1.45337e-05
5.51403e-08
1.4531e-05
5.12626e-08
1.45302e-05
5.19623e-08
1.45309e-05
5.48266e-08
1.45315e-05
5.50333e-08
5.33554e-08
1.45323e-05
1.52399e-05
1.65708e-08
1.52438e-05
3.65743e-08
1.52419e-05
6.89412e-08
1.5234e-05
4.1532e-08
1.52331e-05
3.9763e-08
1.52372e-05
8.88333e-08
1.52352e-05
1.09729e-07
1.5231e-05
8.88052e-08
1.52332e-05
8.52474e-08
1.52378e-05
9.11966e-08
1.52373e-05
8.05337e-08
1.52342e-05
6.42469e-08
1.52329e-05
6.04991e-08
1.5232e-05
6.06465e-08
1.523e-05
5.72115e-08
1.52278e-05
5.34395e-08
1.5227e-05
5.27162e-08
1.52277e-05
5.41795e-08
1.52285e-05
5.42064e-08
5.23689e-08
1.52295e-05
1.5968e-05
1.58634e-08
1.59713e-05
3.33354e-08
1.5971e-05
6.9214e-08
1.59629e-05
4.96643e-08
1.59596e-05
4.30354e-08
1.59644e-05
8.40354e-08
1.59647e-05
1.09386e-07
1.59608e-05
9.27885e-08
1.59613e-05
8.46596e-08
1.59651e-05
8.74628e-08
1.59654e-05
8.01943e-08
1.5963e-05
6.67121e-08
1.59615e-05
6.19422e-08
1.59608e-05
6.13402e-08
1.59594e-05
5.86376e-08
1.59578e-05
5.50546e-08
1.59572e-05
5.33213e-08
1.59578e-05
5.35676e-08
1.59588e-05
5.32115e-08
5.13128e-08
1.59598e-05
1.67312e-05
1.52747e-08
1.67331e-05
3.13991e-08
1.67343e-05
6.80659e-08
1.67271e-05
5.6886e-08
1.67219e-05
4.81806e-08
1.6726e-05
7.99071e-08
1.67284e-05
1.06977e-07
1.67254e-05
9.58012e-08
1.67247e-05
8.53615e-08
1.67274e-05
8.47784e-08
1.67282e-05
7.93914e-08
1.67265e-05
6.84448e-08
1.67252e-05
6.3269e-08
1.67245e-05
6.19652e-08
1.67236e-05
5.95256e-08
1.67225e-05
5.617e-08
1.67221e-05
5.37199e-08
1.67228e-05
5.29356e-08
1.67239e-05
5.2094e-08
5.01575e-08
1.6725e-05
1.75309e-05
1.47031e-08
1.7532e-05
3.03195e-08
1.75337e-05
6.63693e-08
1.75279e-05
6.27215e-08
1.75216e-05
5.44343e-08
1.75242e-05
7.72984e-08
1.7528e-05
1.03178e-07
1.75264e-05
9.74371e-08
1.7525e-05
8.67581e-08
1.75266e-05
8.31773e-08
1.75275e-05
7.85188e-08
1.75264e-05
6.95047e-08
1.75254e-05
6.42979e-08
1.75249e-05
6.24438e-08
1.75244e-05
6.00129e-08
1.75238e-05
5.67897e-08
1.75236e-05
5.3927e-08
1.75243e-05
5.22247e-08
1.75255e-05
5.09263e-08
4.8881e-08
1.75267e-05
1.83689e-05
1.41298e-08
1.83692e-05
3.00272e-08
1.8371e-05
6.45571e-08
1.83667e-05
6.70001e-08
1.83603e-05
6.09239e-08
1.83612e-05
7.63993e-08
1.83653e-05
9.89988e-08
1.83652e-05
9.76044e-08
1.83638e-05
8.81607e-08
1.83643e-05
8.25942e-08
1.83651e-05
7.78042e-08
1.83645e-05
7.0094e-08
1.83638e-05
6.4934e-08
1.83636e-05
6.26746e-08
1.83634e-05
6.01922e-08
1.83632e-05
5.69904e-08
1.83633e-05
5.38686e-08
1.83641e-05
5.14506e-08
1.83653e-05
4.96731e-08
4.75137e-08
1.83667e-05
1.92469e-05
1.35786e-08
1.92467e-05
3.02278e-08
1.92482e-05
6.30565e-08
1.92454e-05
6.989e-08
1.92394e-05
6.6922e-08