/*--------------------------------*- C++ -*----------------------------------*\
| =========                 |                                                 |
| \\      /  F ield         | OpenFOAM: The Open Source CFD Toolbox           |
|  \\    /   O peration     | Version:  v1812                                 |
|   \\  /    A nd           | Web:      www.OpenFOAM.com                      |
|    \\/     M anipulation  |                                                 |
\*---------------------------------------------------------------------------*/
FoamFile
{
    version     2.0;
    format      ascii;
    class       surfaceScalarField;
    location    "8.4";
    object      phi;
}
// * * * * * * * * * * * * * * * * * * * * * * * * * * * * * * * * * * * * * //

dimensions      [0 3 -1 0 0 0 0];
oriented        oriented;


internalField   nonuniform List<scalar> 
19000
(
1.17872e-06
-6.53957e-07
1.18967e-06
1.04327e-06
1.10235e-06
4.66337e-07
1.12657e-06
-7.40665e-07
1.24673e-06
-2.90318e-06
1.27688e-06
-7.47122e-07
1.23935e-06
5.53119e-08
1.21709e-06
8.91128e-07
1.18266e-06
4.96374e-07
1.19802e-06
9.58537e-08
1.21314e-06
-9.07395e-07
1.21016e-06
-9.49256e-07
1.2207e-06
-1.05024e-06
1.20902e-06
-6.18637e-07
1.2254e-06
-5.89995e-07
1.21712e-06
-2.93281e-07
1.22877e-06
-2.3274e-07
1.22248e-06
-1.10117e-07
1.22105e-06
-5.71606e-08
2.0742e-08
1.19338e-06
1.23714e-06
-6.66835e-07
1.27215e-06
1.00826e-06
1.1605e-06
5.77981e-07
1.168e-06
-7.4816e-07
1.29588e-06
-3.03107e-06
1.33817e-06
-7.89406e-07
1.29831e-06
9.51711e-08
1.29535e-06
8.94084e-07
1.25329e-06
5.38443e-07
1.27907e-06
7.00694e-08
1.27784e-06
-9.06168e-07
1.2699e-06
-9.41316e-07
1.2713e-06
-1.05164e-06
1.26983e-06
-6.17166e-07
1.27707e-06
-5.9723e-07
1.28602e-06
-3.02236e-07
1.28171e-06
-2.28433e-07
1.29682e-06
-1.25221e-07
1.27181e-06
-3.21504e-08
1.25442e-08
1.28001e-06
1.29625e-06
-6.80306e-07
1.35665e-06
9.47862e-07
1.23082e-06
7.03815e-07
1.21716e-06
-7.34504e-07
1.33712e-06
-3.15102e-06
1.39675e-06
-8.49036e-07
1.35944e-06
1.32475e-07
1.37114e-06
8.82384e-07
1.34034e-06
5.69247e-07
1.35579e-06
5.46211e-08
1.33845e-06
-8.88831e-07
1.32534e-06
-9.28208e-07
1.31501e-06
-1.04131e-06
1.32088e-06
-6.23037e-07
1.32311e-06
-5.99465e-07
1.3403e-06
-3.19419e-07
1.33841e-06
-2.26543e-07
1.35189e-06
-1.38705e-07
1.34058e-06
-2.08337e-08
1.97704e-08
1.33335e-06
1.35511e-06
-6.91313e-07
1.43063e-06
8.72343e-07
1.30575e-06
8.28697e-07
1.27364e-06
-7.02402e-07
1.36901e-06
-3.24639e-06
1.44322e-06
-9.23249e-07
1.42164e-06
1.54051e-07
1.44181e-06
8.62215e-07
1.43101e-06
5.80056e-07
1.43599e-06
4.96393e-08
1.40694e-06
-8.59784e-07
1.38407e-06
-9.05336e-07
1.36447e-06
-1.02171e-06
1.36959e-06
-6.28164e-07
1.37119e-06
-6.01062e-07
1.38982e-06
-3.38049e-07
1.39492e-06
-2.31639e-07
1.40737e-06
-1.51156e-07
1.40536e-06
-1.88202e-08
2.7029e-08
1.3981e-06
1.41439e-06
-6.97352e-07
1.49122e-06
7.9552e-07
1.38353e-06
9.36384e-07
1.33798e-06
-6.56851e-07
1.3978e-06
-3.30621e-06
1.47827e-06
-1.00372e-06
1.48373e-06
1.48599e-07
1.51247e-06
8.3347e-07
1.52163e-06
5.70898e-07
1.51964e-06
5.16256e-08
1.48092e-06
-8.21058e-07
1.44822e-06
-8.72636e-07
1.42087e-06
-9.94359e-07
1.42294e-06
-6.30239e-07
1.42356e-06
-6.01678e-07
1.44259e-06
-3.57081e-07
1.4515e-06
-2.40551e-07
1.46584e-06
-1.65489e-07
1.46885e-06
-2.1829e-08
3.0812e-08
1.46506e-06
1.47598e-06
-6.9766e-07
1.54314e-06
7.28363e-07
1.46415e-06
1.01537e-06
1.41062e-06
-6.03317e-07
1.43218e-06
-3.32778e-06
1.51095e-06
-1.08248e-06
1.54687e-06
1.12678e-07
1.58817e-06
7.92171e-07
1.61214e-06
5.46929e-07
1.60589e-06
5.78714e-08
1.55845e-06
-7.73618e-07
1.51773e-06
-8.31913e-07
1.48352e-06
-9.60156e-07
1.48221e-06
-6.28929e-07
1.48102e-06
-6.00487e-07
1.49975e-06
-3.75805e-07
1.51054e-06
-2.51347e-07
1.52631e-06
-1.81257e-07
1.53377e-06
-2.92927e-08
3.17159e-08
1.53287e-06
1.54191e-06
-6.93356e-07
1.59455e-06
6.75726e-07
1.54796e-06
1.06197e-06
1.49146e-06
-5.46819e-07
1.47909e-06
-3.31541e-06
1.55165e-06
-1.15504e-06
1.61401e-06
5.0311e-08
1.67051e-06
7.35676e-07
1.70275e-06
5.14687e-07
1.69211e-06
6.85132e-08
1.63676e-06
-7.18269e-07
1.59053e-06
-7.85687e-07
1.55123e-06
-9.20853e-07
1.54682e-06
-6.24522e-07
1.54359e-06
-5.9725e-07
1.5612e-06
-3.93416e-07
1.57299e-06
-2.63136e-07
1.58902e-06
-1.97289e-07
1.60037e-06
-4.06401e-08
3.0098e-08
1.60198e-06
1.61314e-06
-6.86367e-07
1.65256e-06
6.36308e-07
1.63526e-06
1.07927e-06
1.57942e-06
-4.90981e-07
1.54094e-06
-3.27693e-06
1.6064e-06
-1.2205e-06
1.68741e-06
-3.0701e-08
1.75746e-06
6.65628e-07
1.79175e-06
4.80398e-07
1.77561e-06
8.46546e-08
1.71403e-06
-6.5669e-07
1.66527e-06
-7.36934e-07
1.62325e-06
-8.78829e-07
1.61637e-06
-6.17638e-07
1.61095e-06
-5.91833e-07
1.6266e-06
-4.09063e-07
1.63862e-06
-2.75162e-07
1.65393e-06
-2.12597e-07
1.66825e-06
-5.49583e-08
2.61785e-08
1.67217e-06
1.68929e-06
-6.78083e-07
1.72041e-06
6.05186e-07
1.72595e-06
1.07373e-06
1.67288e-06
-4.37915e-07
1.61627e-06
-3.22032e-06
1.67536e-06
-1.27958e-06
1.76655e-06
-1.21892e-07
1.84475e-06
5.87428e-07
1.876e-06
4.49144e-07
1.85429e-06
1.0637e-07
1.78936e-06
-5.91762e-07
1.74131e-06
-6.88881e-07
1.69913e-06
-8.36659e-07
1.69064e-06
-6.09141e-07
1.68294e-06
-5.84137e-07
1.69562e-06
-4.21737e-07
1.70691e-06
-2.86461e-07
1.72054e-06
-2.26224e-07
1.73673e-06
-7.11443e-08
2.02592e-08
1.74265e-06
1.7695e-06
-6.68863e-07
1.79737e-06
5.77317e-07
1.81907e-06
1.05203e-06
1.7703e-06
-3.89148e-07
1.70206e-06
-3.15209e-06
1.7548e-06
-1.33232e-06
1.8482e-06
-2.15294e-07
1.92781e-06
5.07821e-07
1.95282e-06
4.24137e-07
1.92734e-06
1.31851e-07
1.86294e-06
-5.27364e-07
1.81864e-06
-6.4458e-07
1.77865e-06
-7.96665e-07
1.76949e-06
-5.99989e-07
1.75967e-06
-5.74316e-07
1.76843e-06
-4.305e-07
1.77786e-06
-2.95889e-07
1.78874e-06
-2.37102e-07
1.80539e-06
-8.7793e-08
1.28415e-08
1.81281e-06
1.85338e-06
-6.58498e-07
1.88072e-06
5.49983e-07
1.91297e-06
1.01978e-06
1.87037e-06
-3.46544e-07
1.79535e-06
-3.07707e-06
1.84002e-06
-1.37699e-06
1.92829e-06
-3.0356e-07
2.00344e-06
4.32672e-07
2.02143e-06
4.06146e-07
1.99567e-06
1.5761e-07
1.93599e-06
-4.67682e-07
1.89782e-06
-6.06412e-07
1.86171e-06
-7.60551e-07
1.85278e-06
-5.91061e-07
1.84139e-06
-5.62924e-07
1.8458e-06
-4.34914e-07
1.8524e-06
-3.02489e-07
1.85953e-06
-2.44233e-07
1.87498e-06
-1.03235e-07
4.74308e-09
1.88307e-06
1.94121e-06
-6.46869e-07
1.96814e-06
5.23051e-07
2.00643e-06
9.81488e-07
1.97205e-06
-3.12162e-07
1.89379e-06
-2.99881e-06
1.92757e-06
-1.41076e-06
2.00431e-06
-3.80296e-07
2.07123e-06
3.65748e-07
2.08381e-06
3.93566e-07
2.062e-06
1.79417e-07
2.01057e-06
-4.16249e-07
1.97982e-06
-5.75663e-07
1.94844e-06
-7.29174e-07
1.94037e-06
-5.82984e-07
1.92827e-06
-5.50829e-07
1.92863e-06
-4.35273e-07
1.93203e-06
-3.05888e-07
1.93488e-06
-2.47084e-07
1.94754e-06
-1.15893e-07
-2.99192e-09
1.95527e-06
2.0335e-06
-6.34183e-07
2.0589e-06
4.97657e-07
2.0997e-06
9.40682e-07
2.07482e-06
-2.87274e-07
1.99573e-06
-2.91973e-06
2.01646e-06
-1.43149e-06
2.07722e-06
-4.41054e-07
2.13446e-06
3.08507e-07
2.1446e-06
3.83426e-07
2.13033e-06
1.93684e-07
2.08913e-06
-3.75047e-07
2.0658e-06
-5.5233e-07
2.03916e-06
-7.0254e-07
2.03219e-06
-5.76007e-07
2.02029e-06
-5.38931e-07
2.0175e-06
-4.3249e-07
2.018e-06
-3.06381e-07
2.01677e-06
-2.45852e-07
2.02562e-06
-1.24748e-07
-9.40997e-09
2.03204e-06
2.13063e-06
-6.20813e-07
2.15349e-06
4.74795e-07
2.19446e-06
8.99717e-07
2.17885e-06
-2.71666e-07
2.10034e-06
-2.84122e-06
2.10804e-06
-1.43919e-06
2.15134e-06
-4.84357e-07
2.1993e-06
2.60552e-07
2.20978e-06
3.7294e-07
2.20477e-06
1.98693e-07
2.17386e-06
-3.44129e-07
2.15682e-06
-5.35296e-07
2.1343e-06
-6.80014e-07
2.12828e-06
-5.69991e-07
2.11721e-06
-5.27855e-07
2.11242e-06
-4.27705e-07
2.11075e-06
-3.04715e-07
2.10628e-06
-2.41381e-07
2.11114e-06
-1.29606e-07
-1.3968e-08
2.1157e-06
2.23276e-06
-6.0708e-07
2.25282e-06
4.54727e-07
2.29277e-06
8.5977e-07
2.28499e-06
-2.63887e-07
2.20758e-06
-2.76381e-06
2.20452e-06
-1.43613e-06
2.23189e-06
-5.11733e-07
2.27208e-06
2.20368e-07
2.28443e-06
3.60584e-07
2.28823e-06
1.94892e-07
2.26613e-06
-3.22021e-07
2.25365e-06
-5.22819e-07
2.23429e-06
-6.60656e-07
2.22884e-06
-5.64538e-07
2.21878e-06
-5.17801e-07
2.21296e-06
-4.21883e-07
2.20996e-06
-3.01709e-07
2.20339e-06
-2.34818e-07
2.20479e-06
-1.30999e-07
-1.66544e-08
2.20747e-06
2.33996e-06
-5.93161e-07
2.35758e-06
4.37104e-07
2.3962e-06
8.21153e-07
2.39435e-06
-2.62045e-07
2.31797e-06
-2.68743e-06
2.3074e-06
-1.42556e-06
2.32223e-06
-5.2656e-07
2.35658e-06
1.86017e-07
2.37103e-06
3.46135e-07
2.38177e-06
1.84157e-07
2.36638e-06
-3.06631e-07
2.35667e-06
-5.13109e-07
2.33953e-06
-6.43514e-07
2.33416e-06
-5.59171e-07
2.32494e-06
-5.08586e-07
2.31867e-06
-4.1561e-07
2.31492e-06
-2.97956e-07
2.30735e-06
-2.27248e-07
2.30615e-06
-1.29802e-07
-1.78902e-08
2.30739e-06
2.45235e-06
-5.79115e-07
2.46816e-06
4.21298e-07
2.50552e-06
7.83785e-07
2.50793e-06
-2.64449e-07
2.43218e-06
-2.61168e-06
2.41702e-06
-1.4104e-06
2.42298e-06
-5.32513e-07
2.45335e-06
1.55641e-07
2.46948e-06
3.30007e-07
2.48495e-06
1.68691e-07
2.47439e-06
-2.96079e-07
2.46602e-06
-5.04733e-07
2.4503e-06
-6.27794e-07
2.44461e-06
-5.53486e-07
2.43585e-06
-4.99821e-07
2.42934e-06
-4.09097e-07
2.42515e-06
-2.9377e-07
2.41732e-06
-2.19418e-07
2.41446e-06
-1.26939e-07
-1.82203e-08
2.41479e-06
2.5701e-06
-5.64918e-07
2.58479e-06
4.06606e-07
2.62107e-06
7.47508e-07
2.62643e-06
-2.69816e-07
2.55083e-06
-2.53608e-06
2.53304e-06
-1.39261e-06
2.53308e-06
-5.32553e-07
2.56098e-06
1.27746e-07
2.57838e-06
3.12607e-07
2.59674e-06
1.50326e-07
2.58973e-06
-2.89062e-07
2.58174e-06
-4.96746e-07
2.56684e-06
-6.12889e-07
2.56057e-06
-5.47225e-07
2.55183e-06
-4.91075e-07
2.54506e-06
-4.02334e-07
2.54055e-06
-2.89255e-07
2.53282e-06
-2.11692e-07
2.52904e-06
-1.23155e-07
-1.81395e-08
2.52896e-06
2.69341e-06
-5.50495e-07
2.70768e-06
3.92336e-07
2.743e-06
7.12187e-07
2.75037e-06
-2.77194e-07
2.67447e-06
-2.46018e-06
2.65511e-06
-1.37325e-06
2.6513e-06
-5.28738e-07
2.67778e-06
1.01261e-07
2.6963e-06
2.94087e-07
2.71627e-06
1.30353e-07
2.71198e-06
-2.84772e-07
2.70387e-06
-4.88635e-07
2.68933e-06
-5.98352e-07
2.68236e-06
-5.40252e-07
2.6733e-06
-4.82009e-07
2.66617e-06
-3.95209e-07
2.66134e-06
-2.84423e-07
2.65382e-06
-2.04171e-07
2.64962e-06
-1.18958e-07
-1.79859e-08
2.64947e-06
2.82251e-06
-5.35733e-07
2.83699e-06
3.77849e-07
2.87148e-06
6.77706e-07
2.88013e-06
-2.85849e-07
2.80357e-06
-2.38362e-06
2.78318e-06
-1.35286e-06
2.77689e-06
-5.22456e-07
2.80268e-06
7.5479e-08
2.82235e-06
2.74414e-07
2.84304e-06
1.09667e-07
2.84092e-06
-2.82655e-07
2.83248e-06
-4.80193e-07
2.81798e-06
-5.8385e-07
2.81027e-06
-5.32545e-07
2.80067e-06
-4.72414e-07
2.79307e-06
-3.87603e-07
2.78791e-06
-2.79267e-07
2.78059e-06
-1.96852e-07
2.77625e-06
-1.14619e-07
-1.79552e-08
2.77622e-06
2.95767e-06
-5.20505e-07
2.9729e-06
3.62612e-07
3.00666e-06
6.43946e-07
3.01602e-06
-2.95207e-07
2.93859e-06
-2.30619e-06
2.91743e-06
-1.3317e-06
2.90968e-06
-5.14705e-07
2.93519e-06
4.99739e-08
2.95608e-06
2.53519e-07
2.97685e-06
8.88965e-08
2.97643e-06
-2.82233e-07
2.96763e-06
-4.71399e-07
2.95295e-06
-5.69163e-07
2.94454e-06
-5.2414e-07
2.93435e-06
-4.62225e-07
2.92616e-06
-3.79409e-07
2.92072e-06
-2.73823e-07
2.91358e-06
-1.8972e-07
2.9092e-06
-1.10233e-07
-1.81497e-08
2.90939e-06
3.09919e-06
-5.04686e-07
3.11555e-06
3.46253e-07
3.1487e-06
6.10796e-07
3.15833e-06
-3.04837e-07
3.07997e-06
-2.22783e-06
3.05819e-06
-1.30992e-06
3.04973e-06
-5.06244e-07
3.07516e-06
2.45448e-08
3.09728e-06
2.31396e-07
3.11769e-06
6.84852e-08
3.11851e-06
-2.83054e-07
3.10946e-06
-4.62342e-07
3.09445e-06
-5.54154e-07
3.08543e-06
-5.15123e-07
3.07469e-06
-4.51482e-07
3.06584e-06
-3.70563e-07
3.06017e-06
-2.68147e-07
3.05326e-06
-1.82811e-07
3.04879e-06
-1.05768e-07
-1.86164e-08
3.04926e-06
3.24741e-06
-4.88185e-07
3.26508e-06
3.28581e-07
3.29771e-06
5.78164e-07
3.30731e-06
-3.14432e-07
3.22813e-06
-2.14865e-06
3.20579e-06
-1.28758e-06
3.19718e-06
-4.97641e-07
3.22256e-06
-8.32469e-10
3.24584e-06
2.08114e-07
3.2656e-06
4.87284e-08
3.26727e-06
-2.84727e-07
3.2581e-06
-4.53176e-07
3.24271e-06
-5.38756e-07
3.23318e-06
-5.05599e-07
3.222e-06
-4.40303e-07
3.21249e-06
-3.61056e-07
3.20663e-06
-2.62281e-07
3.20004e-06
-1.76224e-07
3.19541e-06
-1.01141e-07
-1.93214e-08
3.19612e-06
3.40271e-06
-4.70959e-07
3.42171e-06
3.09578e-07
3.45389e-06
5.45983e-07
3.46323e-06
-3.23775e-07
3.38348e-06
-2.0689e-06
3.36055e-06
-1.26465e-06
3.35221e-06
-4.89304e-07
3.37744e-06
-2.60681e-08
3.40175e-06
1.83809e-07
3.42069e-06
2.97919e-08
3.42289e-06
-2.86934e-07
3.4138e-06
-4.44078e-07
3.39801e-06
-5.22971e-07
3.38806e-06
-4.95643e-07
3.37662e-06
-4.28864e-07
3.36649e-06
-3.50925e-07
3.36042e-06
-2.56211e-07
3.35429e-06
-1.70101e-07
3.34948e-06
-9.63262e-08
-2.00689e-08
3.35023e-06
3.56548e-06
-4.53025e-07
3.58569e-06
2.89362e-07
3.61747e-06
5.14201e-07
3.6264e-06
-3.32704e-07
3.54637e-06
-1.98886e-06
3.52278e-06
-1.24106e-06
3.51499e-06
-4.81512e-07
3.53995e-06
-5.10235e-08
3.56511e-06
1.58643e-07
3.58317e-06
1.17364e-08
3.58566e-06
-2.89427e-07
3.5768e-06
-4.35221e-07
3.56069e-06
-5.06856e-07
3.55032e-06
-4.85279e-07
3.53883e-06
-4.17369e-07
3.52817e-06
-3.40267e-07
3.52184e-06
-2.49883e-07
3.5163e-06
-1.64557e-07
3.51141e-06
-9.14385e-08
-2.05334e-08
3.51187e-06
3.73614e-06
-4.3446e-07
3.75736e-06
2.68138e-07
3.7888e-06
4.82768e-07
3.79718e-06
-3.41083e-07
3.71718e-06
-1.90887e-06
3.69283e-06
-1.21671e-06
3.68576e-06
-4.74436e-07
3.71029e-06
-7.55587e-08
3.73616e-06
1.32775e-07
3.75334e-06
-5.44643e-09
3.75592e-06
-2.92002e-07
3.74743e-06
-4.26734e-07
3.7311e-06
-4.90522e-07
3.72027e-06
-4.74453e-07
3.70892e-06
-4.06015e-07
3.69789e-06
-3.29238e-07
3.69125e-06
-2.43245e-07
3.68627e-06
-1.59579e-07
3.68156e-06
-8.67233e-08
-2.04623e-08
3.68149e-06
3.91512e-06
-4.15389e-07
3.93711e-06
2.46147e-07
3.96824e-06
4.51632e-07
3.97595e-06
-3.48786e-07
3.89631e-06
-1.82923e-06
3.87108e-06
-1.19148e-06
3.86479e-06
-4.68147e-07
3.88879e-06
-9.95533e-08
3.91522e-06
1.0634e-07
3.93157e-06
-2.1792e-08
3.93407e-06
-2.94505e-07
3.92602e-06
-4.18684e-07
3.90961e-06
-4.7411e-07
3.89824e-06
-4.6309e-07
3.88716e-06
-3.94931e-07
3.87596e-06
-3.18035e-07
3.86898e-06
-2.36271e-07
3.86445e-06
-1.55046e-07
3.86021e-06
-8.24818e-08
-1.97922e-08
3.85954e-06
4.10282e-06
-3.95955e-07
4.12534e-06
2.23628e-07
4.15624e-06
4.20727e-07
4.16315e-06
-3.55693e-07
4.08415e-06
-1.75023e-06
4.05796e-06
-1.16529e-06
4.05244e-06
-4.62629e-07
4.07577e-06
-1.22886e-07
4.10265e-06
7.94593e-08
4.11823e-06
-3.73686e-08
4.12053e-06
-2.96803e-07
4.11293e-06
-4.11089e-07
4.09659e-06
-4.5777e-07
4.0846e-06
-4.51097e-07
4.07385e-06
-3.84186e-07
4.06267e-06
-3.06848e-07
4.05537e-06
-2.28977e-07
4.05113e-06
-1.50802e-07
4.04753e-06
-7.88786e-08
-1.87307e-08
4.04646e-06
4.29964e-06
-3.76296e-07
4.32247e-06
2.00796e-07
4.35323e-06
3.89971e-07
4.35921e-06
-3.61677e-07
4.28112e-06
-1.67213e-06
4.25393e-06
-1.13811e-06
4.24909e-06
-4.57788e-07
4.27163e-06
-1.45422e-07
4.29885e-06
5.22379e-08
4.31374e-06
-5.22627e-08
4.31572e-06
-2.98781e-07
4.30857e-06
-4.03941e-07
4.29245e-06
-4.41644e-07
4.27976e-06
-4.38408e-07
4.26933e-06
-3.73758e-07
4.25831e-06
-2.95828e-07
4.25071e-06
-2.21378e-07
4.24666e-06
-1.46754e-07
4.2437e-06
-7.59204e-08
-1.76239e-08
4.2426e-06
4.506e-06
-3.56523e-07
4.52895e-06
1.77842e-07
4.55964e-06
3.59281e-07
4.5646e-06
-3.66628e-07
4.48763e-06
-1.59516e-06
4.4595e-06
-1.10998e-06
4.45519e-06
-4.5348e-07
4.47679e-06
-1.67018e-07
4.50424e-06
2.47843e-08
4.51855e-06
-6.65724e-08
4.5201e-06
-3.00333e-07
4.51338e-06
-3.97217e-07
4.49759e-06
-4.25856e-07
4.48419e-06
-4.25009e-07
4.47394e-06
-3.6351e-07
4.46316e-06
-2.85047e-07
4.45532e-06
-2.13539e-07
4.45141e-06
-1.42843e-07
4.44907e-06
-7.35801e-08
-1.67541e-08
4.4482e-06
4.72231e-06
-3.36718e-07
4.74521e-06
1.54938e-07
4.7759e-06
3.28593e-07
4.77975e-06
-3.70473e-07
4.7041e-06
-1.51951e-06
4.67513e-06
-1.08101e-06
4.67124e-06
-4.49593e-07
4.69174e-06
-1.87514e-07
4.7193e-06
-2.77623e-09
4.73313e-06
-8.03991e-08
4.73416e-06
-3.01369e-07
4.72782e-06
-3.90878e-07
4.71246e-06
-4.10495e-07
4.69839e-06
-4.1094e-07
4.68816e-06
-3.53275e-07
4.67771e-06
-2.746e-07
4.66964e-06
-2.05471e-07
4.66583e-06
-1.39032e-07
4.66407e-06
-7.18111e-08
-1.62684e-08
4.66358e-06
4.94902e-06
-3.16937e-07
4.97171e-06
1.32243e-07
5.00241e-06
2.97891e-07
5.00514e-06
-3.73195e-07
4.93097e-06
-1.44534e-06
4.90131e-06
-1.05136e-06
4.89777e-06
-4.4605e-07
4.91702e-06
-2.06766e-07
4.94453e-06
-3.02833e-08
4.95799e-06
-9.38649e-08
4.95842e-06
-3.018e-07
4.95241e-06
-3.84865e-07
4.93756e-06
-3.95649e-07
4.92287e-06
-3.96241e-07
4.91255e-06
-3.42958e-07
4.90254e-06
-2.64592e-07
4.89432e-06
-1.9725e-07
4.89045e-06
-1.35167e-07
4.88917e-06
-7.05311e-08
-1.6262e-08
4.88917e-06
5.18661e-06
-2.97228e-07
5.20894e-06
1.09907e-07
5.23961e-06
2.67223e-07
5.24125e-06
-3.74834e-07
5.16869e-06
-1.37278e-06
5.13852e-06
-1.02119e-06
5.13529e-06
-4.42821e-07
5.15319e-06
-2.24663e-07
5.18046e-06
-5.75606e-08
5.19366e-06
-1.07063e-07
5.19345e-06
-3.01586e-07
5.18767e-06
-3.79087e-07
5.17341e-06
-3.81389e-07
5.15819e-06
-3.81016e-07
5.14769e-06
-3.3246e-07
5.13819e-06
-2.55098e-07
5.1299e-06
-1.88953e-07
5.12588e-06
-1.31148e-07
5.12494e-06
-6.95927e-08
-1.67836e-08
5.12546e-06
5.4356e-06
-2.77641e-07
5.45745e-06
8.80573e-08
5.48793e-06
2.36744e-07
5.48862e-06
-3.75523e-07
5.41778e-06
-1.30193e-06
5.38722e-06
-9.90634e-07
5.38437e-06
-4.39972e-07
5.40081e-06
-2.41103e-07
5.42764e-06
-8.43856e-08
5.44065e-06
-1.20076e-07
5.4398e-06
-3.00731e-07
5.43415e-06
-3.73441e-07
5.42055e-06
-3.67792e-07
5.40496e-06
-3.65427e-07
5.39414e-06
-3.21641e-07
5.38519e-06
-2.46141e-07
5.37697e-06
-1.80739e-07
5.37269e-06
-1.26863e-07
5.37191e-06
-6.88165e-08
-1.78765e-08
5.373e-06
5.69655e-06
-2.58236e-07
5.71782e-06
6.6788e-08
5.74785e-06
2.06718e-07
5.74781e-06
-3.75487e-07
5.67879e-06
-1.23291e-06
5.64794e-06
-9.59784e-07
5.64559e-06
-4.37621e-07
5.6605e-06
-2.56021e-07
5.68661e-06
-1.10496e-07
5.69948e-06
-1.32948e-07
5.69803e-06
-2.9928e-07
5.69242e-06
-3.67827e-07
5.67958e-06
-3.54953e-07
5.66377e-06
-3.49616e-07
5.65257e-06
-3.10443e-07
5.6441e-06
-2.37672e-07
5.6361e-06
-1.7274e-07
5.63154e-06
-1.22302e-07
5.63076e-06
-6.8034e-08
-1.93955e-08
5.63228e-06
5.97004e-06
-2.39084e-07
5.99066e-06
4.61659e-08
6.01988e-06
1.77496e-07
6.01943e-06
-3.75035e-07
5.9523e-06
-1.16578e-06
5.92122e-06
-9.28702e-07
5.91948e-06
-4.35883e-07
5.93286e-06
-2.69404e-07
5.95795e-06
-1.35584e-07
5.97071e-06
-1.45704e-07
5.96871e-06
-2.97276e-07
5.96307e-06
-3.62193e-07
5.9511e-06
-3.42978e-07
5.93517e-06
-3.3369e-07
5.92358e-06
-2.98855e-07
5.91557e-06
-2.29656e-07
5.90787e-06
-1.65042e-07
5.90304e-06
-1.17479e-07
5.90211e-06
-6.70973e-08
-2.11448e-08
5.90386e-06
6.25667e-06
-2.20267e-07
6.27661e-06
2.62227e-08
6.30468e-06
1.49436e-07
6.30415e-06
-3.7451e-07
6.23894e-06
-1.10056e-06
6.20759e-06
-8.97356e-07
6.20658e-06
-4.34872e-07
6.21853e-06
-2.81353e-07
6.24228e-06
-1.5934e-07
6.25487e-06
-1.58291e-07
6.25239e-06
-2.94795e-07
6.2467e-06
-3.56499e-07
6.23565e-06
-3.3193e-07
6.21979e-06
-3.17833e-07
6.2078e-06
-2.8686e-07
6.20017e-06
-2.22026e-07
6.19289e-06
-1.57766e-07
6.18782e-06
-1.12411e-07
6.18665e-06
-6.593e-08
-2.28515e-08
6.18836e-06
6.55708e-06
-2.0188e-07
6.57631e-06
6.99641e-09
6.6031e-06
1.22647e-07
6.60257e-06
-3.7398e-07
6.53941e-06
-1.0374e-06
6.50758e-06
-8.65527e-07
6.50738e-06
-4.34674e-07
6.51811e-06
-2.92079e-07
6.54027e-06
-1.81501e-07
6.55257e-06
-1.70596e-07
6.54968e-06
-2.91902e-07
6.5439e-06
-3.50718e-07
6.5338e-06
-3.21831e-07
6.51826e-06
-3.02289e-07
6.50578e-06
-2.74387e-07
6.49847e-06
-2.14713e-07
6.49182e-06
-1.51111e-07
6.48654e-06
-1.07131e-07
6.48505e-06
-6.44429e-08
-2.43462e-08
6.48654e-06
6.87195e-06
-1.84037e-07
6.89037e-06
-1.14261e-08
6.91599e-06
9.70265e-08
6.91518e-06
-3.73171e-07
6.85446e-06
-9.76679e-07
6.82199e-06
-8.33062e-07
6.82239e-06
-4.35076e-07
6.83222e-06
-3.01912e-07
6.85261e-06
-2.01889e-07
6.86451e-06
-1.82492e-07
6.86122e-06
-2.88609e-07
6.85529e-06
-3.44796e-07
6.84621e-06
-3.12746e-07
6.83115e-06
-2.87229e-07
6.81821e-06
-2.61445e-07
6.81112e-06
-2.07624e-07
6.80524e-06
-1.45228e-07
6.79986e-06
-1.01758e-07
6.79802e-06
-6.26006e-08
-2.55162e-08
6.79919e-06
7.20198e-06
-1.66875e-07
7.21942e-06
-2.88696e-08
7.24417e-06
7.22772e-08
7.24245e-06
-3.71451e-07
7.18476e-06
-9.18994e-07
7.1517e-06
-7.99996e-07
7.15221e-06
-4.35592e-07
7.16147e-06
-3.11168e-07
7.18006e-06
-2.20478e-07
7.19139e-06
-1.93821e-07
7.18765e-06
-2.84877e-07
7.18151e-06
-3.38652e-07
7.17346e-06
-3.04694e-07
7.15906e-06
-2.72831e-07
7.14579e-06
-2.48173e-07
7.13871e-06
-2.00545e-07
7.13371e-06
-1.40232e-07
7.1285e-06
-9.65425e-08
7.12625e-06
-6.03563e-08
-2.63311e-08
7.12707e-06
7.5479e-06
-1.50553e-07
7.56411e-06
-4.50732e-08
7.5884e-06
4.79857e-08
7.58496e-06
-3.6801e-07
7.53093e-06
-8.64963e-07
7.49757e-06
-7.66633e-07
7.49763e-06
-4.35653e-07
7.50646e-06
-3.20004e-07
7.52331e-06
-2.37321e-07
7.53394e-06
-2.0446e-07
7.52975e-06
-2.80686e-07
7.52321e-06
-3.32106e-07
7.51613e-06
-2.97617e-07
7.50268e-06
-2.59383e-07
7.48917e-06
-2.34664e-07
7.48189e-06
-1.93257e-07
7.47782e-06
-1.36161e-07
7.47306e-06
-9.17888e-08
7.47039e-06
-5.76813e-08
-2.68644e-08
7.47092e-06
7.9105e-06
-1.3524e-07
7.92515e-06
-5.97256e-08
7.9494e-06
2.3733e-08
7.9436e-06
-3.62206e-07
7.89355e-06
-8.14912e-07
7.86042e-06
-7.33507e-07
7.85943e-06
-4.34664e-07
7.86781e-06
-3.28384e-07
7.88309e-06
-2.52594e-07
7.89289e-06
-2.14266e-07
7.88827e-06
-2.76064e-07
7.88108e-06
-3.24918e-07
7.87481e-06
-2.91347e-07
7.86253e-06
-2.471e-07
7.84907e-06
-2.21202e-07
7.84138e-06
-1.85568e-07
7.83807e-06
-1.3285e-07
7.83414e-06
-8.78621e-08
7.83113e-06
-5.46728e-08
-2.71275e-08
7.83139e-06
8.29055e-06
-1.21106e-07
8.3033e-06
-7.24832e-08
8.32784e-06
-8.00217e-10
8.31946e-06
-3.53831e-07
8.27319e-06
-7.68637e-07
8.24099e-06
-7.01315e-07
8.2386e-06
-4.32266e-07
8.24613e-06
-3.35914e-07
8.26005e-06
-2.66521e-07
8.26899e-06
-2.23205e-07
8.26385e-06
-2.70919e-07
8.2559e-06
-3.1697e-07
8.25001e-06
-2.8546e-07
8.23916e-06
-2.36247e-07
8.2261e-06
-2.08139e-07
8.21795e-06
-1.77425e-07
8.21503e-06
-1.29921e-07
8.21228e-06
-8.51175e-08
8.20922e-06
-5.16097e-08
-2.70502e-08
8.20914e-06
8.68886e-06
-1.08307e-07
8.69932e-06
-8.2943e-08
8.72427e-06
-2.57495e-08
8.71373e-06
-3.43287e-07
8.67028e-06
-7.25193e-07
8.6399e-06
-6.7093e-07
8.63602e-06
-4.28385e-07
8.64217e-06
-3.42061e-07
8.65475e-06
-2.79102e-07
8.66276e-06
-2.31221e-07
8.65718e-06
-2.65339e-07
8.64822e-06
-3.08012e-07
8.6424e-06
-2.79641e-07
8.63314e-06
-2.26988e-07
8.62093e-06
-1.95929e-07
8.61247e-06
-1.68959e-07
8.6095e-06
-1.26956e-07
8.60803e-06
-8.36424e-08
8.60544e-06
-4.90216e-08
-2.65034e-08
8.60489e-06
9.10628e-06
-9.69647e-08
9.11419e-06
-9.08588e-08
9.13934e-06
-5.09004e-08
9.12777e-06
-3.31714e-07
9.08547e-06
-6.8289e-07
9.05766e-06
-6.4312e-07
9.05265e-06
-4.23378e-07
9.05673e-06
-3.46143e-07
9.0676e-06
-2.89963e-07
9.07469e-06
-2.38318e-07
9.06883e-06
-2.59472e-07
9.05877e-06
-2.97954e-07
9.05287e-06
-2.73741e-07
9.0453e-06
-2.19421e-07
9.03434e-06
-1.84968e-07
9.02585e-06
-1.60464e-07
9.02253e-06
-1.23644e-07
9.02205e-06
-8.31622e-08
9.02052e-06
-4.74891e-08
-2.55341e-08
9.01955e-06
9.54365e-06
-8.7151e-08
9.54904e-06
-9.62505e-08
9.57382e-06
-7.56844e-08
9.56274e-06
-3.20629e-07
9.52007e-06
-6.40227e-07
9.49474e-06
-6.17786e-07
9.48925e-06
-4.17894e-07
9.4906e-06
-3.47489e-07
9.49921e-06
-2.98575e-07
9.50553e-06
-2.44634e-07
9.4998e-06
-2.53742e-07
9.48896e-06
-2.8712e-07
9.48267e-06
-2.67448e-07
9.47673e-06
-2.13483e-07
9.46727e-06
-1.75509e-07
9.45906e-06
-1.52249e-07
9.45534e-06
-1.19921e-07
9.45528e-06
-8.31019e-08
9.45513e-06
-4.73393e-08
-2.45415e-08
9.45413e-06
1.00019e-05
-7.8886e-08
1.0005e-05
-9.93577e-08
1.00286e-05
-9.93348e-08
1.00193e-05
-3.11316e-07
9.97573e-06
-5.96646e-07
9.95164e-06
-5.93693e-07
9.94631e-06
-4.12567e-07
9.94485e-06
-3.46027e-07
9.95091e-06
-3.04634e-07
9.95667e-06
-2.50394e-07
9.95158e-06
-2.48653e-07
9.94054e-06
-2.76079e-07
9.93351e-06
-2.60416e-07
9.9287e-06
-2.08677e-07
9.92084e-06
-1.67651e-07
9.91315e-06
-1.44555e-07
9.90914e-06
-1.15907e-07
9.90896e-06
-8.29233e-08
9.90996e-06
-4.83435e-08
-2.42009e-08
9.90962e-06
1.04819e-05
-7.21326e-08
1.04831e-05
-1.00566e-07
1.05048e-05
-1.21059e-07
1.04981e-05
-3.04548e-07
1.04539e-05
-5.52532e-07
1.04296e-05
-5.69388e-07
1.04251e-05
-4.08046e-07
1.04214e-05
-3.423e-07
1.04241e-05
-3.07394e-07
1.04296e-05
-2.55857e-07
1.04257e-05
-2.44736e-07
1.04147e-05
-2.65082e-07
1.04069e-05
-2.52614e-07
1.04026e-05
-2.04368e-07
1.03961e-05
-1.61218e-07
1.03891e-05
-1.37536e-07
1.0385e-05
-1.1176e-07
1.03844e-05
-8.23671e-08
1.03861e-05
-4.99984e-08
-2.4942e-08
1.03868e-05
1.09847e-05
-6.67808e-08
1.09844e-05
-1.00349e-07
1.10036e-05
-1.40214e-07
1.09996e-05
-3.00496e-07
1.0956e-05
-5.08968e-07
1.09304e-05
-5.43762e-07
1.09269e-05
-4.04599e-07
1.09222e-05
-3.37563e-07
1.09213e-05
-3.06509e-07
1.09257e-05
-2.60226e-07
1.09229e-05
-2.41933e-07
1.09125e-05
-2.5472e-07
1.09039e-05
-2.4406e-07
1.08997e-05
-2.00109e-07
1.08944e-05
-1.55891e-07
1.0888e-05
-1.31204e-07
1.08839e-05
-1.07645e-07
1.0883e-05
-8.14188e-08
1.08847e-05
-5.17846e-08
-2.67186e-08
1.08865e-05
1.15112e-05
-6.26548e-08
1.15101e-05
-9.91976e-08
1.15262e-05
-1.56327e-07
1.15246e-05
-2.98901e-07
1.14831e-05
-4.67502e-07
1.14553e-05
-5.15949e-07
1.14523e-05
-4.01529e-07
1.14482e-05
-3.33525e-07
1.14443e-05
-3.02546e-07
1.14462e-05
-2.62169e-07
1.1444e-05
-2.3969e-07
1.14346e-05
-2.45371e-07
1.14257e-05
-2.35125e-07
1.14212e-05
-1.95602e-07
1.14167e-05
-1.51399e-07
1.1411e-05
-1.25503e-07
1.1407e-05
-1.03664e-07
1.14058e-05
-8.01902e-08
1.14072e-05
-5.32624e-08
-2.92942e-08
1.14098e-05
1.20627e-05
-5.95091e-08
1.20611e-05
-9.75751e-08
1.20738e-05
-1.69036e-07
1.20742e-05
-2.9929e-07
1.20363e-05
-4.29625e-07
1.20061e-05
-4.85818e-07
1.20021e-05
-3.97458e-07
1.19999e-05
-3.31342e-07
1.1994e-05
-2.96647e-07
1.19927e-05
-2.60883e-07
1.19902e-05
-2.37152e-07
1.19819e-05
-2.37124e-07
1.1973e-05
-2.26244e-07
1.19682e-05
-1.90805e-07
1.19643e-05
-1.47477e-07
1.19592e-05
-1.20396e-07
1.19554e-05
-9.98063e-08
1.19539e-05
-7.875e-08
1.1955e-05
-5.43413e-08
-3.21423e-08
1.19578e-05
1.26401e-05
-5.70426e-08
1.26385e-05
-9.59614e-08
1.26475e-05
-1.78041e-07
1.26493e-05
-3.01102e-07
1.26162e-05
-3.96526e-07
1.25843e-05
-4.53873e-07
1.25777e-05
-3.90873e-07
1.25775e-05
-3.31156e-07
1.25712e-05
-2.90307e-07
1.25667e-05
-2.5637e-07
1.25629e-05
-2.33425e-07
1.25555e-05
-2.2968e-07
1.2547e-05
-2.17774e-07
1.2542e-05
-1.85785e-07
1.25385e-05
-1.43998e-07
1.2534e-05
-1.159e-07
1.25302e-05
-9.59897e-08
1.25287e-05
-7.72078e-08
1.25294e-05
-5.50392e-08
-3.48338e-08
1.25321e-05
1.32448e-05
-5.48933e-08
1.32438e-05
-9.4948e-08
1.32488e-05
-1.831e-07
1.32515e-05
-3.03795e-07
1.32238e-05
-3.68771e-07
1.31909e-05
-4.21051e-07
1.31804e-05
-3.80344e-07
1.31813e-05
-3.32022e-07
1.31762e-05
-2.85206e-07
1.31694e-05
-2.496e-07
1.31639e-05
-2.27873e-07
1.31567e-05
-2.22504e-07
1.31488e-05
-2.09843e-07
1.31436e-05
-1.80639e-07
1.31405e-05
-1.40899e-07
1.31366e-05
-1.12011e-07
1.31329e-05
-9.23004e-08
1.31312e-05
-7.54729e-08
1.31316e-05
-5.54479e-08
-3.70872e-08
1.31339e-05
1.3878e-05
-5.26913e-08
1.38782e-05
-9.51404e-08
1.38792e-05
-1.84096e-07
1.38821e-05
-3.0676e-07
1.38597e-05
-3.4633e-07
1.38271e-05
-3.88467e-07
1.38121e-05
-3.65385e-07
1.38119e-05
-3.31759e-07
1.38093e-05
-2.82588e-07
1.3802e-05
-2.42367e-07
1.37944e-05
-2.20304e-07
1.37869e-05
-2.15e-07
1.37794e-05
-2.02283e-07
1.37743e-05
-1.75586e-07
1.37715e-05
-1.38075e-07
1.37683e-05
-1.08782e-07
1.37649e-05
-8.88747e-08
1.37629e-05
-7.35169e-08
1.37631e-05
-5.56068e-08
-3.88268e-08
1.37648e-05
1.45411e-05
-5.01681e-08
1.45425e-05
-9.64916e-08
1.45398e-05
-1.81388e-07
1.45425e-05
-3.09452e-07
1.45247e-05
-3.28601e-07
1.44934e-05
-3.57124e-07
1.44747e-05
-3.4669e-07
1.44713e-05
-3.28334e-07
1.4471e-05
-2.82354e-07
1.44653e-05
-2.36619e-07
1.44564e-05
-2.11415e-07
1.44479e-05
-2.06482e-07
1.44404e-05
-1.94795e-07
1.44354e-05
-1.70588e-07
1.44328e-05
-1.35476e-07
1.44302e-05
-1.06216e-07
1.44272e-05
-8.58268e-08
1.44251e-05
-7.14206e-08
1.4425e-05
-5.55087e-08
-4.00977e-08
1.44263e-05
1.52358e-05
-4.7135e-08
1.52373e-05
-9.79636e-08
1.52332e-05
-1.77232e-07
1.52347e-05
-3.10942e-07
1.52199e-05
-3.13872e-07
1.51907e-05
-3.27901e-07
1.51697e-05
-3.257e-07
1.51624e-05
-3.21013e-07
1.51628e-05
-2.82725e-07
1.51597e-05
-2.33553e-07
1.51509e-05
-2.02595e-07
1.51412e-05
-1.96793e-07
1.51334e-05
-1.8696e-07
1.51282e-05
-1.65458e-07
1.51259e-05
-1.33148e-07
1.51239e-05
-1.04223e-07
1.51214e-05
-8.33326e-08
1.51192e-05
-6.92582e-08
1.51189e-05
-5.51567e-08
-4.10044e-08
1.51198e-05
1.59639e-05
-4.37239e-08
1.59763e-05
-1.10353e-07
1.59684e-05
-1.69282e-07
1.59597e-05
-3.02306e-07
1.59456e-05
-2.99754e-07
1.59205e-05
-3.02836e-07
1.58989e-05
-3.04067e-07
1.58882e-05
-3.10331e-07
1.58867e-05
-2.81207e-07
1.58862e-05
-2.33016e-07
1.58789e-05
-1.95315e-07
1.58685e-05
-1.86353e-07
1.58599e-05
-1.78401e-07
1.58544e-05
-1.59957e-07
1.58521e-05
-1.30876e-07
1.58506e-05
-1.02722e-07
1.58488e-05
-8.14892e-08
1.58467e-05
-6.71969e-08
1.58461e-05
-5.45394e-08
-4.1707e-08
1.58468e-05
1.67259e-05
-3.90146e-08
1.67242e-05
-1.08685e-07
1.67157e-05
-1.60741e-07
1.67096e-05
-2.96195e-07
1.67039e-05
-2.94098e-07
1.66848e-05
-2.83734e-07
1.66636e-05
-2.82841e-07
1.66501e-05
-2.96818e-07
1.66454e-05
-2.76523e-07
1.66461e-05
-2.337e-07
1.66413e-05
-1.90539e-07
1.66313e-05
-1.76312e-07
1.66219e-05
-1.69062e-07
1.66158e-05
-1.53825e-07
1.66133e-05
-1.2834e-07
1.66122e-05
-1.01656e-07
1.66109e-05
-8.01651e-08
1.66092e-05
-6.55377e-08
1.66083e-05
-5.36706e-08
-4.21433e-08
1.66088e-05
1.75254e-05
-3.40641e-08
1.75313e-05
-1.14582e-07
1.75192e-05
-1.48591e-07
1.75037e-05
-2.80783e-07
1.74975e-05
-2.87892e-07
1.74845e-05
-2.70745e-07
1.74652e-05
-2.63508e-07
1.74498e-05
-2.81368e-07
1.74417e-05
-2.68438e-07
1.74414e-05
-2.33375e-07
1.74391e-05
-1.88284e-07
1.74305e-05
-1.67708e-07
1.74207e-05
-1.59275e-07
1.74139e-05
-1.47019e-07
1.74108e-05
-1.25222e-07
1.74099e-05
-1.00733e-07
1.74091e-05
-7.93685e-08
1.74079e-05
-6.4332e-08
1.7407e-05
-5.27921e-08
-4.23317e-08
1.74072e-05
1.83631e-05
-2.88175e-08