/*--------------------------------*- C++ -*----------------------------------*\
| =========                 |                                                 |
| \\      /  F ield         | OpenFOAM: The Open Source CFD Toolbox           |
|  \\    /   O peration     | Version:  v1906                                 |
|   \\  /    A nd           | Web:      www.OpenFOAM.com                      |
|    \\/     M anipulation  |                                                 |
\*---------------------------------------------------------------------------*/
FoamFile
{
    version     2.0;
    format      ascii;
    class       volScalarField;
    location    "8.7";
    object      p;
}
// * * * * * * * * * * * * * * * * * * * * * * * * * * * * * * * * * * * * * //

dimensions      [0 2 -2 0 0 0 0];


internalField   nonuniform List<scalar> 
9600
(
-3.67818e-11
0.0025934
0.00265172
4.01377e-05
-0.0015054
0.00140195
-0.000306239
0.00298852
0.00617928
0.0080346
0.0082024
0.0098592
0.0115233
0.0128382
0.0125283
0.0132219
0.0135458
0.015584
0.0185126
0.0233979
-5.87025e-07
0.00260539
0.00263694
3.2276e-05
-0.00149747
0.00141516
-0.000304694
0.0029894
0.00617174
0.00803379
0.00820561
0.00986678
0.0115285
0.0128256
0.0125378
0.0132071
0.0135681
0.0155544
0.0185565
0.023056
2.33499e-06
0.00261876
0.00261169
3.88938e-05
-0.00148122
0.00141902
-0.000292378
0.00298802
0.00615747
0.0080453
0.00821124
0.00988911
0.0115347
0.0128126
0.0125543
0.0131885
0.0136029
0.015513
0.01858
0.0225378
1.11132e-05
0.00262628
0.00258297
6.14191e-05
-0.00145459
0.0014211
-0.000256219
0.00298589
0.00614304
0.00806758
0.00822177
0.00991879
0.0115437
0.012797
0.012574
0.0131685
0.0136449
0.0154699
0.018559
0.0220725
2.68621e-05
0.00262713
0.00255157
9.8537e-05
-0.00141949
0.0014241
-0.000193052
0.00298712
0.00612908
0.00809452
0.00823966
0.00995331
0.0115569
0.0127782
0.0125956
0.0131469
0.0136903
0.0154235
0.0185128
0.0216533
4.94555e-05
0.00262167
0.0025193
0.000148943
-0.00137618
0.00143228
-0.000105244
0.00299497
0.0061148
0.008125
0.00826624
0.0099904
0.0115739
0.0127552
0.0126179
0.0131233
0.0137361
0.0153758
0.0184427
0.0212668
7.75447e-05
0.00261174
0.00248885
0.000212173
-0.00132505
0.00144565
-4.6823e-08
0.00301029
0.00610011
0.00815809
0.00830071
0.0100275
0.0115931
0.0127276
0.01264
0.0130978
0.0137789
0.0153276
0.0183467
0.0209072
0.000109438
0.00259983
0.00246154
0.000288097
-0.0012644
0.00146194
0.000114145
0.00303098
0.00608405
0.00819142
0.00834103
0.0100616
0.0116117
0.012695
0.0126609
0.0130707
0.0138161
0.0152798
0.0182244
0.0205687
0.000143811
0.00258784
0.00243711
0.000376807
-0.00119257
0.0014781
0.000230078
0.00305239
0.00606542
0.00822209
0.00838398
0.0100892
0.0116271
0.0126573
0.0126794
0.0130423
0.0138452
0.015233
0.0180767
0.0202456
0.000179866
0.00257663
0.00241466
0.000478065
-0.0011085
0.00149235
0.000343395
0.00307043
0.0060441
0.00824764
0.00842588
0.0101072
0.0116368
0.0126148
0.0126948
0.0130135
0.0138643
0.0151874
0.0179057
0.0199332
0.000217214
0.00256643
0.00239349
0.000590758
-0.00101278
0.00150448
0.000452942
0.00308371
0.00602153
0.00826653
0.00846336
0.0101133
0.0116386
0.0125679
0.012706
0.012985
0.0138715
0.0151422
0.0177144
0.0196283
0.00025572
0.00255734
0.00237321
0.000712725
-0.000908058
0.00151525
0.000560232
0.00309117
0.00600052
0.00827855
0.00848698
0.0101063
0.0116313
0.0125171
0.0127121
0.0129573
0.0138652
0.0150957
0.0175066
0.0193273
0.000295348
0.00254941
0.00235379
0.000841067
-0.000798044
0.00152557
0.000668165
0.00310049
0.0059843
0.00828493
0.0085097
0.0100862
0.0116148
0.0124632
0.012712
0.0129307
0.0138451
0.0150454
0.0172862
0.0190249
0.000336081
0.00254264
0.00233542
0.000972796
-0.000685883
0.00153611
0.000779215
0.00311219
0.00597557
0.00828758
0.00852532
0.0100546
0.0115899
0.0124073
0.012705
0.0129049
0.0138112
0.0149886
0.0170561
0.018716
0.000377911
0.00253698
0.00231838
0.00110555
-0.000573138
0.0015473
0.000894376
0.00312743
0.0059756
0.00828818
0.00853516
0.0100135
0.0115578
0.0123504
0.0126906
0.0128793
0.0137642
0.0149225
0.0168195
0.018398
0.000420839
0.00253242
0.00230299
0.00123777
-0.000459784
0.00155948
0.00101336
0.00314609
0.00598382
0.00828766
0.00854074
0.00996525
0.0115198
0.0122933
0.0126686
0.0128525
0.0137052
0.0148453
0.016579
0.0180699
0.000464881
0.00252899
0.00228952
0.0013685
-0.000344901
0.00157293
0.00113521
0.00316739
0.00599929
0.00828632
0.00854326
0.00991184
0.011477
0.0122369
0.0126389
0.0128234
0.0136352
0.0147559
0.0163374
0.0177321
0.000510085
0.00252669
0.00227822
0.00149715
-0.00022736
0.00158787
0.00125889
0.00319047
0.00601939
0.00828426
0.00854334
0.00985494
0.0114303
0.0121811
0.0126013
0.0127909
0.0135552
0.0146529
0.0160963
0.017387
0.000556523
0.00252551
0.00226932
0.00162334
-0.000106243
0.00160451
0.0013836
0.00321481
0.00604331
0.00828178
0.00854113
0.00979581
0.01138
0.0121258
0.0125561
0.0127538
0.013466
0.0145355
0.0158569
0.0170378
0.000604287
0.00252539
0.00226309
0.0017467
1.90766e-05
0.00162303
0.00150876
0.00324026
0.00606998
0.00827929
0.00853662
0.00973516
0.0113265
0.0120709
0.0125034
0.012711
0.0133682
0.0144033
0.0156193
0.0166875
0.000653498
0.00252626
0.00225979
0.00186688
0.000149028
0.0016437
0.00163387
0.00326692
0.00609845
0.00827726
0.00852961
0.00967344
0.0112699
0.0120158
0.0124433
0.0126612
0.0132623
0.0142566
0.0153831
0.0163394
0.000704293
0.00252807
0.00225971
0.00198356
0.000283818
0.00166685
0.0017585
0.00329498
0.00612792
0.00827643
0.00851989
0.00961062
0.0112108
0.0119602
0.0123757
0.0126033
0.0131493
0.0140958
0.0151471
0.0159967
0.000756812
0.00253077
0.00226314
0.00209644
0.000423428
0.00169279
0.00188222
0.00332476
0.00615767
0.00827741
0.00850736
0.00954639
0.0111495
0.0119037
0.0123007
0.012536
0.0130294
0.013922
0.0149109
0.0156617
0.000811226
0.00253427
0.00227035
0.00220533
0.000567709
0.00172188
0.00200465
0.00335659
0.0061869
0.00828055
0.00849204
0.00948046
0.0110862
0.0118461
0.0122181
0.0124587
0.0129025
0.013736
0.0146741
0.0153364
0.000867741
0.00253843
0.00228152
0.0023101
0.00071644
0.00175447
0.00212542
0.00339092
0.00621482
0.00828628
0.00847002
0.00941232
0.0110211
0.0117871
0.0121278
0.0123711
0.0127693
0.0135374
0.0144341
0.0150243
0.000926551
0.00254318
0.00229683
0.00241065
0.000869249
0.00179101
0.00224409
0.00342815
0.0062408
0.00829487
0.00844999
0.00934112
0.0109542
0.011727
0.0120294
0.0122717
0.0126318
0.0133274
0.0141864
0.0147269
0.000987844
0.00254846
0.00231644
0.00250695
0.00102555
0.00183213
0.0023602
0.00346861
0.00626435
0.00830612
0.00842929
0.00926612
0.010885
0.0116666
0.0119232
0.012159
0.0124903
0.0131104
0.0139272
0.0144409
0.00105184
0.00255419
0.00234037
0.00259916
0.00118475
0.00187835
0.00247354
0.00351253
0.00628494
0.00831966
0.00840852
0.00918679
0.0108127
0.0116062
0.0118105
0.012032
0.0123434
0.0128907
0.013656
0.014159
0.00111877
0.00256034
0.00236849
0.00268747
0.00134643
0.00193009
0.00258393
0.00356026
0.00630205
0.00833623
0.00838839
0.00910276
0.0107361
0.0115457
0.011693
0.0118906
0.0121893
0.0126711
0.0133756
0.0138734
0.00118879
0.00256703
0.00240063
0.00277212
0.00151014
0.00198774
0.00269118
0.00361226
0.00631523
0.00835296
0.00836987
0.00901395
0.0106539
0.0114848
0.0115721
0.0117357
0.0120269
0.0124524
0.0130898
0.0135794
0.00126211
0.00257429
0.00243654
0.00285343
0.00167541
0.00205166
0.0027951
0.00366891
0.00632425
0.00836995
0.00835394
0.0089205
0.0105647
0.0114232
0.0114489
0.0115685
0.0118561
0.0122348
0.0128022
0.013275
0.00133891
0.00258175
0.00247583
0.00293168
0.00184181
0.00212208
0.00289549
0.00373038
0.00632925
0.00838585
0.00834144
0.00882291
0.0104672
0.01136
0.0113242
0.0113899
0.0116769
0.0120199
0.0125164
0.0129598
0.00141933
0.0025907
0.00251807
0.00300724
0.00200902
0.00219912
0.00299221
0.00379676
0.0063307
0.00839888
0.00833267
0.00872232
0.0103602
0.0112942
0.0111993
0.0111998
0.0114884
0.0118092
0.0122364
0.0126369
0.00150348
0.00260251
0.00256286
0.0030804
0.00217678
0.00228299
0.00308508
0.00386796
0.00632939
0.00840741
0.0083273
0.00861982
0.0102425
0.0112244
0.0110765
0.0109996
0.0112891
0.0116026
0.0119658
0.0123111
0.00159143
0.00261669
0.00260985
0.00315145
0.00234482
0.00237395
0.00317384
0.00394356
0.00632649
0.00841024
0.00832458
0.00851639
0.0101135
0.011149
0.0109569
0.0107921
0.0110781
0.0113986
0.0117075
0.0119879
0.00168325
0.0026335
0.00265866
0.00322083
0.0025128
0.00247222
0.00325843
0.00402263
0.00632319
0.00840682
0.00832359
0.00841302
0.00997288
0.0110659
0.0108414
0.0105801
0.0108556
0.0111957
0.0114628
0.0116737
0.00177896
0.00265338
0.0027091
0.00328885
0.0026802
0.00257825
0.00333917
0.00410379
0.00632009
0.00839682
0.00832383
0.00831049
0.0098204
0.0109732
0.0107307
0.0103665
0.0106211
0.0109921
0.011232
0.0113751
0.00187862
0.0026766
0.00276118
0.00335578
0.00284629
0.00269262
0.00341683
0.00418523
0.00631733
0.0083802
0.00832497
0.00820964
0.00965527
0.0108687
0.0106257
0.0101551
0.0103743
0.0107853
0.0110146
0.0110968
0.00198222
0.00270332
0.00281498
0.00342194
0.00301017
0.00281523
0.00349255
0.00426555
0.0063149
0.00835713
0.00832645
0.00811188
0.00947708
0.010749
0.0105262
0.00995016
0.0101167
0.0105723
0.0108088
0.0108405
0.00208979
0.0027338
0.00287046
0.00348924
0.00317064
0.00294537
0.00356799
0.00434391
0.00631255
0.00832726
0.00832787
0.00801937
0.00928675
0.0106102
0.0104301
0.00975646
0.00985015
0.0103495
0.0106132
0.0106068
0.00220131
0.00276841
0.0029275
0.00355824
0.00332657
0.00308194
0.00364557
0.00441999
0.00630894
0.00828951
0.00832854
0.00793474
0.00908691
0.0104489
0.0103338
0.0095787
0.00957803
0.0101122
0.0104252
0.0103965
0.00231658
0.0028077
0.00298593
0.0036297
0.00347779
0.00322293
0.00372718
0.00449439
0.00630273
0.00824265
0.00832691
0.00786046
0.00888104
0.0102622
0.0102324
0.009421
0.00930665
0.00985576
0.0102388
0.0102082
0.00243546
0.0028525
0.00304489
0.00370423
0.00362558
0.00336585
0.00381251
0.0045681
0.00629413
0.00818544
0.0083211
0.00779837
0.00867303
0.0100491
0.0101201
0.00928545
0.00904525
0.00957777
0.0100444
0.010039
0.00255777
0.00290372
0.00310333
0.0037819
0.00377216
0.00350862
0.00390024
0.00464246
0.00628454
0.00811655
0.00830818
0.00774899
0.00846796
0.00981195
0.00999065
0.00916966
0.00880459
0.00928191
0.00983088
0.00988444
0.0026829
0.00296243
0.00316063
0.00386219
0.00392028
0.00365014
0.00398883
0.00471847
0.00627527
0.00803504
0.00828414
0.00771083
0.00827178
0.00955676
0.0098399
0.00906658
0.00859237
0.00897711
0.00958822
0.00973638
0.00281007
0.00303005
0.00321675
0.0039431
0.00407253
0.00379107
0.00407532
0.00479516
0.00626779
0.00794255
0.00824542
0.00768064
0.0080901
0.00929132
0.00966765
0.00896814
0.0084093
0.00867601
0.00931332
0.00958113
0.00293858
0.0031076
0.00327234
0.00402179
0.00422998
0.00393357
0.00415622
0.00487006
0.00626451
0.00784291
0.00818957
0.00765314
0.00792632
0.00902383
0.00947611
0.00886766
0.00825187
0.00839251
0.00901206
0.00940065
0.00306779
0.0031954
0.00332965
0.00409506
0.00439138
0.00408121
0.00422977
0.00493912
0.00626731
0.00774206
0.0081174
0.0076226
0.00778033
0.00876143
0.0092679
0.00876038
0.0081156
0.00813583
0.00869646
0.00918157
0.00319711
0.00329358
0.00339132
0.00415935
0.00455342
0.00423861
0.00429733
0.00499612
0.00627505
0.00764778
0.00803261
0.00758442
0.00764988
0.00850927
0.00904667
0.00864268
0.00799438
0.00790894
0.00838296
0.00892217
0.003326
0.00340181
0.00346057
0.00421246
0.00471122
0.00440952
0.0043621
0.00503486
0.00628424
0.00756719
0.00794212
0.00753656
0.00753045
0.00826932
0.00881683
0.00851352
0.00788251
0.00770963
0.00808744
0.00863475
0.00345402
0.00351929
0.00354059
0.00425506
0.00485895
0.00459491
0.00442957
0.00505195
0.00628743
0.00750182
0.00785635
0.00748197
0.00741725
0.0080409
0.00858173
0.00837356
0.00777635
0.0075332
0.00781899
0.00833847
0.00358114
0.00364512
0.00363317
0.0042887
0.00498974
0.00479109
0.00451054
0.00505115
0.00627309
0.00744712
0.00778402
0.00742586
0.00730814
0.0078223
0.00834289
0.00822312
0.007675
0.00737664
0.00757843
0.00805104
0.00370734
0.00377834
0.0037401
0.00431667
0.00509616
0.00499008
0.00461519
0.00503922
0.0062321
0.00739603
0.00772979
0.00737706
0.00720537
0.00761314
0.00810076
0.00806078
0.0075771
0.007239
0.00736292
0.0077843
0.00383303
0.00391613
0.00386268
0.00434519
0.00517565
0.00518312
0.00474678
0.00502655
0.00616046
0.00733405
0.0076912
0.00734528
0.00711501
0.00741602
0.00785736
0.00788448
0.00747884
0.00712073
0.00717049
0.00754169
0.00395965
0.00405546
0.00399908
0.00437993
0.00522747
0.00536
0.00490434
0.00503209
0.00606467
0.0072445
0.00766083
0.0073342
0.00704256
0.0072342
0.0076163
0.00769296
0.00737365
0.00702051
0.00700196
0.00732229
0.00408707
0.00419495
0.00414939
0.00442602
0.00525237
0.00550887
0.00508007
0.00507185
0.00595894
0.00712095
0.00762263
0.00734299
0.00699552
0.00707252
0.00738256
0.00748855
0.00725374
0.00693186
0.0068601
0.00712619
0.00421842
0.0043286
0.00431
0.00448466
0.00525246
0.00562328
0.00526594
0.0051501
0.00586624
0.00696925
0.00755663
0.00736252
0.00697933
0.00693956
0.00716261
0.00727738
0.00711566
0.00684475
0.00674378
0.0069547
0.00435741
0.00447335
0.00446988
0.00455225
0.00522727
0.00569896
0.00545192
0.00526367
0.00580439
0.00680122
0.0074519
0.00737302
0.00698994
0.00684446
0.00696442
0.00706508
0.00696103
0.00674919
0.00664596
0.00681034
0.00449853
0.0046019
0.00463093
0.00464726
0.00520557
0.00573593
0.00562013
0.00540446
0.00577991
0.0066368
0.00731324
0.00735618
0.00701538
0.00678989
0.00680018
0.00686041
0.00679492
0.00663935
0.00655533
0.00669134
0.00464174
0.00472981
0.00478133
0.00476417
0.00519909
0.00574048
0.00575734
0.00555942
0.00579309
0.00649406
0.00714953
0.00730157
0.00703722
0.00676807
0.00667944
0.00667586
0.0066238
0.00651588
0.00646143
0.00658966
0.00478671
0.00485301
0.00492254
0.00489681
0.00521502
0.00572301
0.00585711
0.00571241
0.00583778
0.00638477
0.00697995
0.00721129
0.00704133
0.00676749
0.00660142
0.00652547
0.00645852
0.00638451
0.00636048
0.00649556
0.0049299
0.00497472
0.00505472
0.00503636
0.00525466
0.0056968
0.00591913
0.0058518
0.00590935
0.00631539
0.0068264
0.00709543
0.00701732
0.00677309
0.00655723
0.00641549
0.00631164
0.00625075
0.00625403
0.00640143
0.00507178
0.00509254
0.00517792
0.00517497
0.00531643
0.00567848
0.00595108
0.00596833
0.00599658
0.0062819
0.00669742
0.00696764
0.0069634
0.00677161
0.00653687
0.00634357
0.0061955
0.00612386
0.00614611
0.0063064
0.0052129
0.00521585
0.00528734
0.00530269
0.00539594
0.00567524
0.0059605
0.00605591
0.00608822
0.00628102
0.00659984
0.00684663
0.00689001
0.00675374
0.00652881
0.00630393
0.00611591
0.00601471
0.00604074
0.00621348
0.00534942
0.00533187
0.00539347
0.00542228
0.00548651
0.00568961
0.00595875
0.00611464
0.00617354
0.00630745
0.00653733
0.00674358
0.00681115
0.00672122
0.00652053
0.00628632
0.00607167
0.00593599
0.00594608
0.00612525
0.0054809
0.00545235
0.00549271
0.00552814
0.00558027
0.00572319
0.00596042
0.00615292
0.00624503
0.00634939
0.00650739
0.00666347
0.00673588
0.00668247
0.00650822
0.00627925
0.006054
0.00589115
0.00587269
0.00604621
0.00560467
0.0055633
0.00559131
0.00562635
0.00567144
0.00576943
0.00596761
0.00617462
0.00630202
0.00639968
0.00650551
0.00661436
0.0066765
0.00664911
0.00650236
0.00628138
0.00605441
0.00587617
0.00582685
0.00598054
0.00572285
0.00567524
0.0056853
0.00571371
0.00575494
0.00582416
0.00598443
0.006188
0.00634494
0.00645352
0.00652641
0.00659426
0.00663727
0.00662256
0.00650571
0.00629954
0.00607499
0.00589153
0.00581686
0.0059407
0.00583251
0.00577975
0.00577643
0.00579491
0.00583106
0.00588402
0.006013
0.00619969
0.00637366
0.00650559
0.00656933
0.00660779
0.00662868
0.00661041
0.00651524
0.00633199
0.00611316
0.00592998
0.00584066
0.00593538
0.00592821
0.00587026
0.00586476
0.00587367
0.0058996
0.00594246
0.00605135
0.0062191
0.00639427
0.00654404
0.00662069
0.00665275
0.00666441
0.00664045
0.0065503
0.00638779
0.0061789
0.00599352
0.00589284
0.00596016
0.00602018
0.00596203
0.00594255
0.00593873
0.00595663
0.00599319
0.00609226
0.00625111
0.00642534
0.00657887
0.00666343
0.00670562
0.00672585
0.00671476
0.0066362
0.00649116
0.00629778
0.00611056
0.00599838
0.00603986
0.00609751
0.00603816
0.00601654
0.00600217
0.00600572
0.00603532
0.00612373
0.00627638
0.00646253
0.00663059
0.00672397
0.00677556
0.00680616
0.00681568
0.00676176
0.00663844
0.00646625
0.00628338
0.0061615
0.00618231
0.00615935
0.00609971
0.00608265
0.00605961
0.00605083
0.00607469
0.00615475
0.00629186
0.00647661
0.0066714
0.00680218
0.00688138
0.0069297
0.00695947
0.00694059
0.00684676
0.00669473
0.00651148
0.00637033
0.0063554
0.0062086
0.00615991
0.00614554
0.00611327
0.00609719
0.00611888
0.00619208
0.00631016
0.00647527
0.00669139
0.00689494
0.0070588
0.00717435
0.00725328
0.00728735
0.00725022
0.0071595
0.00704119
0.00688686
0.0067672
0.00624347
0.00614725
0.00613302
0.00611835
0.00612452
0.0061575
0.00622928
0.00632008
0.00640221
0.00652059
0.00672563
0.00701469
0.00728098
0.00746944
0.00759018
0.00768527
0.00778845
0.00794649
0.0081457
0.00832684
0.00629359
0.00626294
0.00620761
0.0061659
0.00612983
0.00612346
0.00622001
0.00642458
0.00664974
0.00687888
0.00707998
0.00726514
0.00743101
0.00758619
0.00776066
0.00796626
0.00818499
0.00840501
0.00855359
0.00857629
0.00615222
0.00604123
0.00614865
0.00627499
0.00635029
0.00639384
0.00646064
0.00658385
0.00674832
0.00692741
0.0070697
0.00720336
0.00737268
0.0075502
0.00774708
0.00797512
0.0082077
0.00845413
0.00872195
0.0089345
0.00630307
0.00632047
0.00634178
0.00638247
0.00643371
0.00647265
0.00653053
0.0066582
0.00681052
0.00697815
0.00717953
0.00739381
0.00762698
0.0078413
0.00797704
0.00804972
0.00800471
0.00781542
0.00751621
0.00721048
0.00614557
0.00607645
0.00622711
0.00642541
0.00656884
0.00661454
0.00664171
0.00673493
0.00687062
0.00702144
0.00720615
0.00739188
0.00757398
0.00779881
0.00803149
0.00826985
0.00851101
0.00875143
0.00898472
0.00912538
0.00620486
0.0062286
0.0063964
0.00659134
0.00671267
0.00674338
0.00674775
0.00681586
0.00694554
0.00708383
0.00725032
0.00746342
0.00770176
0.00799735
0.00831237
0.00860365
0.00886153
0.00907429
0.00918439
0.00912374
0.0325722
0.0239421
0.0139849
0.00667093
0.00401327
0.00438889
0.00529541
0.00597036
0.0064483
0.00679634
0.00703601
0.00716732
0.00721014
0.00725355
0.00733676
0.00738171
0.00737383
0.00738309
0.00741905
0.0074399
0.00742295
0.00740092
0.00744221
0.00753428
0.00758647
0.00756597
0.00756483
0.00767532
0.00782908
0.00789006
0.0078862
0.00793971
0.00804829
0.00814178
0.00821635
0.00830575
0.00839492
0.00846395
0.00853519
0.00862561
0.00872575
0.0088509
0.00900444
0.00917225
0.009319
0.00942744
0.00951314
0.00959544
0.00966853
0.0097435
0.00985549
0.0100097
0.0101685
0.0102869
0.0104219
0.0105969
0.010758
0.0108859
0.0110459
0.0111972
0.0113171
0.0114252
0.0115475
0.0116828
0.0118399
0.012022
0.0122341
0.0124405
0.0126184
0.0127638
0.0128886
0.0130601
0.0132526
0.0134546
0.0136341
0.0138418
0.0140279
0.0142093
0.014416
0.0146364
0.0148444
0.0150454
0.0152822
0.0155222
0.0157602
0.0160125
0.0162478
0.0165366
0.0168306
0.0171416
0.0174062
0.0176639
0.01794
0.0182315
0.0185222
0.0187587
0.0189931
0.0190919
0.0191924
0.0192981
0.0311555
0.023705
0.0140468
0.00682548
0.00411794
0.00443883
0.00532484
0.00598992
0.00646233
0.00680747
0.00704544
0.00717538
0.0072169
0.0072593
0.00734196
0.00738645
0.00737799
0.00738679
0.00742245
0.00744306
0.00742582
0.00740342
0.00744442
0.00753639
0.0075885
0.0075678
0.00756633
0.00767664
0.00783041
0.00789136
0.00788728
0.00794064
0.00804919
0.00814265
0.00821714
0.00830649
0.00839566
0.00846464
0.00853583
0.00862623
0.00872635
0.00885146
0.00900498
0.00917279
0.00931956
0.00942799
0.00951367
0.00959595
0.00966903
0.00974396
0.00985592
0.0100102
0.0101689
0.0102873
0.0104222
0.0105973
0.0107583
0.0108862
0.0110462
0.0111975
0.0113174
0.0114255
0.0115478
0.0116831
0.0118402
0.0120223
0.0122343
0.0124407
0.0126186
0.012764
0.0128888
0.0130602
0.0132527
0.0134548
0.0136342
0.013842
0.014028
0.0142094
0.0144161
0.0146365
0.0148445
0.0150455
0.0152824
0.0155223
0.0157604
0.0160127
0.0162479
0.0165367
0.0168307
0.0171417
0.0174063
0.017664
0.0179401
0.0182316
0.0185223
0.0187588
0.0189932
0.0190919
0.0191923
0.019298
0.0299693
0.0234911
0.0141954
0.00711844
0.00430074
0.00450493
0.00535475
0.0060125
0.00648025
0.00682125
0.00705651
0.00718474
0.00722466
0.00726555
0.00734722
0.00739107
0.00738205
0.00739037
0.00742567
0.00744599
0.00742849
0.00740578
0.00744653
0.00753838
0.00759037
0.00756944
0.00756772
0.00767793
0.00783173
0.00789256
0.00788825
0.00794148
0.00805003
0.00814344
0.00821784
0.00830716
0.00839632
0.00846525
0.00853638
0.00862676
0.00872685
0.00885193
0.00900544
0.00917328
0.00932007
0.00942848
0.00951413
0.00959639
0.00966945
0.00974435
0.00985627
0.0100105
0.0101693
0.0102876
0.0104225
0.0105976
0.0107586
0.0108865
0.0110465
0.0111978
0.0113177
0.0114257
0.0115481
0.0116833
0.0118404
0.0120225
0.0122345
0.0124409
0.0126188
0.0127642
0.012889
0.0130604
0.0132529
0.0134549
0.0136344
0.0138421
0.0140282
0.0142096
0.0144163
0.0146366
0.0148446
0.0150456
0.0152825
0.0155224
0.0157605
0.0160128
0.016248
0.0165368
0.0168308
0.0171418
0.0174064
0.0176641
0.0179402
0.0182317
0.0185224
0.0187588
0.0189933
0.019092
0.0191923
0.0192979
0.0288875
0.0232501
0.0143821
0.00748515
0.00454899
0.00459798
0.00539838
0.00604753
0.00650815
0.00684125
0.00707132
0.00719721
0.00723558
0.00727439
0.00735404
0.00739677
0.00738728
0.00739505
0.0074296
0.00744941
0.00743178
0.00740889
0.00744923
0.00754066
0.00759244
0.00757145
0.00756963
0.0076797
0.00783335
0.00789398
0.00788944
0.00794257
0.00805104
0.00814434
0.00821864
0.00830793
0.00839706
0.00846589
0.00853693
0.00862729
0.00872735
0.0088524
0.0090059
0.00917377
0.0093206
0.009429
0.0095146
0.00959683
0.00966987
0.00974472
0.00985663
0.0100109
0.0101697
0.010288
0.0104229
0.0105979
0.010759
0.0108868
0.0110468
0.0111981
0.011318
0.011426
0.0115483
0.0116835
0.0118406
0.0120227
0.0122347
0.0124411
0.0126191
0.0127644
0.0128891
0.0130605
0.013253
0.0134551
0.0136345
0.0138423
0.0140283
0.0142097
0.0144164
0.0146367
0.0148447
0.0150457
0.0152826
0.0155225
0.0157606
0.0160129
0.0162481
0.0165369
0.0168309
0.0171419
0.0174065
0.0176642
0.0179402
0.0182318
0.0185224
0.0187589
0.0189934
0.019092
0.0191924
0.0192977
0.0278319
0.0229619
0.0145722
0.00787171
0.00482294
0.0047043
0.00544877
0.00609136
0.00654541
0.00686833
0.00709097
0.00721384
0.00725089
0.00728713
0.00736347
0.00740435
0.00739448
0.00740163
0.00743481
0.00745371
0.00743625
0.00741356
0.00745319
0.00754347
0.0075948
0.00757419
0.00757266
0.00768238
0.00783549
0.00789584
0.00789121
0.00794423
0.00805246
0.00814554
0.00821973
0.00830896
0.00839797
0.00846664
0.00853755
0.00862787
0.00872792
0.00885293
0.00900641
0.00917431
0.00932119
0.00942957
0.0095151
0.00959728
0.0096703
0.00974513
0.00985703
0.0100113
0.0101701
0.0102884
0.0104232
0.0105983
0.0107593
0.0108871
0.0110471
0.0111985
0.0113183
0.0114263
0.0115486
0.0116837
0.0118408
0.0120229
0.012235
0.0124414
0.0126193
0.0127647
0.0128893
0.0130607
0.0132532
0.0134553
0.0136347
0.0138424
0.0140285
0.0142098
0.0144165
0.0146369
0.0148449
0.0150458
0.0152827
0.0155227
0.0157607
0.016013
0.0162482
0.016537
0.016831
0.017142
0.0174066
0.0176643
0.0179403
0.0182319
0.0185226
0.018759
0.0189935
0.0190922
0.0191925
0.0192976
0.026806
0.0226329
0.0147508
0.00825863
0.00510875
0.00481709
0.00549945
0.00613764
0.0065877
0.00690021
0.0071143
0.00723381
0.00726991
0.00730341
0.0073755
0.007414
0.00740396
0.00741042
0.00744156
0.00745907
0.0074421
0.00742021
0.00745887
0.00754702
0.00759748
0.00757785
0.00757716
0.00768625
0.00783824
0.00789828
0.00789388
0.00794676
0.00805449
0.00814722
0.00822132
0.00831045
0.00839923
0.0084676
0.00853829
0.00862853
0.00872855
0.00885353
0.00900696
0.00917489
0.00932187
0.00943024
0.00951567
0.00959775
0.00967075
0.0097456
0.00985749
0.0100117
0.0101706
0.0102889
0.0104237
0.0105987
0.0107597
0.0108875
0.0110475
0.0111989
0.0113186
0.0114266
0.0115488
0.011684
0.0118411
0.0120232
0.0122352
0.0124417
0.0126197
0.0127649
0.0128895
0.0130609
0.0132534
0.0134555
0.0136349
0.0138426
0.0140287
0.01421
0.0144166
0.014637
0.014845
0.015046
0.0152828
0.0155228
0.0157608
0.0160131
0.0162483
0.0165371
0.0168311
0.0171422
0.0174067
0.0176643
0.0179404
0.018232
0.0185227
0.0187591
0.0189937
0.0190924
0.0191927
0.0192974
0.0258179
0.0222644
0.0149084
0.00864093
0.00540592
0.00493757
0.00554975
0.006184
0.0066328
0.00693547
0.00714035
0.00725611
0.0072913
0.0073219
0.00738932
0.00742536
0.00741543
0.00742117
0.00744973
0.00746543
0.0074493
0.00742882
0.00746632
0.00755142
0.00760055
0.0075825
0.00758328
0.00769137
0.00784153
0.00790128
0.00789757
0.00795033
0.00805722
0.00814948
0.00822357
0.00831261
0.00840104
0.00846897
0.0085393
0.00862933
0.0087293
0.00885421
0.00900755
0.00917551
0.00932266
0.00943109
0.00951636
0.00959827
0.00967125
0.00974616
0.00985802
0.0100122
0.0101711
0.0102894
0.0104242
0.0105991
0.0107602
0.0108879
0.0110479
0.0111993
0.0113189
0.0114269
0.0115491
0.0116842
0.0118414
0.0120235
0.0122355
0.012442
0.01262
0.0127652
0.0128897
0.0130611
0.0132537
0.0134557
0.0136351
0.0138428
0.0140289
0.0142101
0.0144168
0.0146372
0.0148452
0.0150461
0.015283
0.0155229
0.0157609
0.0160132
0.0162484
0.0165372
0.0168312
0.0171423
0.0174069
0.0176645
0.0179406
0.0182321
0.0185229
0.0187593
0.0189939
0.0190927
0.019193
0.0192972
0.0248717
0.0218569
0.0150403
0.00901858
0.00571665
0.00506826
0.00560014
0.00622934
0.00667965
0.00697358
0.00716882
0.00728024
0.0073142
0.00734169
0.00740427
0.00743796
0.00742841
0.00743338
0.007459
0.00747264
0.00745762
0.00743898
0.00747519
0.00755655
0.00760404
0.00758809
0.00759088
0.00769761
0.00784523
0.00790473
0.0079022
0.00795492
0.00806066
0.00815229
0.00822646
0.00831549
0.00840354
0.00847095
0.00854075
0.00863045
0.00873026
0.00885498
0.00900811
0.00917609
0.00932352
0.00943214
0.00951726
0.00959893
0.00967188
0.0097469
0.00985869
0.0100126
0.0101715
0.01029
0.0104248
0.0105996
0.0107606
0.0108884
0.0110485
0.0111997
0.0113194
0.0114273
0.0115495
0.0116845
0.0118417
0.0120238
0.0122358
0.0124424
0.0126204
0.0127656
0.01289
0.0130614
0.0132539
0.013456
0.0136353
0.0138431
0.0140291
0.0142103
0.014417
0.0146374
0.0148453
0.0150462
0.0152831
0.0155231
0.0157611
0.0160134
0.0162485
0.0165373
0.0168313
0.0171424
0.017407
0.0176646
0.0179407
0.0182322
0.0185231
0.0187595
0.0189941
0.0190933
0.0191936
0.019297
0.0239718
0.0214154
0.0151441
0.00939002
0.00604041
0.00521004
0.00565073
0.0062726
0.00672736
0.00701418
0.00719952
0.00730591
0.00733824
0.00736242
0.00742005
0.00745147
0.00744247
0.00744666
0.00746909
0.00748054
0.00746679
0.00745026
0.00748508
0.00756223
0.00760788
0.00759442
0.00759965
0.00770478
0.00784931
0.00790848
0.00790751
0.00796032
0.00806467
0.00815552
0.00822982
0.00831893
0.00840668
0.0084736
0.00854282
0.00863206
0.00873161
0.00885597
0.00900865
0.00917653
0.00932435
0.00943336
0.00951841
0.0095998
0.00967273
0.00974791
0.00985957
0.0100131
0.0101719
0.0102906
0.0104255
0.0106001
0.010761
0.010889
0.0110491
0.0112003
0.0113199
0.0114278
0.0115499
0.0116848
0.0118419
0.0120241
0.0122362
0.0124429
0.0126209
0.0127659
0.0128903
0.0130617
0.0132543
0.0134563
0.0136357
0.0138434
0.0140294
0.0142106
0.0144173
0.0146376
0.0148456
0.0150464
0.0152833
0.0155232
0.0157612
0.0160135
0.0162487
0.0165374
0.0168315
0.0171426
0.0174072
0.0176647
0.0179409
0.0182324
0.0185233
0.0187598
0.0189944
0.019094
0.0191945
0.0192969
0.0231245
0.020948
0.0152165
0.00975012
0.00637432
0.00536349
0.00570212
0.00631306
0.00677496
0.00705679
0.00723221
0.00733295
0.00736328
0.00738397
0.00743651
0.00746566
0.00745734
0.00746078
0.00747987
0.00748899
0.00747662
0.0074624
0.00749577
0.00756835
0.00761192
0.0076012
0.00760924
0.00771273
0.00785377
0.00791247
0.00791325
0.00796625
0.00806912
0.00815906
0.00823344
0.00832266
0.00841023
0.00847682
0.00854551
0.00863425
0.00873349
0.00885733
0.00900927
0.00917681
0.00932501
0.00943458
0.00951973
0.00960091
0.00967389
0.00974929
0.00986076
0.0100138
0.0101724
0.0102913
0.0104262
0.0106005
0.0107614
0.0108896
0.0110497
0.0112009
0.0113205
0.0114284
0.0115504
0.0116851
0.0118422
0.0120244
0.0122364
0.0124433
0.0126214
0.0127664
0.0128907
0.0130621
0.0132547
0.0134567
0.0136361
0.0138438
0.0140298
0.0142109
0.0144176
0.0146379
0.0148458
0.0150466
0.0152835
0.0155234
0.0157614
0.0160137
0.0162488
0.0165376
0.0168316
0.0171428
0.0174073
0.0176648
0.0179411
0.0182325
0.0185236
0.0187602
0.0189948
0.0190951
0.0191958
0.0192968
0.0223382
0.0204619
0.0152537
0.0100935
0.0067156
0.0055298
0.00575572
0.00635041
0.00682145
0.00710082
0.00726669
0.00736126
0.00738922
0.0074062
0.00745347
0.00748033
0.00747287
0.00747564
0.00749125
0.00749791
0.00748698
0.00747528
0.00750718
0.00757485
0.00761605
0.00760817
0.00761932
0.00772127
0.00785865
0.00791673
0.00791929
0.00797253
0.00807388
0.00816283
0.0082372
0.00832647
0.00841394
0.00848039
0.00854868
0.00863697
0.00873591
0.00885914
0.0090101
0.00917698
0.00932542
0.00943564
0.00952107
0.00960219
0.00967536
0.00975109
0.00986233
0.0100147
0.010173
0.0102922
0.010427
0.0106008
0.0107616
0.0108901
0.0110503
0.0112014
0.0113211
0.0114293
0.0115512
0.0116857
0.0118426
0.0120246
0.0122366
0.0124436
0.0126219
0.0127668
0.0128911
0.0130626
0.0132551
0.0134571
0.0136365
0.0138443
0.0140302
0.0142113
0.014418
0.0146383
0.0148462
0.015047
0.0152838
0.0155237
0.0157616
0.0160139
0.016249
0.0165377
0.0168318
0.017143
0.0174075
0.0176649
0.0179413
0.0182327
0.018524
0.0187607
0.0189952
0.0190965
0.0191975
0.0192968
0.0216072
0.0199641
0.0152539
0.0104163
0.00706184
0.00571023
0.00581339
0.00638483
0.00686604
0.00714574
0.00730279
0.00739074
0.00741583
0.00742881
0.00747068
0.00749534
0.00748896
0.00749116
0.00750318
0.00750724
0.00749786
0.0074889
0.0075193
0.0075817
0.00762017
0.00761515
0.00762969
0.00773022
0.00786386
0.00792124
0.0079256
0.00797911
0.0080789
0.00816681
0.00824107
0.0083303
0.00841767
0.00848411
0.00855216
0.00864008
0.00873877
0.0088614
0.00901121
0.00917715
0.0093256
0.00943644
0.00952229
0.00960355
0.00967709
0.00975329
0.00986429
0.0100158