/*--------------------------------*- C++ -*----------------------------------*\
| =========                 |                                                 |
| \\      /  F ield         | OpenFOAM: The Open Source CFD Toolbox           |
|  \\    /   O peration     | Version:  v1906                                 |
|   \\  /    A nd           | Web:      www.OpenFOAM.com                      |
|    \\/     M anipulation  |                                                 |
\*---------------------------------------------------------------------------*/
FoamFile
{
    version     2.0;
    format      ascii;
    class       surfaceScalarField;
    location    "8.7";
    object      phi;
}
// * * * * * * * * * * * * * * * * * * * * * * * * * * * * * * * * * * * * * //

dimensions      [0 3 -1 0 0 0 0];
oriented        oriented;


internalField   nonuniform List<scalar> 
19000
(
1.16715e-06
-7.94072e-07
1.22728e-06
7.77193e-07
1.14827e-06
6.28486e-07
1.10647e-06
6.46952e-07
1.19358e-06
-2.9088e-06
1.27406e-06
-1.66677e-06
1.25192e-06
-7.31186e-07
1.25813e-06
5.71048e-07
1.22659e-06
4.88307e-07
1.22645e-06
6.85626e-07
1.23599e-06
-1.3707e-07
1.22641e-06
-4.40702e-07
1.23058e-06
-1.02795e-06
1.20467e-06
-8.81624e-07
1.21607e-06
-8.5117e-07
1.20695e-06
-6.5814e-07
1.22302e-06
-5.23046e-07
1.2177e-06
-3.50237e-07
1.23008e-06
-2.28008e-07
-2.45975e-07
1.19115e-06
1.22683e-06
-7.96639e-07
1.30343e-06
7.00591e-07
1.21041e-06
7.21512e-07
1.17163e-06
6.85731e-07
1.2416e-06
-2.97877e-06
1.31876e-06
-1.74393e-06
1.31112e-06
-7.23545e-07
1.32749e-06
5.54678e-07
1.28996e-06
5.25835e-07
1.30697e-06
6.68617e-07
1.3061e-06
-1.36207e-07
1.30033e-06
-4.34925e-07
1.2811e-06
-1.00873e-06
1.26153e-06
-8.62053e-07
1.25622e-06
-8.45851e-07
1.26251e-06
-6.64431e-07
1.26415e-06
-5.24687e-07
1.28249e-06
-3.68585e-07
1.27409e-06
-2.19606e-07
-2.45023e-07
1.27314e-06
1.28638e-06
-8.00241e-07
1.38211e-06
6.04869e-07
1.28334e-06
8.20275e-07
1.23495e-06
7.34127e-07
1.27772e-06
-3.02154e-06
1.35685e-06
-1.82306e-06
1.36598e-06
-7.32676e-07
1.39114e-06
5.29514e-07
1.36657e-06
5.50405e-07
1.38583e-06
6.4936e-07
1.38216e-06
-1.32532e-07
1.36797e-06
-4.20733e-07
1.33345e-06
-9.74219e-07
1.31405e-06
-8.42645e-07
1.29848e-06
-8.30289e-07
1.30619e-06
-6.72136e-07
1.30906e-06
-5.27561e-07
1.32637e-06
-3.85892e-07
1.33036e-06
-2.23596e-07
-2.38482e-07
1.32382e-06
1.34541e-06
-8.01548e-07
1.45091e-06
4.99366e-07
1.35925e-06
9.11938e-07
1.30178e-06
7.91598e-07
1.31117e-06
-3.03093e-06
1.38625e-06
-1.89814e-06
1.41465e-06
-7.6108e-07
1.448e-06
4.96161e-07
1.44679e-06
5.51621e-07
1.46725e-06
6.28899e-07
1.46239e-06
-1.27674e-07
1.44085e-06
-3.99192e-07
1.39717e-06
-9.30537e-07
1.37191e-06
-8.17386e-07
1.35031e-06
-8.08691e-07
1.35341e-06
-6.75237e-07
1.35695e-06
-5.31103e-07
1.37265e-06
-4.01588e-07
1.38193e-06
-2.3288e-07
-2.34581e-07
1.37803e-06
1.40538e-06
-7.98578e-07
1.50639e-06
3.98356e-07
1.4338e-06
9.84533e-07
1.37253e-06
8.52865e-07
1.35022e-06
-3.00862e-06
1.41237e-06
-1.96029e-06
1.45885e-06
-8.07561e-07
1.50295e-06
4.52062e-07
1.52609e-06
5.28486e-07
1.55147e-06
6.03513e-07
1.54484e-06
-1.21042e-07
1.51715e-06
-3.71495e-07
1.46605e-06
-8.79443e-07
1.43541e-06
-7.86748e-07
1.40906e-06
-7.82337e-07
1.40792e-06
-6.74098e-07
1.40943e-06
-5.32613e-07
1.42365e-06
-4.1581e-07
1.43479e-06
-2.44019e-07
-2.33132e-07
1.43334e-06
1.46843e-06
-7.91329e-07
1.55323e-06
3.13557e-07
1.50662e-06
1.03114e-06
1.44883e-06
9.10651e-07
1.40144e-06
-2.96123e-06
1.44451e-06
-2.00336e-06
1.50332e-06
-8.66374e-07
1.56155e-06
3.93832e-07
1.60547e-06
4.84571e-07
1.63787e-06
5.71107e-07
1.62849e-06
-1.11659e-07
1.59542e-06
-3.38426e-07
1.53815e-06
-8.22171e-07
1.50338e-06
-7.51976e-07
1.47338e-06
-7.5234e-07
1.46852e-06
-6.6924e-07
1.4678e-06
-5.31895e-07
1.47951e-06
-4.27515e-07
1.49187e-06
-2.56377e-07
-2.32622e-07
1.49136e-06
1.53619e-06
-7.81298e-07
1.59938e-06
2.50359e-07
1.57962e-06
1.0509e-06
1.53152e-06
9.58759e-07
1.46669e-06
-2.8964e-06
1.49007e-06
-2.02674e-06
1.5542e-06
-9.30501e-07
1.62745e-06
3.20581e-07
1.68735e-06
4.2467e-07
1.72543e-06
5.33025e-07
1.71163e-06
-9.78585e-08
1.67338e-06
-3.00172e-07
1.61155e-06
-7.60341e-07
1.57441e-06
-7.1484e-07
1.5423e-06
-7.20225e-07
1.53426e-06
-6.61202e-07
1.53171e-06
-5.29352e-07
1.54041e-06
-4.36212e-07
1.55343e-06
-2.69395e-07
-2.32556e-07
1.55336e-06
1.60901e-06
-7.70176e-07
1.65175e-06
2.07613e-07
1.65542e-06
1.04724e-06
1.6203e-06
9.93872e-07
1.54418e-06
-2.82027e-06
1.55167e-06
-2.03423e-06
1.61609e-06
-9.94923e-07
1.70173e-06
2.3495e-07
1.7719e-06
3.54499e-07
1.81214e-06
4.9278e-07
1.79228e-06
-7.79929e-08
1.74966e-06
-2.57559e-07
1.68555e-06
-6.96223e-07
1.64814e-06
-6.77433e-07
1.61546e-06
-6.87545e-07
1.60475e-06
-6.50494e-07
1.60056e-06
-5.25167e-07
1.60595e-06
-4.416e-07
1.61895e-06
-2.82394e-07
-2.32824e-07
1.61922e-06
1.68614e-06
-7.58739e-07
1.7138e-06
1.79951e-07
1.73592e-06
1.02512e-06
1.71417e-06
1.01563e-06
1.63092e-06
-2.73703e-06
1.62759e-06
-2.03091e-06
1.68975e-06
-1.05708e-06
1.78267e-06
1.4203e-07
1.85652e-06
2.80651e-07
1.89504e-06
4.54256e-07
1.86859e-06
-5.15358e-08
1.82348e-06
-2.12453e-07
1.75982e-06
-6.32565e-07
1.72429e-06
-6.41899e-07
1.69264e-06
-6.55896e-07
1.67981e-06
-6.37665e-07
1.67402e-06
-5.19382e-07
1.67566e-06
-4.43233e-07
1.68766e-06
-2.94396e-07
-2.33198e-07
1.68803e-06
1.76675e-06
-7.46769e-07
1.78555e-06
1.61157e-07
1.82129e-06
9.89367e-07
1.81158e-06
1.02534e-06
1.7243e-06
-2.64975e-06
1.71398e-06
-2.02059e-06
1.77212e-06
-1.11522e-06
1.86638e-06
4.77751e-08
1.93739e-06
2.09639e-07
1.97131e-06
4.20334e-07
1.93956e-06
-1.97832e-08
1.89491e-06
-1.67809e-07
1.83467e-06
-5.72325e-07
1.80281e-06
-6.10035e-07
1.77365e-06
-6.26734e-07
1.75936e-06
-6.23375e-07
1.7521e-06
-5.12125e-07
1.74961e-06
-4.40741e-07
1.75934e-06
-3.04129e-07
-2.33095e-07
1.75924e-06
1.85074e-06
-7.33764e-07
1.86514e-06
1.46756e-07
1.90999e-06
9.44522e-07
1.91072e-06
1.02461e-06
1.82236e-06
-2.56139e-06
1.80689e-06
-2.00512e-06
1.85845e-06
-1.16677e-06
1.94825e-06
-4.20309e-08
2.0113e-06
1.46586e-07
2.03957e-06
3.9207e-07
2.00561e-06
1.41724e-08
1.96506e-06
-1.2725e-07
1.91096e-06
-5.18232e-07
1.88392e-06
-5.82995e-07
1.85831e-06
-6.01123e-07
1.84333e-06
-6.08388e-07
1.83495e-06
-5.03752e-07
1.82844e-06
-4.34228e-07
1.83476e-06
-3.10451e-07
-2.31709e-07
1.83338e-06
1.93866e-06
-7.19582e-07
1.95071e-06
1.34708e-07
2.00013e-06
8.95099e-07
2.00999e-06
1.01475e-06
1.92357e-06
-2.47497e-06
1.90342e-06
-1.98497e-06
1.94483e-06
-1.20818e-06
2.02516e-06
-1.22368e-07
2.0774e-06
9.43522e-08
2.10096e-06
3.68508e-07
2.06898e-06
4.61541e-08
2.03598e-06
-9.42533e-08
1.99002e-06
-4.72275e-07
1.96817e-06
-5.61146e-07
1.94658e-06
-5.79534e-07
1.93162e-06
-5.93419e-07
1.92268e-06
-4.94816e-07
1.91289e-06
-4.24436e-07
1.9153e-06
-3.12862e-07
-2.28454e-07
1.91204e-06
2.03114e-06
-7.04529e-07
2.04126e-06
1.24586e-07
2.09113e-06
8.45226e-07
2.10889e-06
9.96982e-07
2.02682e-06
-2.3929e-06
2.00223e-06
-1.96038e-06
2.03018e-06
-1.23612e-06
2.09751e-06
-1.89694e-07
2.1384e-06
5.34624e-08
2.15954e-06
3.4736e-07
2.1335e-06
7.22025e-08
2.11039e-06
-7.11494e-08
2.07339e-06
-4.35275e-07
2.05633e-06
-5.44086e-07
2.03861e-06
-5.61807e-07
2.02413e-06
-5.78947e-07
2.01521e-06
-4.85897e-07
2.00332e-06
-4.12542e-07
2.00213e-06
-3.11676e-07
-2.23342e-07
1.99702e-06
2.12853e-06
-6.8906e-07
2.13668e-06
1.16438e-07
2.1841e-06
7.97809e-07
2.20838e-06
9.72702e-07
2.13172e-06
-2.31624e-06
2.10343e-06
-1.93208e-06
2.11654e-06
-1.24924e-06
2.16957e-06
-2.42723e-07
2.20031e-06
2.27281e-08
2.22141e-06
3.26254e-07
2.20367e-06
8.99443e-08
2.19092e-06
-5.84047e-08
2.16244e-06
-4.0679e-07
2.1492e-06
-5.30847e-07
2.1347e-06
-5.47312e-07
2.12087e-06
-5.65108e-07
2.11235e-06
-4.77376e-07
2.09961e-06
-3.99805e-07
2.09567e-06
-3.07741e-07
-2.16986e-07
2.08932e-06
2.23094e-06
-6.73511e-07
2.23721e-06
1.10165e-07
2.28091e-06
7.54108e-07
2.31027e-06
9.43341e-07
2.23866e-06
-2.24463e-06
2.2079e-06
-1.90132e-06
2.20738e-06
-1.24872e-06
2.24726e-06
-2.82601e-07
2.26987e-06
1.18216e-10
2.29236e-06
3.03767e-07
2.28314e-06
9.9162e-08
2.27939e-06
-5.46552e-08
2.25802e-06
-3.85424e-07
2.24739e-06
-5.20217e-07
2.2353e-06
-5.35217e-07
2.22195e-06
-5.51759e-07
2.21391e-06
-4.69332e-07
2.20131e-06
-3.87213e-07
2.19558e-06
-3.02006e-07
-2.10264e-07
2.18886e-06
2.33839e-06
-6.58021e-07
2.34311e-06
1.05442e-07
2.38314e-06
7.14078e-07
2.41636e-06
9.10115e-07
2.34852e-06
-2.17678e-06
2.31657e-06
-1.86938e-06
2.30537e-06
-1.23752e-06
2.33492e-06
-3.12155e-07
2.35156e-06
-1.65216e-08
2.3757e-06
2.79624e-07
2.37361e-06
1.01252e-07
2.37645e-06
-5.74933e-08
2.36043e-06
-3.69405e-07
2.35128e-06
-5.11061e-07
2.34081e-06
-5.24748e-07
2.32769e-06
-5.38637e-07
2.31992e-06
-4.6157e-07
2.30806e-06
-3.75345e-07
2.30123e-06
-2.95184e-07
-2.0392e-07
2.29489e-06
2.45097e-06
-6.42593e-07
2.45458e-06
1.01834e-07
2.49155e-06
6.77099e-07
2.52778e-06
8.73887e-07
2.46224e-06
-2.11124e-06
2.43e-06
-1.83714e-06
2.41137e-06
-1.21889e-06
2.43383e-06
-3.34621e-07
2.44639e-06
-2.90747e-08
2.47174e-06
2.54274e-07
2.47488e-06
9.81134e-08
2.48185e-06
-6.44631e-08
2.46956e-06
-3.57124e-07
2.46102e-06
-5.02512e-07
2.45157e-06
-5.15306e-07
2.43846e-06
-5.25529e-07
2.43066e-06
-4.53765e-07
2.41971e-06
-3.64394e-07
2.41222e-06
-2.87696e-07
-1.98306e-07
2.40661e-06
2.56885e-06
-6.27148e-07
2.5718e-06
9.888e-08
2.60639e-06
6.42516e-07
2.64504e-06
8.35229e-07
2.58062e-06
-2.04682e-06
2.54849e-06
-1.80501e-06
2.52499e-06
-1.19538e-06
2.54302e-06
-3.52654e-07
2.55297e-06
-3.90225e-08
2.5789e-06
2.28343e-07
2.58571e-06
9.13028e-08
2.59495e-06
-7.37011e-08
2.58522e-06
-3.47401e-07
2.57672e-06
-4.94009e-07
2.56786e-06
-5.06447e-07
2.55467e-06
-5.12339e-07
2.54652e-06
-4.4561e-07
2.53642e-06
-3.54293e-07
2.52849e-06
-2.79774e-07
-1.93408e-07
2.5236e-06
2.69224e-06
-6.11558e-07
2.69501e-06
9.61131e-08
2.7277e-06
6.09825e-07
2.76837e-06
7.9456e-07
2.70423e-06
-1.98268e-06
2.67228e-06
-1.77306e-06
2.64554e-06
-1.16864e-06
2.66088e-06
-3.67998e-07
2.66935e-06
-4.74898e-08
2.69535e-06
2.02342e-07
2.70487e-06
8.17859e-08
2.71521e-06
-8.40488e-08
2.70729e-06
-3.39473e-07
2.69853e-06
-4.85251e-07
2.68992e-06
-4.97835e-07
2.67663e-06
-4.99056e-07
2.66792e-06
-4.36897e-07
2.65849e-06
-3.44861e-07
2.65029e-06
-2.71569e-07
-1.88997e-07
2.64587e-06
2.82137e-06
-5.95664e-07
2.82441e-06
9.30803e-08
2.85558e-06
5.7865e-07
2.89791e-06
7.52235e-07
2.83351e-06
-1.91829e-06
2.80163e-06
-1.74118e-06
2.77266e-06
-1.13967e-06
2.78631e-06
-3.81652e-07
2.79417e-06
-5.53428e-08
2.81988e-06
1.76627e-07
2.83156e-06
7.01053e-08
2.84237e-06
-9.48604e-08
2.83574e-06
-3.32844e-07
2.82662e-06
-4.76123e-07
2.81798e-06
-4.89203e-07
2.80463e-06
-4.85707e-07
2.79526e-06
-4.27525e-07
2.78631e-06
-3.35906e-07
2.77796e-06
-2.63226e-07
-1.84779e-07
2.77375e-06
2.95653e-06
-5.793e-07
2.96023e-06
8.93825e-08
2.99019e-06
5.48688e-07
3.03385e-06
7.08573e-07
2.96884e-06
-1.85327e-06
2.93687e-06
-1.7092e-06
2.90636e-06
-1.10916e-06
2.91887e-06
-3.94167e-07
2.92679e-06
-6.32596e-08
2.95197e-06
1.51449e-07
2.96544e-06
5.66281e-08
2.97636e-06
-1.05773e-07
2.97067e-06
-3.27158e-07
2.96116e-06
-4.66616e-07
2.95232e-06
-4.80362e-07
2.93892e-06
-4.72308e-07
2.92888e-06
-4.17482e-07
2.92025e-06
-3.27271e-07
2.9119e-06
-2.54875e-07
-1.80521e-07
2.90764e-06
3.09802e-06
-5.62317e-07
3.10269e-06
8.47191e-08
3.13169e-06
5.19688e-07
3.1764e-06
6.63858e-07
3.11057e-06
-1.78744e-06
3.07834e-06
-1.67697e-06
3.04686e-06
-1.07768e-06
3.05854e-06
-4.05842e-07
3.06702e-06
-7.17383e-08
3.09149e-06
1.26978e-07
3.10642e-06
4.16943e-08
3.11723e-06
-1.16583e-07
3.11219e-06
-3.22123e-07
3.10236e-06
-4.56781e-07
3.09321e-06
-4.71211e-07
3.07977e-06
-4.58866e-07
3.06911e-06
-4.0682e-07
3.06069e-06
-3.18857e-07
3.05241e-06
-2.46599e-07
-1.76083e-07
3.04798e-06
3.2462e-06
-5.4461e-07
3.25201e-06
7.89116e-08
3.28023e-06
4.91466e-07
3.32575e-06
6.18343e-07
3.25907e-06
-1.72077e-06
3.22641e-06
-1.64431e-06
3.19446e-06
-1.04573e-06
3.20544e-06
-4.16824e-07
3.21481e-06
-8.11108e-08
3.23845e-06
1.03344e-07
3.2545e-06
2.5639e-08
3.26511e-06
-1.27192e-07
3.26048e-06
-3.17493e-07
3.2504e-06
-4.46698e-07
3.24091e-06
-4.61729e-07
3.22746e-06
-4.45409e-07
3.21623e-06
-3.95595e-07
3.20801e-06
-3.10634e-07
3.19983e-06
-2.38423e-07
-1.71429e-07
3.19518e-06
3.40146e-06
-5.26133e-07
3.40846e-06
7.19041e-08
3.43602e-06
4.63908e-07
3.4821e-06
5.72262e-07
3.4147e-06
-1.65337e-06
3.38142e-06
-1.61103e-06
3.34944e-06
-1.01375e-06
3.35977e-06
-4.27151e-07
3.37022e-06
-9.15614e-08
3.39293e-06
8.06287e-08
3.40978e-06
8.79643e-09
3.42017e-06
-1.37581e-07
3.41576e-06
-3.13083e-07
3.4055e-06
-4.36442e-07
3.39572e-06
-4.51944e-07
3.38231e-06
-4.32008e-07
3.37058e-06
-3.83861e-07
3.36254e-06
-3.02597e-07
3.35455e-06
-2.30432e-07
-1.66443e-07
3.34957e-06
3.56419e-06
-5.06909e-07
3.57235e-06
6.37417e-08
3.5993e-06
4.36962e-07
3.64572e-06
5.25839e-07
3.57782e-06
-1.58547e-06
3.54373e-06
-1.57694e-06
3.5121e-06
-9.82123e-07
3.52174e-06
-4.36791e-07
3.53335e-06
-1.03167e-07
3.5551e-06
5.88734e-08
3.57242e-06
-8.51913e-09
3.58262e-06
-1.47786e-07
3.57831e-06
-3.08767e-07
3.56792e-06
-4.26057e-07
3.55791e-06
-4.41926e-07
3.54465e-06
-4.18747e-07
3.53249e-06
-3.71706e-07
3.52459e-06
-2.94697e-07
3.51694e-06
-2.22782e-07
-1.61054e-07
3.51155e-06
3.73482e-06
-4.8702e-07
3.74402e-06
5.45361e-08
3.77037e-06
4.10618e-07
3.81691e-06
4.79294e-07
3.74882e-06
-1.51738e-06
3.71373e-06
-1.54185e-06
3.68275e-06
-9.5114e-07
3.69162e-06
-4.45665e-07
3.70438e-06
-1.15926e-07
3.72518e-06
3.80737e-08
3.74269e-06
-2.60271e-08
3.75275e-06
-1.5785e-07
3.74848e-06
-3.04496e-07
3.73796e-06
-4.15539e-07
3.72779e-06
-4.31754e-07
3.71477e-06
-4.05727e-07
3.70232e-06
-3.59257e-07
3.69444e-06
-2.86819e-07
3.68732e-06
-2.15654e-07
-1.55311e-07
3.68157e-06
3.91376e-06
-4.66588e-07
3.92386e-06
4.44286e-08
3.94961e-06
3.84876e-07
3.99604e-06
4.32861e-07
3.92812e-06
-1.44947e-06
3.89185e-06
-1.50557e-06
3.86171e-06
-9.21002e-07
3.86971e-06
-4.53666e-07
3.88357e-06
-1.2979e-07
3.90346e-06
1.81823e-08
3.92092e-06
-4.34847e-08
3.93087e-06
-1.67797e-07
3.92667e-06
-3.00296e-07
3.91595e-06
-4.04818e-07
3.9057e-06
-4.21511e-07
3.89302e-06
-3.93039e-07
3.88042e-06
-3.46657e-07
3.87242e-06
-2.78824e-07
3.86592e-06
-2.09157e-07
-1.49466e-07
3.86008e-06
4.10142e-06
-4.45753e-07
4.11228e-06
3.35638e-08
4.13743e-06
3.59721e-07
4.1835e-06
3.86791e-07
4.11614e-06
-1.3821e-06
4.07852e-06
-1.46795e-06
4.04936e-06
-8.91835e-07
4.05634e-06
-4.60653e-07
4.07123e-06
-1.44674e-07
4.09029e-06
-8.842e-10
4.10749e-06
-6.06786e-08
4.11732e-06
-1.77627e-07
4.11325e-06
-2.96229e-07
4.10226e-06
-3.9383e-07
4.09196e-06
-4.11208e-07
4.0797e-06
-3.80781e-07
4.06709e-06
-3.34048e-07
4.05887e-06
-2.706e-07
4.05299e-06
-2.03278e-07
-1.43859e-07
4.04738e-06
4.29819e-06
-4.24645e-07
4.30968e-06
2.20786e-08
4.3343e-06
3.35097e-07
4.37973e-06
3.41361e-07
4.31329e-06
-1.31565e-06
4.27424e-06
-1.42891e-06
4.24611e-06
-8.63699e-07
4.25193e-06
-4.6648e-07
4.26771e-06
-1.60446e-07
4.28607e-06
-1.92472e-08
4.3028e-06
-7.74067e-08
4.31251e-06
-1.8734e-07
4.30863e-06
-2.92345e-07
4.29733e-06
-3.82536e-07
4.28692e-06
-4.00799e-07
4.27514e-06
-3.69002e-07
4.26265e-06
-3.21556e-07
4.25419e-06
-2.6214e-07
4.24875e-06
-1.9784e-07
-1.38857e-07
4.24375e-06
4.5045e-06
-4.03371e-07
4.51647e-06
1.01078e-08
4.54067e-06
3.10896e-07
4.58516e-06
2.9687e-07
4.51996e-06
-1.25045e-06
4.47948e-06
-1.38842e-06
4.4524e-06
-8.36624e-07
4.45694e-06
-4.71014e-07
4.47342e-06
-1.76932e-07
4.49122e-06
-3.70427e-08
4.50729e-06
-9.34806e-08
4.51687e-06
-1.96917e-07
4.5132e-06
-2.88682e-07
4.50162e-06
-3.70952e-07
4.49098e-06
-3.90163e-07
4.47963e-06
-3.57645e-07
4.46741e-06
-3.09341e-07
4.45878e-06
-2.53508e-07
4.45357e-06
-1.92624e-07
-1.34681e-07
4.44939e-06
4.72076e-06
-3.82012e-07
4.73307e-06
-2.20369e-09
4.75699e-06
2.8697e-07
4.80023e-06
2.53628e-07
4.73658e-06
-1.18679e-06
4.69471e-06
-1.34655e-06
4.66872e-06
-8.10634e-07
4.67186e-06
-4.74159e-07
4.68885e-06
-1.93917e-07
4.70622e-06
-5.4415e-08
4.72147e-06
-1.08731e-07
4.73086e-06
-2.06306e-07
4.72746e-06
-2.85281e-07
4.71563e-06
-3.59125e-07
4.70465e-06
-3.79181e-07
4.69364e-06
-3.46633e-07
4.68178e-06
-2.97481e-07
4.6731e-06
-2.44835e-07
4.66795e-06
-1.87471e-07
-1.31293e-07
4.66456e-06
4.94742e-06
-3.6063e-07
4.95991e-06
-1.46932e-08
4.98371e-06
2.63166e-07
5.02542e-06
2.11917e-07
4.96354e-06
-1.12491e-06
4.92041e-06
-1.30342e-06
4.89554e-06
-7.85766e-07
4.89725e-06
-4.75876e-07
4.91449e-06
-2.11155e-07
4.93159e-06
-7.15102e-08
4.94587e-06
-1.23014e-07
4.95499e-06
-2.1542e-07
4.95188e-06
-2.82178e-07
4.93989e-06
-3.47134e-07
4.92852e-06
-3.67805e-07
4.91783e-06
-3.35944e-07
4.90635e-06
-2.86006e-07
4.89766e-06
-2.36146e-07
4.89252e-06
-1.82332e-07
-1.28463e-07
4.88969e-06
5.18497e-06
-3.39283e-07
5.19746e-06
-2.71823e-08
5.22125e-06
2.39373e-07
5.26121e-06
1.71954e-07
5.2013e-06
-1.065e-06
5.15706e-06
-1.25917e-06
5.13337e-06
-7.62074e-07
5.13367e-06
-4.7618e-07
5.15091e-06
-2.28393e-07
5.16783e-06
-8.84347e-08
5.18107e-06
-1.36254e-07
5.18977e-06
-2.24118e-07
5.18702e-06
-2.79433e-07
5.17502e-06
-3.35127e-07
5.16318e-06
-3.55966e-07
5.15281e-06
-3.25578e-07
5.14172e-06
-2.74915e-07
5.13304e-06
-2.27461e-07
5.12784e-06
-1.77135e-07
-1.25963e-07
5.12534e-06
5.43394e-06
-3.18035e-07
5.44625e-06
-3.94965e-08
5.47005e-06
2.15578e-07
5.50815e-06
1.33856e-07
5.45036e-06
-1.00722e-06
5.40517e-06
-1.21398e-06
5.38272e-06
-7.39617e-07
5.38169e-06
-4.75152e-07
5.39864e-06
-2.45346e-07
5.41547e-06
-1.0526e-07
5.42765e-06
-1.48434e-07
5.43577e-06
-2.32239e-07
5.43345e-06
-2.77117e-07
5.42154e-06
-3.23214e-07
5.40927e-06
-3.43696e-07
5.39912e-06
-3.15424e-07
5.3885e-06
-2.64302e-07
5.37978e-06
-2.18733e-07
5.37446e-06
-1.71821e-07
-1.23675e-07
5.37217e-06
5.69488e-06
-2.96959e-07
5.70686e-06
-5.1473e-08
5.73058e-06
1.91859e-07
5.76678e-06
9.76484e-08
5.71125e-06
-9.51685e-07
5.66531e-06
-1.16804e-06
5.64412e-06
-7.18424e-07
5.64189e-06
-4.72924e-07
5.65826e-06
-2.61712e-07
5.67501e-06
-1.22012e-07
5.68616e-06
-1.59581e-07
5.69357e-06
-2.39657e-07
5.69172e-06
-2.75267e-07
5.68003e-06
-3.11523e-07
5.66735e-06
-3.31012e-07
5.65736e-06
-3.05434e-07
5.64724e-06
-2.54181e-07
5.63849e-06
-2.09984e-07
5.63311e-06
-1.66442e-07
-1.21312e-07
5.63075e-06
5.96838e-06
-2.76141e-07
5.97988e-06
-6.29823e-08
6.00334e-06
1.68404e-07
6.03773e-06
6.32573e-08
5.98455e-06
-8.98505e-07
5.93805e-06
-1.12155e-06
5.91811e-06
-6.98479e-07
5.91486e-06
-4.69679e-07
5.93034e-06
-2.77186e-07
5.947e-06
-1.38675e-07
5.95716e-06
-1.69743e-07
5.96377e-06
-2.46266e-07
5.96242e-06
-2.73917e-07
5.95108e-06
-3.00179e-07
5.93803e-06
-3.17967e-07
5.92809e-06
-2.95486e-07
5.91852e-06
-2.44616e-07
5.9098e-06
-2.01264e-07
5.90429e-06
-1.60929e-07
-1.18816e-07
5.90179e-06
6.25503e-06
-2.5568e-07
6.26597e-06
-7.39272e-08
6.28893e-06
1.45449e-07
6.32166e-06
3.05273e-08
6.27086e-06
-8.47708e-07
6.22391e-06
-1.0746e-06
6.20523e-06
-6.798e-07
6.2012e-06
-4.65642e-07
6.21551e-06
-2.91499e-07
6.232e-06
-1.55162e-07
6.24126e-06
-1.79008e-07
6.24697e-06
-2.51979e-07
6.24608e-06
-2.7302e-07
6.2353e-06
-2.89401e-07
6.22193e-06
-3.04602e-07
6.21192e-06
-2.85473e-07
6.20295e-06
-2.35648e-07
6.19433e-06
-1.92643e-07
6.18866e-06
-1.55251e-07
-1.16113e-07
6.18595e-06
6.55548e-06
-2.35686e-07
6.56578e-06
-8.42328e-08
6.58814e-06
1.23085e-07
6.61925e-06
-5.80004e-10
6.57087e-06
-7.99322e-07
6.52352e-06
-1.02726e-06
6.50604e-06
-6.62314e-07
6.50149e-06
-4.61094e-07
6.51443e-06
-3.04439e-07
6.53061e-06
-1.71344e-07
6.53904e-06
-1.8744e-07
6.5438e-06
-2.56738e-07
6.54332e-06
-2.72536e-07
6.53325e-06
-2.79333e-07
6.5197e-06
-2.91055e-07
6.50949e-06
-2.7526e-07
6.50116e-06
-2.27317e-07
6.49278e-06
-1.84265e-07
6.48686e-06
-1.49326e-07
-1.1322e-07
6.48396e-06
6.87039e-06
-2.16283e-07
6.87997e-06
-9.38166e-08
6.9018e-06
1.01259e-07
6.9311e-06
-2.9887e-08
6.88529e-06
-7.53503e-07
6.83761e-06
-9.79578e-07
6.82109e-06
-6.45801e-07
6.81635e-06
-4.56349e-07
6.82778e-06
-3.15875e-07
6.84349e-06
-1.87054e-07
6.85115e-06
-1.95096e-07
6.85491e-06
-2.60503e-07
6.85475e-06
-2.72366e-07
6.84554e-06
-2.7013e-07
6.83191e-06
-2.7742e-07
6.82144e-06
-2.64794e-07
6.81376e-06
-2.19637e-07
6.80579e-06
-1.76291e-07
6.7996e-06
-1.43135e-07
-1.10139e-07
6.79652e-06
7.20047e-06
-1.97617e-07
7.20918e-06
-1.02523e-07
7.23066e-06
7.97704e-08
7.25777e-06
-5.69879e-08
7.21477e-06
-7.10507e-07
7.16696e-06
-9.31768e-07
7.15105e-06
-6.29891e-07
7.14637e-06
-4.51673e-07
7.15629e-06
-3.25791e-07
7.17135e-06
-2.02114e-07
7.17824e-06
-2.01991e-07
7.18097e-06
-2.63231e-07
7.18101e-06
-2.72408e-07
7.17276e-06
-2.61878e-07
7.1592e-06
-2.63864e-07
7.14848e-06
-2.5407e-07
7.14138e-06
-2.12537e-07
7.13401e-06
-1.68923e-07
7.12758e-06
-1.367e-07
-1.06836e-07
7.12427e-06
7.54645e-06
-1.79845e-07
7.55408e-06
-1.10145e-07
7.5755e-06
5.83479e-08
7.59988e-06
-8.13689e-08
7.55991e-06
-6.70535e-07
7.51241e-06
-8.84268e-07
7.49667e-06
-6.14158e-07
7.4922e-06
-4.47203e-07
7.50064e-06
-3.34223e-07
7.5149e-06
-2.16374e-07
7.52106e-06
-2.08158e-07
7.52264e-06
-2.64805e-07
7.52277e-06
-2.72538e-07
7.51549e-06
-2.54605e-07
7.50229e-06
-2.50657e-07
7.49131e-06
-2.4309e-07
7.48462e-06
-2.0585e-07
7.47808e-06
-1.62382e-07
7.4715e-06
-1.30123e-07
-1.03266e-07
7.46793e-06
7.9091e-06
-1.6313e-07
7.91541e-06
-1.16456e-07
7.93703e-06
3.67261e-08
7.95821e-06
-1.02552e-07
7.92136e-06
-6.33684e-07
7.87474e-06
-8.37643e-07
7.85881e-06
-5.9823e-07
7.85447e-06
-4.42868e-07
7.86156e-06
-3.41305e-07
7.87487e-06
-2.29687e-07
7.88033e-06
-2.13621e-07
7.88066e-06
-2.65132e-07
7.88061e-06
-2.72489e-07
7.87432e-06
-2.48312e-07
7.86182e-06
-2.38155e-07
7.8506e-06
-2.31871e-07
7.84413e-06
-1.99379e-07
7.83858e-06
-1.56839e-07
7.83212e-06
-1.23657e-07
-9.93144e-08
7.82816e-06
8.28919e-06
-1.47634e-07
8.29393e-06
-1.21201e-07
8.31596e-06
1.4701e-08
8.33371e-06
-1.20306e-07
8.29978e-06
-5.99759e-07
8.25472e-06
-7.92579e-07
8.23833e-06
-5.81839e-07
8.23387e-06
-4.3841e-07
8.23974e-06
-3.47175e-07
8.252e-06
-2.41947e-07
8.2567e-06
-2.18324e-07
8.2558e-06
-2.64223e-07
8.25513e-06
-2.71819e-07
8.24983e-06
-2.43016e-07
8.23834e-06
-2.26669e-07
8.22709e-06
-2.20621e-07
8.22054e-06
-1.92827e-07
8.21608e-06
-1.52374e-07
8.21009e-06
-1.17674e-07
-9.49662e-08
8.20574e-06
8.68754e-06
-1.3351e-07
8.69039e-06
-1.24049e-07
8.71291e-06
-7.82085e-09
8.72742e-06
-1.34822e-07
8.69581e-06
-5.68145e-07
8.65297e-06
-7.49735e-07
8.63608e-06
-5.64952e-07
8.63119e-06
-4.33518e-07
8.63583e-06
-3.51813e-07
8.64683e-06
-2.52949e-07
8.65086e-06
-2.22358e-07
8.64862e-06
-2.61981e-07
8.64704e-06
-2.70236e-07
8.64269e-06
-2.38674e-07
8.63253e-06
-2.16509e-07
8.62153e-06
-2.09618e-07
8.61472e-06
-1.86015e-07
8.6111e-06
-1.48753e-07
8.60611e-06
-1.12684e-07
-9.03186e-08
8.60146e-06
9.10498e-06
-1.20872e-07
9.10576e-06
-1.24832e-07
9.12856e-06
-3.06218e-08
9.14058e-06
-1.46836e-07
9.11018e-06
-5.37746e-07
9.06998e-06
-7.09539e-07
9.05293e-06
-5.47899e-07
9.04718e-06
-4.27768e-07
9.05028e-06
-3.54914e-07
9.05982e-06
-2.62488e-07
9.06329e-06
-2.25828e-07
9.05985e-06
-2.58539e-07
9.05721e-06
-2.67593e-07
9.0538e-06
-2.35263e-07
9.04513e-06
-2.07842e-07
9.03474e-06
-1.99228e-07
9.0276e-06
-1.78875e-07
9.02441e-06
-1.45563e-07
9.02078e-06
-1.09056e-07
-8.57427e-08
9.01621e-06
9.54236e-06
-1.09776e-07
9.54118e-06
-1.23648e-07
9.56371e-06
-5.31475e-08
9.57445e-06
-1.57578e-07
9.54409e-06
-5.07389e-07
9.50637e-06
-6.71816e-07
9.48962e-06
-5.31155e-07
9.48254e-06
-4.2069e-07
9.48369e-06
-3.56055e-07
9.49168e-06
-2.70479e-07
9.49487e-06
-2.29024e-07
9.4907e-06
-2.54369e-07
9.48699e-06
-2.63881e-07
9.48424e-06
-2.32512e-07
9.47709e-06
-2.00689e-07
9.46759e-06
-1.89735e-07
9.46033e-06
-1.71608e-07
9.45705e-06
-1.42289e-07
9.45476e-06
-1.06767e-07
-8.18025e-08
9.45082e-06
1.00006e-05
-1.00222e-07
9.99773e-06
-1.20799e-07
1.00192e-05
-7.46397e-08
1.00298e-05
-1.6816e-07
9.99894e-06
-4.7652e-07
9.96281e-06
-6.35691e-07
9.94657e-06
-5.14917e-07
9.93829e-06
-4.12405e-07
9.93725e-06
-3.55013e-07
9.9438e-06
-2.77028e-07
9.94702e-06
-2.32251e-07
9.94273e-06
-2.50077e-07
9.93792e-06
-2.59072e-07
9.93531e-06
-2.29903e-07
9.92954e-06
-1.94916e-07
9.92106e-06
-1.81256e-07
9.91392e-06
-1.64466e-07
9.91032e-06
-1.38694e-07
9.90888e-06
-1.05327e-07
-7.90634e-08
9.90615e-06
1.04806e-05
-9.21559e-08
1.04765e-05
-1.16712e-07
1.04961e-05
-9.42961e-08
1.05073e-05
-1.79325e-07
1.0476e-05
-4.45239e-07
1.04406e-05
-6.0023e-07
1.0425e-05
-4.99379e-07
1.0416e-05
-4.03374e-07
1.04126e-05
-3.51613e-07
1.04177e-05
-2.82102e-07
1.04211e-05
-2.35694e-07
1.0417e-05
-2.45921e-07
1.04113e-05
-2.53404e-07
1.04084e-05
-2.26997e-07
1.04037e-05
-1.90236e-07
1.03962e-05
-1.73737e-07
1.03894e-05
-1.57657e-07
1.03855e-05
-1.34811e-07
1.03844e-05
-1.04184e-07
-7.76189e-08
1.03829e-05
1.09833e-05
-8.54439e-08
1.09785e-05
-1.11877e-07
1.09957e-05
-1.11489e-07
1.10076e-05
-1.9131e-07
1.09767e-05
-4.14293e-07
1.09413e-05
-5.64837e-07
1.09265e-05
-4.84575e-07
1.09173e-05
-3.94201e-07
1.09116e-05
-3.45923e-07
1.09148e-05
-2.85267e-07
1.09182e-05
-2.39059e-07
1.09144e-05
-2.42178e-07
1.09082e-05
-2.47143e-07
1.09048e-05
-2.23629e-07
1.09008e-05
-1.86228e-07
1.08942e-05
-1.67109e-07
1.08878e-05
-1.51264e-07
1.08838e-05
-1.30797e-07
1.08824e-05
-1.02866e-07
-7.72207e-08
1.0882e-05
1.15098e-05
-7.98787e-08
1.15047e-05
-1.06818e-07
1.1519e-05
-1.25785e-07
1.15317e-05
-2.03947e-07
1.15024e-05
-3.85019e-07
1.14664e-05
-5.28851e-07
1.14518e-05
-4.69954e-07
1.14435e-05
-3.8587e-07
1.1436e-05
-3.38425e-07
1.14366e-05
-2.85921e-07
1.14393e-05
-2.41741e-07
1.14361e-05
-2.38982e-07
1.14296e-05
-2.40672e-07
1.14257e-05
-2.19667e-07
1.14221e-05
-1.82638e-07
1.14162e-05
-1.61198e-07
1.14102e-05
-1.45268e-07
1.14062e-05
-1.26853e-07
1.14046e-05
-1.01203e-07
-7.73463e-08
1.14047e-05
1.20611e-05
-7.51947e-08
1.20563e-05
-1.01992e-07
1.20674e-05
-1.36857e-07
1.20803e-05
-2.16849e-07
1.2054e-05
-3.58761e-07
1.20172e-05
-4.9202e-07
1.20019e-05
-4.54707e-07
1.19951e-05
-3.79039e-07
1.19867e-05
-3.30037e-07
1.19845e-05
-2.83648e-07
1.19857e-05
-2.43012e-07
1.19829e-05
-2.36173e-07
1.19766e-05
-2.34377e-07
1.19722e-05
-2.15196e-07
1.19688e-05
-1.79272e-07
1.19635e-05
-1.55908e-07
1.19578e-05
-1.3959e-07
1.1954e-05
-1.22997e-07
1.19521e-05
-9.93325e-08
-7.74414e-08
1.19522e-05
1.26385e-05
-7.1076e-08
1.26344e-05
-9.78873e-08
1.2642e-05
-1.44484e-07
1.26546e-05
-2.29413e-07
1.26324e-05
-3.36581e-07
1.25951e-05
-4.5478e-07
1.25781e-05
-4.37647e-07
1.25728e-05
-3.73801e-07
1.25647e-05
-3.21926e-07
1.25597e-05
-2.78587e-07
1.25589e-05
-2.42278e-07
1.25561e-05
-2.33336e-07
1.25501e-05
-2.28426e-07
1.25453e-05
-2.10397e-07
1.25421e-05
-1.75998e-07
1.25374e-05
-1.51256e-07
1.2532e-05
-1.34154e-07
1.25282e-05
-1.19164e-07
1.25263e-05
-9.74824e-08
-7.718e-08
1.2526e-05
1.3243e-05
-6.71578e-08
1.32402e-05
-9.50885e-08
1.32443e-05
-1.48518e-07
1.32559e-05
-2.41085e-07
1.32383e-05
-3.18924e-07
1.32015e-05
-4.18039e-07
1.31815e-05
-4.17592e-07
1.31769e-05
-3.69247e-07
1.31703e-05
-3.15347e-07
1.31635e-05
-2.71725e-07
1.31604e-05
-2.39225e-07
1.3157e-05
-2.29945e-07
1.31514e-05
-2.22787e-07
1.31464e-05
-2.05446e-07
1.31432e-05
-1.72739e-07
1.31391e-05
-1.47209e-07
1.3134e-05
-1.29053e-07
1.31301e-05
-1.1523e-07
1.31283e-05
-9.57018e-08
-7.65562e-08
1.31277e-05
1.38761e-05
-6.30997e-08
1.38752e-05
-9.41394e-08
1.38756e-05
-1.4895e-07
1.38857e-05
-2.51216e-07
1.38725e-05
-3.05715e-07
1.38373e-05
-3.82828e-07
1.3814e-05
-3.94259e-07
1.38082e-05
-3.63475e-07
1.38039e-05
-3.11053e-07
1.3797e-05
-2.64786e-07
1.37916e-05
-2.33828e-07
1.37871e-05
-2.25527e-07
1.37816e-05
-2.17199e-07
1.37766e-05
-2.005e-07
1.37734e-05
-1.69505e-07
1.37698e-05
-1.43672e-07
1.37653e-05
-1.24526e-07
1.37612e-05
-1.11143e-07
1.37594e-05
-9.38809e-08
-7.58016e-08
1.37587e-05
1.45392e-05
-5.8671e-08
1.454e-05
-9.49019e-08
1.45372e-05
-1.46142e-07
1.45454e-05
-2.59449e-07
1.4536e-05
-2.96288e-07
1.45032e-05
-3.50032e-07
1.44773e-05
-3.68384e-07
1.44685e-05
-3.54698e-07
1.44663e-05
-3.08766e-07
1.44609e-05
-2.59423e-07
1.4454e-05
-2.26931e-07
1.44481e-05
-2.19625e-07
1.44422e-05
-2.11309e-07
1.44372e-05
-1.95523e-07
1.4434e-05
-1.66266e-07
1.44309e-05
-1.40555e-07
1.4427e-05
-1.20625e-07
1.44229e-05
-1.07109e-07
1.44209e-05
-9.18233e-08
-7.5058e-08
1.44201e-05
1.52339e-05
-5.37357e-08
1.52345e-05
-9.5459e-08
1.52311e-05
-1.42724e-07
1.52371e-05
-2.65466e-07
1.52299e-05
-2.89062e-07
1.52001e-05
-3.20264e-07
1.5173e-05
-3.41244e-07
1.51608e-05
-3.42521e-07
1.51587e-05
-3.06668e-07
1.51556e-05
-2.56367e-07
1.51488e-05
-2.20072e-07
1.51413e-05
-2.12181e-07
1.51348e-05
-2.04807e-07
1.51296e-05
-1.90317e-07
1.51265e-05
-1.63144e-07
1.51237e-05
-1.37712e-07
1.51204e-05
-1.17345e-07
1.51166e-05
-1.0337e-07
1.51143e-05
-8.94678e-08
-7.43237e-08
1.51136e-05
1.59621e-05
-4.85522e-08
1.59749e-05
-1.08245e-07
1.59687e-05
-1.36491e-07
1.5963e-05
-2.5979e-07
1.59541e-05
-2.8018e-07
1.59291e-05
-2.95236e-07
1.59025e-05
-3.14641e-07
1.58877e-05
-3.27698e-07
1.58836e-05
-3.02568e-07
1.58826e-05
-2.55347e-07
1.5877e-05
-2.14537e-07
1.58686e-05
-2.03712e-07
1.58612e-05
-1.97412e-07
1.58554e-05
-1.84593e-07
1.58522e-05
-1.59945e-07
1.58497e-05
-1.35152e-07
1.58469e-05
-1.14582e-07
1.58436e-05
-1.00089e-07
1.58411e-05
-8.69657e-08
-7.34564e-08
1.58403e-05
1.67243e-05
-4.22036e-08
1.67218e-05
-1.05762e-07
1.67156e-05
-1.30362e-07
1.67118e-05
-2.55959e-07
1.67107e-05
-2.79115e-07
1.66925e-05
-2.77038e-07
1.66675e-05
-2.89591e-07
1.66504e-05
-3.10563e-07
1.66433e-05
-2.95484e-07
1.66429e-05
-2.54996e-07
1.66393e-05
-2.10951e-07
1.66312e-05
-1.95524e-07
1.66229e-05
-1.89138e-07
1.66165e-05
-1.78251e-07
1.6613e-05
-1.56396e-07
1.66107e-05
-1.32859e-07
1.66083e-05
-1.12183e-07
1.66056e-05
-9.73661e-08
1.66031e-05
-8.44723e-08
-7.23699e-08
1.6602e-05
1.7524e-05
-3.58758e-08
1.75297e-05
-1.11465e-07
1.75199e-05
-1.20508e-07
1.75063e-05
-2.42371e-07
1.75026e-05
-2.7544e-07
1.74911e-05
-2.65535e-07
1.74693e-05
-2.67745e-07
1.74507e-05
-2.92027e-07
1.74407e-05
-2.85481e-07
1.7439e-05
-2.53237e-07
1.74372e-05
-2.09213e-07
1.74302e-05
-1.88464e-07
1.74214e-05
-1.80372e-07
1.74144e-05
-1.7127e-07
1.74102e-05
-1.52174e-07
1.7408e-05
-1.30616e-07
1.74059e-05
-1.10116e-07
1.74036e-05
-9.50924e-08
1.74014e-05
-8.22451e-08
-7.1034e-08
1.74001e-05