/*--------------------------------*- C++ -*----------------------------------*\
| =========                 |                                                 |
| \\      /  F ield         | OpenFOAM: The Open Source CFD Toolbox           |
|  \\    /   O peration     | Version:  v1812                                 |
|   \\  /    A nd           | Web:      www.OpenFOAM.com                      |
|    \\/     M anipulation  |                                                 |
\*---------------------------------------------------------------------------*/
FoamFile
{
    version     2.0;
    format      ascii;
    class       surfaceScalarField;
    location    "8.3";
    object      phi;
}
// * * * * * * * * * * * * * * * * * * * * * * * * * * * * * * * * * * * * * //

dimensions      [0 3 -1 0 0 0 0];
oriented        oriented;


internalField   nonuniform List<scalar> 
19000
(
1.18646e-06
2.10866e-07
1.24788e-06
-1.06681e-08
1.20217e-06
5.54609e-07
1.02016e-06
-5.27858e-07
1.17846e-06
8.53336e-07
1.17801e-06
1.75614e-06
1.11437e-06
1.4852e-07
1.17016e-06
6.17339e-07
1.12269e-06
-8.13739e-08
1.12261e-06
1.5961e-07
1.16058e-06
4.51597e-08
1.15735e-06
1.21981e-07
1.18033e-06
5.64297e-07
1.14398e-06
3.06186e-07
1.15405e-06
3.86975e-07
1.14831e-06
3.82265e-07
1.1433e-06
1.7125e-07
1.14465e-06
2.17384e-07
1.14411e-06
1.73531e-07
2.7387e-07
1.12765e-06
1.24148e-06
1.93651e-07
1.30495e-06
-7.41409e-08
1.25828e-06
6.01277e-07
1.06789e-06
-3.3747e-07
1.23851e-06
6.82717e-07
1.24588e-06
1.74877e-06
1.17793e-06
2.16468e-07
1.23638e-06
5.58888e-07
1.18868e-06
-3.36703e-08
1.18519e-06
1.63097e-07
1.22177e-06
8.58607e-09
1.21851e-06
1.25241e-07
1.2356e-06
5.47207e-07
1.20782e-06
3.33961e-07
1.20317e-06
3.91626e-07
1.2204e-06
3.65035e-07
1.19198e-06
1.99676e-07
1.21847e-06
1.90895e-07
1.18651e-06
2.0549e-07
2.48455e-07
1.21192e-06
1.29769e-06
1.78747e-07
1.36164e-06
-1.38096e-07
1.31693e-06
6.45991e-07
1.11966e-06
-1.40201e-07
1.29121e-06
5.11171e-07
1.3314e-06
1.70857e-06
1.25119e-06
2.96682e-07
1.31119e-06
4.9889e-07
1.26175e-06
1.57666e-08
1.25863e-06
1.66218e-07
1.28607e-06
-1.8858e-08
1.29173e-06
1.19588e-07
1.29602e-06
5.42908e-07
1.28475e-06
3.4524e-07
1.2623e-06
4.14073e-07
1.28904e-06
3.38294e-07
1.25745e-06
2.31271e-07
1.27359e-06
1.74754e-07
1.25739e-06
2.21688e-07
2.54369e-07
1.25147e-06
1.35434e-06
1.68506e-07
1.41828e-06
-2.02029e-07
1.37909e-06
6.85182e-07
1.18047e-06
5.84182e-08
1.34313e-06
3.48512e-07
1.42632e-06
1.62538e-06
1.33155e-06
3.91453e-07
1.38564e-06
4.44793e-07
1.33697e-06
6.44378e-08
1.3334e-06
1.69786e-07
1.3483e-06
-3.37522e-08
1.36451e-06
1.0338e-07
1.36393e-06
5.43481e-07
1.36099e-06
3.48186e-07
1.33531e-06
4.39752e-07
1.35211e-06
3.21492e-07
1.33311e-06
2.50265e-07
1.33261e-06
1.7526e-07
1.32834e-06
2.25959e-07
2.66871e-07
1.31584e-06
1.41146e-06
1.65397e-07
1.47473e-06
-2.65291e-07
1.44509e-06
7.14821e-07
1.25514e-06
2.48368e-07
1.39491e-06
2.08743e-07
1.51719e-06
1.5031e-06
1.41477e-06
4.93869e-07
1.45325e-06
4.06319e-07
1.41102e-06
1.06661e-07
1.40393e-06
1.76884e-07
1.40669e-06
-3.65116e-08
1.42925e-06
8.08171e-08
1.43404e-06
5.38691e-07
1.43283e-06
3.494e-07
1.41374e-06
4.58837e-07
1.41711e-06
3.18118e-07
1.40694e-06
2.60437e-07
1.39915e-06
1.83051e-07
1.39621e-06
2.28901e-07
2.76565e-07
1.38652e-06
1.47015e-06
1.70924e-07
1.531e-06
-3.26138e-07
1.51432e-06
7.31495e-07
1.34532e-06
4.17367e-07
1.44849e-06
1.05578e-07
1.59138e-06
1.36021e-06
1.4974e-06
5.87845e-07
1.5151e-06
3.8862e-07
1.48329e-06
1.38466e-07
1.4713e-06
1.88882e-07
1.46415e-06
-2.9363e-08
1.48718e-06
5.77884e-08
1.50074e-06
5.25123e-07
1.50116e-06
3.4898e-07
1.49001e-06
4.69993e-07
1.48492e-06
3.23208e-07
1.47677e-06
2.68581e-07
1.46661e-06
1.93219e-07
1.46304e-06
2.3247e-07
2.84509e-07
1.45509e-06
1.53263e-06
1.84511e-07
1.58786e-06
-3.81371e-07
1.58586e-06
7.335e-07
1.44764e-06
5.55581e-07
1.50668e-06
4.65432e-08
1.64694e-06
1.21994e-06
1.57794e-06
6.56851e-07
1.57739e-06
3.89168e-07
1.55478e-06
1.61071e-07
1.53925e-06
2.04413e-07
1.52492e-06
-1.50301e-08
1.54363e-06
3.9077e-08
1.56319e-06
5.05562e-07
1.56752e-06
3.44657e-07
1.56317e-06
4.74341e-07
1.55508e-06
3.31295e-07
1.5466e-06
2.77065e-07
1.5343e-06
2.05514e-07
1.52995e-06
2.3682e-07
2.92401e-07
1.52206e-06
1.60142e-06
2.03223e-07
1.647e-06
-4.26952e-07
1.65905e-06
7.21451e-07
1.55579e-06
6.58842e-07
1.57232e-06
3.0008e-08
1.69308e-06
1.09919e-06
1.65665e-06
6.93278e-07
1.6452e-06
4.00614e-07
1.6273e-06
1.78977e-07
1.61048e-06
2.21231e-07
1.59189e-06
3.56261e-09
1.60384e-06
2.71253e-08
1.62491e-06
4.84489e-07
1.63396e-06
3.35608e-07
1.63565e-06
4.72649e-07
1.62828e-06
3.38669e-07
1.62009e-06
2.85257e-07
1.60528e-06
2.20317e-07
1.5994e-06
2.42705e-07
3.01311e-07
1.59049e-06
1.67803e-06
2.22768e-07
1.71043e-06
-4.59352e-07
1.73357e-06
6.98307e-07
1.66404e-06
7.28373e-07
1.64738e-06
4.66736e-08
1.74242e-06
1.00414e-06
1.73488e-06
7.00821e-07
1.7198e-06
4.15694e-07
1.70287e-06
1.95899e-07
1.68643e-06
2.37672e-07
1.66621e-06
2.37872e-08
1.6713e-06
2.20371e-08
1.6905e-06
4.65283e-07
1.70297e-06
3.23137e-07
1.70987e-06
4.65754e-07
1.70498e-06
3.43556e-07
1.69848e-06
2.91763e-07
1.68169e-06
2.37105e-07
1.67384e-06
2.50556e-07
3.11622e-07
1.66353e-06
1.76227e-06
2.39218e-07
1.77987e-06
-4.76954e-07
1.80943e-06
6.68755e-07
1.76907e-06
7.68734e-07
1.73215e-06
8.35929e-08
1.80376e-06
9.32531e-07
1.81455e-06
6.90035e-07
1.7999e-06
4.3034e-07
1.78294e-06
2.12859e-07
1.76806e-06
2.52556e-07
1.7481e-06
4.3746e-08
1.74759e-06
2.25392e-08
1.76323e-06
4.49645e-07
1.77676e-06
3.09607e-07
1.78742e-06
4.55093e-07
1.78513e-06
3.45844e-07
1.78129e-06
2.9561e-07
1.76371e-06
2.54682e-07
1.75428e-06
2.59988e-07
3.22813e-07
1.74309e-06
1.85267e-06
2.50297e-07
1.85641e-06
-4.807e-07
1.88712e-06
6.3805e-07
1.86992e-06
7.85928e-07
1.82533e-06
1.28185e-07
1.87959e-06
8.78272e-07
1.89753e-06
6.72094e-07
1.8841e-06
4.43769e-07
1.86792e-06
2.29043e-07
1.85569e-06
2.64785e-07
1.83728e-06
6.21532e-08
1.8329e-06
2.69205e-08
1.8446e-06
4.37952e-07
1.85692e-06
2.97279e-07
1.86955e-06
4.4247e-07
1.86887e-06
3.46516e-07
1.86784e-06
2.96648e-07
1.8507e-06
2.71821e-07
1.8405e-06
2.70184e-07
3.33657e-07
1.82966e-06
1.94758e-06
2.5556e-07
1.94046e-06
-4.73587e-07
1.96779e-06
6.10726e-07
1.96758e-06
7.86134e-07
1.92492e-06
1.70851e-07
1.96778e-06
8.35402e-07
1.98504e-06
6.54837e-07
1.97207e-06
4.56738e-07
1.95766e-06
2.43458e-07
1.94892e-06
2.73518e-07
1.93301e-06
7.80711e-08
1.92653e-06
3.34007e-08
1.93484e-06
4.29644e-07
1.94442e-06
2.87694e-07
1.95738e-06
4.2951e-07
1.95696e-06
3.46938e-07
1.95815e-06
2.95461e-07
1.94231e-06
2.87658e-07
1.93208e-06
2.80409e-07
3.42727e-07
1.92301e-06
2.04596e-06
2.55786e-07
2.0318e-06
-4.5942e-07
2.05287e-06
5.89648e-07
2.06413e-06
7.7488e-07
2.02903e-06
2.0595e-07
2.06463e-06
7.99801e-07
2.07752e-06
6.4195e-07
2.06434e-06
4.6992e-07
2.05204e-06
2.55749e-07
2.04699e-06
2.78569e-07
2.03412e-06
9.09402e-08
2.02724e-06
4.02855e-08
2.03336e-06
4.23526e-07
2.03953e-06
2.81526e-07
2.05177e-06
4.17267e-07
2.05044e-06
3.48266e-07
2.05288e-06
2.93023e-07
2.03885e-06
3.01689e-07
2.02902e-06
2.9024e-07
3.4887e-07
2.02287e-06
2.14753e-06
2.52253e-07
2.12974e-06
-4.41621e-07
2.14369e-06
5.75691e-07
2.16194e-06
7.56627e-07
2.13638e-06
2.31518e-07
2.16703e-06
7.6915e-07
2.17496e-06
6.34021e-07
2.16158e-06
4.83295e-07
2.15125e-06
2.6608e-07
2.14937e-06
2.8045e-07
2.13953e-06
1.00777e-07
2.13355e-06
4.62658e-08
2.13891e-06
4.18172e-07
2.14171e-06
2.7872e-07
2.15286e-06
4.06121e-07
2.15003e-06
3.5109e-07
2.15275e-06
2.90305e-07
2.14086e-06
3.13579e-07
2.13159e-06
2.9951e-07
3.51491e-07
2.12897e-06
2.25248e-06
2.46262e-07
2.23348e-06
-4.22624e-07
2.24114e-06
5.68035e-07
2.26306e-06
7.3471e-07
2.2463e-06
2.48275e-07
2.27321e-06
7.42236e-07
2.27725e-06
6.29984e-07
2.26424e-06
4.96307e-07
2.25563e-06
2.74688e-07
2.25599e-06
2.80087e-07
2.24855e-06
1.08217e-07
2.24408e-06
5.07355e-08
2.24988e-06
4.12378e-07
2.24983e-06
2.78764e-07
2.26002e-06
3.95938e-07
2.25574e-06
3.55361e-07
2.25803e-06
2.8802e-07
2.2486e-06
3.23005e-07
2.23998e-06
3.08135e-07
3.50618e-07
2.24085e-06
2.36119e-06
2.38943e-07
2.34241e-06
-4.03842e-07
2.34564e-06
5.6481e-07
2.36888e-06
7.1147e-07
2.35875e-06
2.58398e-07
2.38258e-06
7.18407e-07
2.38436e-06
6.28204e-07
2.37247e-06
5.08204e-07
2.36551e-06
2.81642e-07
2.36712e-06
2.78481e-07
2.36103e-06
1.14306e-07
2.35791e-06
5.38571e-08
2.36482e-06
4.05466e-07
2.36262e-06
2.80966e-07
2.3722e-06
3.86355e-07
2.36701e-06
3.60548e-07
2.36847e-06
2.86562e-07
2.3618e-06
3.29678e-07
2.35394e-06
3.15999e-07
3.46811e-07
2.35774e-06
2.47415e-06
2.31193e-07
2.45621e-06
-3.85908e-07
2.45721e-06
5.63809e-07
2.48024e-06
6.88445e-07
2.4742e-06
2.64439e-07
2.4953e-06
6.97308e-07
2.49641e-06
6.27089e-07
2.48632e-06
5.18297e-07
2.4811e-06
2.86857e-07
2.48307e-06
2.7651e-07
2.47721e-06
1.20174e-07
2.47475e-06
5.63179e-08
2.48289e-06
3.97321e-07
2.47921e-06
2.84642e-07
2.48855e-06
3.7702e-07
2.48319e-06
3.65904e-07
2.48368e-06
2.86079e-07
2.47989e-06
3.33465e-07
2.47291e-06
3.22981e-07
3.40944e-07
2.47877e-06
2.59185e-06
2.23638e-07
2.57487e-06
-3.68933e-07
2.5757e-06
5.62985e-07
2.59758e-06
6.66568e-07
2.59337e-06
2.68644e-07
2.61197e-06
6.7871e-07
2.6137e-06
6.25357e-07
2.60585e-06
5.26151e-07
2.60247e-06
2.90239e-07
2.60414e-06
2.74836e-07
2.59754e-06
1.26772e-07
2.59491e-06
5.8946e-08
2.604e-06
3.88232e-07
2.59944e-06
2.89202e-07
2.60873e-06
3.6773e-07
2.60394e-06
3.70701e-07
2.60347e-06
2.8655e-07
2.60241e-06
3.34518e-07
2.59644e-06
3.28956e-07
3.34028e-07
2.60335e-06
2.71485e-06
2.16614e-07
2.69861e-06
-3.5269e-07
2.70087e-06
5.60726e-07
2.72108e-06
6.46352e-07
2.71706e-06
2.72664e-07
2.73342e-06
6.62354e-07
2.73668e-06
6.221e-07
2.73111e-06
5.31714e-07
2.72954e-06
2.91815e-07
2.73054e-06
2.73835e-07
2.72259e-06
1.34718e-07
2.71914e-06
6.24006e-08
2.7287e-06
3.7867e-07
2.72371e-06
2.94191e-07
2.73301e-06
3.58427e-07
2.72933e-06
3.74389e-07
2.72803e-06
2.87845e-07
2.72932e-06
3.33223e-07
2.72444e-06
3.33839e-07
3.27016e-07
2.73145e-06
2.84371e-06
2.10177e-07
2.82776e-06
-3.36744e-07
2.83254e-06
5.55947e-07
2.85085e-06
6.28038e-07
2.84603e-06
2.7749e-07
2.8605e-06
6.47882e-07
2.86584e-06
6.16754e-07
2.86222e-06
5.35338e-07
2.86224e-06
2.91797e-07
2.86251e-06
2.73563e-07
2.85295e-06
1.44274e-07
2.84833e-06
6.70265e-08
2.85788e-06
3.6912e-07
2.85278e-06
2.99285e-07
2.86204e-06
3.49177e-07
2.85977e-06
3.76657e-07
2.85784e-06
2.89769e-07
2.86098e-06
3.30084e-07
2.85725e-06
3.37574e-07
3.20667e-07
2.8636e-06
2.9789e-06
2.04176e-07
2.96274e-06
-3.20585e-07
2.9706e-06
5.4808e-07
2.98695e-06
6.11692e-07
2.98097e-06
2.83475e-07
2.99394e-06
6.34908e-07
3.00163e-06
6.09062e-07
2.99936e-06
5.3761e-07
3.0006e-06
2.9056e-07
3.00036e-06
2.73804e-07
2.98923e-06
1.55398e-07
2.9834e-06
7.28589e-08
2.99257e-06
3.59952e-07
2.98753e-06
3.04322e-07
2.99663e-06
3.40082e-07
2.99586e-06
3.77419e-07
2.99347e-06
2.92168e-07
2.998e-06
3.25551e-07
2.99546e-06
3.40112e-07
3.15488e-07
3.00064e-06
3.12083e-06
1.98351e-07
3.10399e-06
-3.03741e-07
3.11509e-06
5.36982e-07
3.1295e-06
5.9728e-07
3.12253e-06
2.90439e-07
3.13432e-06
6.23119e-07
3.14434e-06
5.99041e-07
3.14284e-06
5.39115e-07
3.14482e-06
2.88573e-07
3.14443e-06
2.74197e-07
3.13196e-06
1.67865e-07
3.12512e-06
7.97075e-08
3.1337e-06
3.51362e-07
3.12876e-06
3.09266e-07
3.13758e-06
3.31266e-07
3.13827e-06
3.76728e-07
3.13548e-06
2.94959e-07
3.14102e-06
3.20002e-07
3.13978e-06
3.41352e-07
3.11735e-07
3.14354e-06
3.26984e-06
1.92421e-07
3.25194e-06
-2.85844e-07
3.26615e-06
5.22778e-07
3.27871e-06
5.84719e-07
3.27128e-06
2.97866e-07
3.28208e-06
6.12322e-07
3.29418e-06
5.86943e-07
3.29304e-06
5.40249e-07
3.29529e-06
2.86322e-07
3.29513e-06
2.74362e-07
3.28159e-06
1.81398e-07
3.27402e-06
8.72833e-08
3.28204e-06
3.43344e-07
3.27713e-06
3.14173e-07
3.28553e-06
3.2287e-07
3.2876e-06
3.74653e-07
3.28439e-06
2.98168e-07
3.29065e-06
3.13742e-07
3.29087e-06
3.4113e-07
3.09436e-07
3.29317e-06
3.42621e-06
1.86141e-07
3.407e-06
-2.66635e-07
3.42406e-06
5.05717e-07
3.43488e-06
5.73906e-07
3.4276e-06
3.05139e-07
3.43752e-06
6.02403e-07
3.45129e-06
5.73181e-07
3.45038e-06
5.41151e-07
3.45246e-06
2.84249e-07
3.45284e-06
2.73981e-07
3.43849e-06
1.95746e-07
3.43045e-06
9.53269e-08
3.43809e-06
3.35705e-07
3.43311e-06
3.19145e-07
3.44096e-06
3.15028e-07
3.44437e-06
3.7124e-07
3.4407e-06
3.01835e-07
3.44731e-06
3.0713e-07
3.44925e-06
3.39192e-07
3.08426e-07
3.45026e-06
3.59024e-06
1.79312e-07
3.56955e-06
-2.45948e-07
3.58919e-06
4.86083e-07
3.59838e-06
5.64712e-07
3.59178e-06
3.11741e-07
3.60092e-06
5.93261e-07
3.61586e-06
5.58244e-07
3.61527e-06
5.4174e-07
3.61678e-06
2.82735e-07
3.61795e-06
2.72819e-07
3.603e-06
2.10693e-07
3.59461e-06
1.03719e-07
3.60218e-06
3.28131e-07
3.59707e-06
3.24261e-07
3.60419e-06
3.07907e-07
3.60897e-06
3.66456e-07
3.60484e-06
3.05966e-07
3.61137e-06
3.00601e-07
3.61526e-06
3.35298e-07
3.08292e-07
3.6154e-06
3.76224e-06
1.71781e-07
3.73997e-06
-2.23686e-07
3.7619e-06
4.64162e-07
3.76964e-06
5.56969e-07
3.76403e-06
3.17352e-07
3.77253e-06
5.84756e-07
3.78813e-06
5.42641e-07
3.78808e-06
5.41793e-07
3.78873e-06
2.82086e-07
3.79082e-06
2.70732e-07
3.7755e-06
2.26013e-07
3.7667e-06
1.12516e-07
3.77457e-06
3.20262e-07
3.76927e-06
3.29556e-07
3.77547e-06
3.01716e-07
3.78168e-06
3.60244e-07
3.77726e-06
3.10388e-07
3.7831e-06
2.94756e-07
3.78909e-06
3.2931e-07
3.08366e-07
3.78902e-06
3.94254e-06
1.6343e-07
3.91867e-06
-1.99818e-07
3.94257e-06
4.40263e-07
3.94908e-06
5.50458e-07
3.94458e-06
3.21852e-07
3.95264e-06
5.76697e-07
3.96842e-06
5.26861e-07
3.96919e-06
5.41021e-07
3.96874e-06
2.82533e-07
3.97182e-06
2.67662e-07
3.9564e-06
2.41432e-07
3.947e-06
1.21915e-07
3.95546e-06
3.11801e-07
3.95007e-06
3.34946e-07
3.95506e-06
2.96727e-07
3.9627e-06
3.52597e-07
3.95835e-06
3.14745e-07
3.96293e-06
2.90171e-07
3.97084e-06
3.21403e-07
3.07784e-07
3.97142e-06
4.1315e-06
1.54178e-07
4.10607e-06
-1.74382e-07
4.1316e-06
4.14731e-07
4.13715e-06
5.44911e-07
4.13373e-06
3.25273e-07
4.14158e-06
5.6884e-07
4.15708e-06
5.11363e-07
4.15898e-06
5.39121e-07
4.15729e-06
2.84226e-07
4.16131e-06
2.63641e-07
4.14613e-06
2.56609e-07
4.13586e-06
1.32187e-07
4.14508e-06
3.02576e-07
4.13981e-06
3.40221e-07
4.14327e-06
2.93265e-07
4.15225e-06
3.43621e-07
4.14846e-06
3.18528e-07
4.15136e-06
2.8727e-07
4.1606e-06
3.12164e-07
3.05637e-07
4.16275e-06
4.3295e-06
1.43985e-07
4.30261e-06
-1.47493e-07
4.32939e-06
3.87948e-07
4.33427e-06
5.40025e-07
4.3318e-06
3.27746e-07
4.33973e-06
5.60907e-07
4.35454e-06
4.96555e-07
4.35784e-06
5.35829e-07
4.35485e-06
2.8721e-07
4.35966e-06
2.5883e-07
4.34514e-06
2.7113e-07
4.33372e-06
1.43604e-07
4.34371e-06
2.92585e-07
4.33888e-06
3.45055e-07
4.3405e-06
2.9165e-07
4.35053e-06
3.3359e-07
4.34785e-06
3.21204e-07
4.349e-06
2.86116e-07
4.35867e-06
3.02502e-07
3.01297e-07
4.36301e-06
4.53691e-06
1.32853e-07
4.50875e-06
-1.19332e-07
4.53637e-06
3.60321e-07
4.54092e-06
5.35482e-07
4.53919e-06
3.29472e-07
4.54752e-06
5.52577e-07
4.56127e-06
4.82806e-07
4.56616e-06
5.30934e-07
4.56194e-06
2.91428e-07
4.56729e-06
2.53489e-07
4.55385e-06
2.84561e-07
4.54109e-06
1.56372e-07
4.55167e-06
2.82002e-07
4.54769e-06
3.4903e-07
4.54718e-06
2.92164e-07
4.55781e-06
3.22962e-07
4.55675e-06
3.22264e-07
4.5564e-06
2.86469e-07
4.56554e-06
2.93357e-07
2.94637e-07
4.5722e-06
4.75413e-06
1.20833e-07
4.72495e-06
-9.01508e-08
4.753e-06
3.32274e-07
4.75755e-06
5.30934e-07
4.75631e-06
3.30714e-07
4.76537e-06
5.43516e-07
4.77777e-06
4.70399e-07
4.78434e-06
5.2437e-07
4.77909e-06
2.9668e-07
4.78461e-06
2.47963e-07
4.77269e-06
2.96489e-07
4.75848e-06
1.70577e-07
4.76929e-06
2.71189e-07
4.76667e-06
3.51655e-07
4.7639e-06
2.94931e-07
4.77457e-06
3.12297e-07
4.77545e-06
3.21378e-07
4.7741e-06
2.87827e-07
4.78198e-06
2.85469e-07
2.86182e-07
4.79044e-06
4.98161e-06
1.08026e-07
4.95171e-06
-6.02552e-08
4.97973e-06
3.04253e-07
4.98467e-06
5.2599e-07
4.98361e-06
3.31781e-07
4.99373e-06
5.33389e-07
5.00459e-06
4.59539e-07
5.01273e-06
5.16236e-07
5.00679e-06
3.02619e-07
5.01214e-06
2.42616e-07
5.00203e-06
3.06594e-07
4.98646e-06
1.86149e-07
4.997e-06
2.60645e-07
4.99621e-06
3.52448e-07
4.99133e-06
2.99811e-07
5.00137e-06
3.02251e-07
5.00442e-06
3.18331e-07
5.00262e-06
2.89628e-07
5.00885e-06
2.79244e-07
2.76892e-07
5.01814e-06
5.21977e-06
9.45702e-08
5.18952e-06
-2.99983e-08
5.21701e-06
2.76762e-07
5.22284e-06
5.20159e-07
5.22156e-06
3.33055e-07
5.23307e-06
5.21884e-07
5.2423e-06
4.50307e-07
5.25171e-06
5.06823e-07
5.24554e-06
3.08798e-07
5.25038e-06
2.37776e-07
5.24229e-06
3.14681e-07
5.22559e-06
2.02853e-07
5.23528e-06
2.50955e-07
5.23674e-06
3.50985e-07
5.23011e-06
3.06436e-07
5.23884e-06
2.93522e-07
5.24407e-06
3.13106e-07
5.24244e-06
2.91253e-07
5.24693e-06
2.74756e-07
2.67782e-07
5.25604e-06
5.46912e-06
8.06398e-08
5.4389e-06
2.17915e-10
5.46526e-06
2.50409e-07
5.47261e-06
5.128e-07
5.4707e-06
3.3497e-07
5.48382e-06
5.08759e-07
5.49158e-06
4.42553e-07
5.50177e-06
4.96634e-07
5.49579e-06
3.14779e-07
5.49989e-06
2.33671e-07
5.49391e-06
3.20661e-07
5.47639e-06
2.20372e-07
5.48467e-06
2.42676e-07
5.48869e-06
3.46964e-07
5.48088e-06
3.14248e-07
5.48761e-06
2.86795e-07
5.4949e-06
3.05817e-07
5.49398e-06
2.92173e-07
5.49692e-06
2.71813e-07
2.59522e-07
5.50518e-06
5.73017e-06
6.64311e-08
5.70044e-06
2.99456e-08
5.72488e-06
2.25969e-07
5.73461e-06
5.03071e-07
5.73157e-06
3.38007e-07
5.74645e-06
4.93884e-07
5.75313e-06
4.35872e-07
5.76344e-06
4.86318e-07
5.75799e-06
3.2023e-07
5.76128e-06
2.30386e-07
5.75737e-06
3.2457e-07
5.73944e-06
2.38304e-07
5.74579e-06
2.3632e-07
5.75248e-06
3.40279e-07
5.74429e-06
3.22431e-07
5.74841e-06
2.82677e-07
5.75735e-06
2.96876e-07
5.75773e-06
2.91799e-07
5.75941e-06
2.70129e-07
2.52444e-07
5.76649e-06
6.00346e-06
5.21596e-08
5.97473e-06
5.86832e-08
5.99626e-06
2.04438e-07
6.00947e-06
4.89855e-07
6.00478e-06
3.42706e-07
6.02142e-06
4.77242e-07
6.02759e-06
4.29697e-07
6.03739e-06
4.76519e-07
6.03263e-06
3.2499e-07
6.03514e-06
2.27873e-07
6.03319e-06
3.26519e-07
6.01527e-06
2.56227e-07
6.01933e-06
2.32265e-07
6.02848e-06
3.3113e-07
6.02093e-06
3.29973e-07
6.02213e-06
2.81481e-07
6.03186e-06
2.87143e-07
6.0342e-06
2.89464e-07
6.03496e-06
2.69364e-07
2.46716e-07
6.04069e-06
6.28959e-06
3.80619e-08
6.2624e-06
8.58644e-08
6.28002e-06
1.86823e-07
6.29788e-06
4.71991e-07
6.29098e-06
3.49608e-07
6.30905e-06
4.59171e-07
6.31551e-06
4.23243e-07
6.32434e-06
4.67685e-07
6.32021e-06
3.2912e-07
6.3221e-06
2.25981e-07
6.32198e-06
3.26646e-07
6.30449e-06
2.7371e-07
6.30597e-06
2.30792e-07
6.31717e-06
3.19925e-07
6.31128e-06
3.35867e-07
6.30959e-06
2.83165e-07
6.31902e-06
2.77716e-07
6.32378e-06
2.84703e-07
6.32419e-06
2.68954e-07
2.42481e-07
6.32843e-06
6.58914e-06
2.43889e-08
6.56413e-06
1.10873e-07
6.57732e-06
1.73633e-07
6.60032e-06
4.48992e-07
6.59114e-06
3.58789e-07
6.60969e-06
4.40628e-07
6.61734e-06
4.15585e-07
6.62504e-06
4.59986e-07
6.62133e-06
3.32835e-07
6.62272e-06
2.24585e-07
6.62433e-06
3.25044e-07
6.60775e-06
2.90289e-07
6.60641e-06
2.32128e-07
6.61912e-06
3.07214e-07
6.61572e-06
3.39271e-07
6.61159e-06
2.87295e-07
6.61961e-06
2.69695e-07
6.62683e-06
2.7748e-07
6.62766e-06
2.68129e-07
2.39726e-07
6.63041e-06
6.90278e-06
1.14012e-08
6.88058e-06
1.33073e-07
6.88913e-06
1.65079e-07
6.91701e-06
4.21118e-07
6.90634e-06
3.69459e-07
6.92396e-06
4.23008e-07
6.93352e-06
4.0602e-07
6.9403e-06
4.53207e-07
6.93664e-06
3.36496e-07
6.93761e-06
2.23611e-07
6.94086e-06
3.21796e-07
6.92567e-06
3.05475e-07
6.92149e-06
2.36314e-07
6.93489e-06
2.93816e-07
6.9346e-06
3.39559e-07
6.92884e-06
2.93052e-07
6.93459e-06
2.63948e-07
6.94364e-06
2.68426e-07
6.9459e-06
2.65877e-07
2.38168e-07
6.94745e-06
7.23118e-06
-6.37995e-10
7.21242e-06
1.51827e-07
7.21633e-06
1.6117e-07
7.24798e-06
3.89469e-07
7.23746e-06
3.79975e-07
7.25271e-06
4.07764e-07
7.26448e-06
3.94243e-07
7.2709e-06
4.46794e-07
7.2669e-06
3.40497e-07
7.26735e-06
2.23159e-07
7.2722e-06
3.16943e-07
7.25891e-06
3.18766e-07
7.25206e-06
2.43167e-07
7.26511e-06
2.8076e-07
7.26826e-06
3.3641e-07
7.26192e-06
2.99395e-07
7.26498e-06
2.60893e-07
7.27482e-06
2.5858e-07
7.27924e-06
2.61463e-07
2.3714e-07
7.28026e-06
7.57506e-06
-1.14729e-08
7.56034e-06
1.66549e-07
7.55978e-06
1.61725e-07
7.59349e-06
3.55761e-07
7.58523e-06
3.8824e-07
7.59684e-06
3.96149e-07
7.61075e-06
3.80336e-07
7.61758e-06
4.39957e-07
7.61288e-06
3.45197e-07
7.61262e-06
2.23421e-07
7.61896e-06
3.10608e-07
7.60804e-06
3.29681e-07
7.59892e-06
2.52287e-07
7.61062e-06
2.6906e-07
7.61705e-06
3.29984e-07
7.61129e-06
3.05148e-07
7.61173e-06
2.60456e-07
7.62126e-06
2.49055e-07
7.62788e-06
2.54834e-07
2.35652e-07
7.62937e-06
7.9352e-06
-2.08665e-08
7.92504e-06
1.7671e-07
7.92037e-06
1.66403e-07
7.95423e-06
3.21901e-07
7.95025e-06
3.92214e-07
7.9574e-06
3.89005e-07
7.97285e-06
3.64879e-07
7.98097e-06
4.31837e-07
7.97549e-06
3.50683e-07
7.9741e-06
2.24807e-07
7.98173e-06
3.02984e-07
7.97362e-06
3.37786e-07
7.96282e-06
2.63084e-07
7.97223e-06
2.59658e-07
7.98145e-06
3.20755e-07
7.97741e-06
3.09192e-07
7.97564e-06
2.62226e-07
7.98397e-06
2.4073e-07
7.99235e-06
2.46448e-07
2.32936e-07
7.99507e-06
8.31242e-06
-2.86098e-08
8.30725e-06
1.81888e-07
8.29892e-06
1.74734e-07
8.33103e-06
2.89788e-07
8.33305e-06
3.90196e-07
8.33554e-06
3.86515e-07
8.35141e-06
3.4901e-07
8.36156e-06
4.21682e-07
8.35558e-06
3.56661e-07
8.35255e-06
2.27843e-07
8.36109e-06
2.9444e-07
8.35612e-06
3.42761e-07
8.34434e-06
2.74863e-07
8.35086e-06
2.53131e-07
8.36209e-06
3.09528e-07
8.36064e-06
3.10639e-07
8.35748e-06
2.65385e-07
8.36396e-06
2.34251e-07
8.3734e-06
2.37009e-07
2.28626e-07
8.37771e-06
8.70759e-06
-3.45346e-08
8.70739e-06
1.82084e-07
8.69627e-06
1.8585e-07
8.72479e-06
2.61269e-07
8.7338e-06
3.8119e-07
8.73241e-06
3.87906e-07
8.74712e-06
3.34299e-07
8.75984e-06
4.08963e-07
8.75385e-06
3.62648e-07
8.74866e-06
2.33036e-07
8.75763e-06
2.8547e-07
8.7558e-06
3.44593e-07
8.74408e-06
2.86577e-07
8.74751e-06
2.49706e-07
8.75977e-06
2.97265e-07
8.76144e-06
3.08973e-07
8.75799e-06
2.68836e-07
8.76228e-06
2.29956e-07
8.77196e-06
2.2733e-07
2.22695e-07
8.77789e-06
9.1216e-06
-3.85198e-08
9.12604e-06
1.7765e-07
9.11327e-06
1.98618e-07
9.13678e-06
2.3776e-07
9.15251e-06
3.65455e-07
9.14918e-06
3.91241e-07
9.16095e-06
3.22529e-07
9.17615e-06
3.93764e-07
9.17092e-06
3.67877e-07
9.16321e-06
2.40739e-07
9.17182e-06
2.7686e-07
9.17309e-06
3.43324e-07
9.1626e-06
2.97075e-07
9.16328e-06
2.49023e-07
9.17551e-06
2.85038e-07
9.18039e-06
3.04093e-07
9.17783e-06
2.71389e-07
9.17999e-06
2.27796e-07
9.18903e-06
2.18297e-07
2.15281e-07
9.19644e-06
9.55544e-06
-4.05006e-08
9.564e-06
1.69094e-07
9.55076e-06
2.11853e-07
9.56847e-06
2.20054e-07
9.58969e-06
3.44231e-07
9.58672e-06
3.94217e-07
9.59395e-06
3.15298e-07
9.61084e-06
3.76873e-07
9.60759e-06
3.71128e-07
9.59745e-06
2.50881e-07
9.60463e-06
2.69679e-07
9.60897e-06
3.38981e-07
9.6007e-06
3.05349e-07
9.59938e-06
2.50335e-07
9.61065e-06
2.73776e-07
9.61832e-06
2.96416e-07
9.61751e-06
2.722e-07
9.6182e-06
2.27105e-07
9.6257e-06
2.10797e-07
2.06795e-07
9.63419e-06
1.00101e-05
-4.05018e-08
1.00222e-05
1.5707e-07
1.00097e-05
2.24358e-07
1.00212e-05
2.08518e-07
1.00463e-05
3.19088e-07
1.00456e-05
3.94991e-07
1.00473e-05
3.13587e-07
1.00647e-05
3.59458e-07
1.00649e-05
3.70868e-07
1.00532e-05
2.6262e-07
1.00578e-05
2.65129e-07
1.0065e-05
3.31776e-07
1.00595e-05
3.10794e-07
1.0057e-05
2.52867e-07
1.00667e-05
2.6403e-07
1.00764e-05
2.86769e-07
1.00777e-05
2.70914e-07
1.00778e-05
2.26973e-07
1.00834e-05
2.05164e-07
1.98098e-07
1.00921e-05
1.04868e-05
-3.86572e-08
1.05015e-05
1.42389e-07
1.04909e-05
2.34956e-07
1.04963e-05
2.03136e-07
1.05235e-05
2.91855e-07
1.05266e-05
3.91897e-07
1.05232e-05
3.16951e-07
1.05392e-05
3.43479e-07
1.05436e-05
3.66497e-07
1.05321e-05
2.74065e-07
1.05336e-05
2.63696e-07
1.05425e-05
3.22828e-07
1.05401e-05
3.13197e-07
1.05372e-05
2.558e-07
1.05451e-05
2.56084e-07
1.05558e-05
2.76058e-07
1.05592e-05
2.67577e-07
1.05595e-05
2.26631e-07
1.05635e-05
2.01134e-07
1.9016e-07
1.05715e-05
1.09866e-05
-3.52369e-08
1.10029e-05
1.26052e-07
1.09954e-05
2.42504e-07
1.0995e-05
2.0349e-07
1.10222e-05
2.6467e-07
1.10307e-05
3.8343e-07
1.1024e-05
3.23684e-07
1.10364e-05
3.31054e-07
1.10442e-05
3.58681e-07
1.10349e-05
2.83372e-07
1.10338e-05
2.6481e-07
1.1043e-05
3.13587e-07
1.10434e-05
3.1283e-07
1.10407e-05
2.58465e-07
1.1047e-05
2.49835e-07
1.10579e-05
2.65077e-07
1.10631e-05
2.62404e-07
1.10641e-05
2.25684e-07
1.10672e-05
1.9801e-07
1.83502e-07
1.10738e-05
1.15108e-05
-3.06363e-08
1.15276e-05
1.09186e-07
1.15242e-05
2.45942e-07
1.15189e-05
2.08786e-07
1.15438e-05
2.39749e-07
1.15582e-05
3.6901e-07
1.15504e-05
3.31556e-07
1.15582e-05
3.23243e-07
1.1568e-05
3.48822e-07
1.15619e-05
2.89541e-07
1.15592e-05
2.67442e-07
1.15678e-05
3.05034e-07
1.15704e-05
3.10257e-07
1.15685e-05
2.60333e-07
1.15734e-05
2.44967e-07
1.1584e-05
2.54415e-07
1.15908e-05
2.55673e-07
1.15925e-05
2.23944e-07
1.15952e-05
1.95324e-07
1.77993e-07
1.16007e-05
1.20605e-05
-2.53544e-08
1.20767e-05
9.30297e-08
1.20783e-05
2.44365e-07
1.20692e-05
2.17877e-07
1.20899e-05
2.19067e-07
1.21098e-05
3.49089e-07
1.21032e-05
3.38116e-07
1.21063e-05
3.20141e-07
1.21164e-05
3.38703e-07
1.21136e-05
2.92356e-07
1.21107e-05
2.70371e-07
1.21181e-05
2.97598e-07
1.21223e-05
3.06121e-07
1.21215e-05
2.61131e-07
1.21254e-05
2.41057e-07
1.21354e-05
2.44448e-07
1.21433e-05
2.47756e-07
1.2146e-05
2.21242e-07
1.21484e-05
1.92882e-07
1.73196e-07
1.21532e-05
1.26372e-05
-1.99273e-08
1.26514e-05
7.87557e-08
1.26584e-05
2.37437e-07
1.2647e-05
2.29239e-07
1.26621e-05
2.04015e-07
1.26862e-05
3.24921e-07
1.26832e-05
3.41116e-07
1.26822e-05
3.21182e-07
1.26909e-05
3.29979e-07
1.26911e-05
2.92138e-07
1.2689e-05
2.72529e-07
1.26953e-05
2.91246e-07
1.27004e-05
3.01006e-07
1.27008e-05
2.60771e-07
1.27041e-05
2.37737e-07
1.27132e-05
2.35342e-07
1.27219e-05
2.39091e-07
1.27257e-05
2.17393e-07
1.27281e-05
1.9055e-07
1.68848e-07
1.27324e-05
1.32419e-05
-1.48436e-08
1.32534e-05
6.7192e-08
1.32652e-05
2.25645e-07
1.32535e-05
2.40974e-07
1.32623e-05
1.95206e-07
1.32888e-05
2.98396e-07
1.32906e-05
3.39304e-07
1.32868e-05
3.25046e-07
1.32931e-05
3.23662e-07
1.32956e-05
2.89655e-07
1.32949e-05
2.7318e-07
1.33006e-05
2.85564e-07
1.33062e-05
2.95341e-07
1.33077e-05
2.59337e-07
1.33107e-05
2.34692e-07
1.33189e-05
2.27135e-07
1.33279e-05
2.30078e-07
1.3333e-05
2.12343e-07
1.33355e-05
1.88083e-07
1.6495e-07
1.33394e-05
1.38758e-05
-1.04937e-08
1.38843e-05
5.86992e-08
1.38997e-05
2.10207e-07
1.38896e-05
2.51145e-07
1.38925e-05
1.92317e-07
1.39188e-05
2.72088e-07
1.39256e-05
3.3252e-07
1.39209e-05
3.29671e-07
1.39247e-05
3.19869e-07
1.39284e-05
2.85983e-07
1.39295e-05
2.7208e-07
1.39351e-05
2.79951e-07
1.39411e-05
2.89352e-07
1.39434e-05
2.57032e-07
1.39464e-05
2.31688e-07
1.39538e-05
2.19707e-07
1.39629e-05
2.21054e-07
1.3969e-05
2.06215e-07
1.3972e-05
1.85112e-07
1.61536e-07
1.39754e-05
1.45403e-05
-7.1585e-09
1.45453e-05
5.37658e-08
1.45631e-05
1.92406e-07
1.45564e-05
2.57785e-07
1.45542e-05
1.94521e-07
1.45771e-05
2.49203e-07
1.45886e-05
3.21012e-07
1.45856e-05
3.32637e-07
1.45875e-05
3.1804e-07
1.45913e-05
2.82132e-07
1.45941e-05
2.69332e-07
1.46001e-05
2.73902e-07
1.46065e-05
2.82985e-07
1.46095e-05
2.54006e-07
1.46125e-05
2.28676e-07
1.46194e-05
2.12882e-07
1.46281e-05
2.12318e-07
1.4635e-05
1.99292e-07
1.46388e-05
1.81347e-07
1.5841e-07
1.46419e-05
1.52367e-05
-4.99844e-09
1.52373e-05
5.31693e-08
1.52575e-05
1.7222e-07
1.52554e-05
2.59851e-07
1.52484e-05
2.01563e-07
1.52651e-05
2.32501e-07
1.52813e-05
3.04824e-07
1.52821e-05
3.31849e-07
1.52828e-05
3.17353e-07
1.52861e-05
2.78784e-07
1.529e-05
2.65477e-07
1.52967e-05
2.67138e-07
1.53036e-05
2.7608e-07
1.53074e-05
2.50242e-07
1.53104e-05
2.25624e-07
1.53168e-05
2.06537e-07
1.53252e-05
2.03941e-07
1.53325e-05
1.91935e-07
1.53372e-05
1.76674e-07
1.55183e-07
1.53404e-05
1.59666e-05
-4.30096e-09
1.59725e-05
4.73286e-08
1.59918e-05
1.5289e-07
1.59872e-05
2.64485e-07
1.59756e-05
2.13107e-07
1.5986e-05
2.22162e-07
1.60054e-05
2.8542e-07
1.60112e-05
3.26008e-07
1.6012e-05
3.16536e-07
1.60146e-05
2.76207e-07
1.6019e-05
2.61121e-07
1.60265e-05
2.59647e-07
1.6034e-05
2.68526e-07
1.60386e-05
2.45648e-07
1.60418e-05
2.22385e-07
1.60476e-05
2.00784e-07
1.60557e-05
1.95859e-07
1.60631e-05
1.84467e-07
1.60686e-05
1.71255e-07
1.51481e-07
1.60723e-05
1.67303e-05
-4.00078e-09
1.67199e-05
5.77791e-08
1.67373e-05
1.35418e-07
1.67463e-05
2.55553e-07
1.6739e-05
2.2035e-07
1.67448e-05
2.16386e-07
1.67639e-05
2.66342e-07
1.67744e-05
3.15481e-07
1.67766e-05
3.14301e-07
1.67785e-05
2.74317e-07
1.67828e-05
2.56799e-07
1.67908e-05
2.51654e-07
1.67992e-05
2.60201e-07
1.68046e-05
2.40184e-07
1.68083e-05
2.18674e-07
1.68136e-05
1.95545e-07
1.68212e-05
1.88201e-07
1.68289e-05
1.76848e-07
1.68347e-05
1.6545e-07
1.47152e-07
1.6839e-05
1.75309e-05
-4.52859e-09
1.75273e-05
6.13623e-08
1.75381e-05
1.24595e-07
1.75456e-05
2.48077e-07
1.75399e-05
2.26046e-07
1.75421e-05
2.14193e-07
1.75588e-05
2.49649e-07
1.75731e-05
3.01198e-07
1.75776e-05
3.09728e-07
1.75795e-05
2.72496e-07
1.75835e-05
2.52805e-07
1.75916e-05
2.4355e-07
1.76006e-05
2.51181e-07
1.7607e-05
2.3381e-07
1.76113e-05
2.1435e-07
1.76163e-05
1.90567e-07
1.76232e-05
1.8122e-07
1.7631e-05
1.69072e-07
1.7637e-05
1.59479e-07
1.42271e-07
1.76419e-05
1.83692e-05
-5.34005e-09
1.83611e-05
6.93991e-08
1.83711e-05
1.14619e-07
1.83828e-05
2.36418e-07
1.838e-05
2.28811e-07
1.83798e-05
2.14385e-07
1.83929e-05
2.3654e-07
1.84092e-05
2.8495e-07
1.84165e-05
3.0241e-07
1.84189e-05
2.70102e-07
1.84226e-05
2.49122e-07
1.84304e-05
2.35728e-07
1.84399e-05
2.41614e-07
1.84473e-05
2.26483e-07
1.84523e-05
2.09365e-07
1.84574e-05
1.85439e-07
1.84637e-05
1.74899e-07
1.84713e-05
1.6145e-07
1.84777e-05
1.53143e-07
1.3717e-07
1.84828e-05
1.92474e-05
-6.37191e-09
1.92414e-05
7.54256e-08
1.9247e-05
1.08967e-07
1.92597e-05
2.23735e-07
1.92599e-05
2.28612e-07
1.92588e-05
2.1555e-07
1.92684e-05
2.26907e-07
1.92847e-05
2.68612e-07
1.92948e-05
2.92354e-07
1.92984e-05
2.66461e-07
1.93021e-05
2.4546e-07
1.93095e-05
2.28356e-07
1.93192e-05
2.31914e-07
1.93274e-05
2.1823e-07
1.93331e-05
2.03706e-07
1.93385e-05
1.80001e-07
1.93445e-05
1.6889e-07
1.93516e-05
1.54343e-07
1.93584e-05
1.46347e-07
1.31928e-07
1.93637e-05
2.01674e-05
-7.35429e-09
2.01602e-05
8.25896e-08
2.01651e-05