/*--------------------------------*- C++ -*----------------------------------*\
| =========                 |                                                 |
| \\      /  F ield         | OpenFOAM: The Open Source CFD Toolbox           |
|  \\    /   O peration     | Version:  v1906                                 |
|   \\  /    A nd           | Web:      www.OpenFOAM.com                      |
|    \\/     M anipulation  |                                                 |
\*---------------------------------------------------------------------------*/
FoamFile
{
    version     2.0;
    format      ascii;
    class       surfaceScalarField;
    location    "4.1";
    object      phi;
}
// * * * * * * * * * * * * * * * * * * * * * * * * * * * * * * * * * * * * * //

dimensions      [0 3 -1 0 0 0 0];
oriented        oriented;


internalField   nonuniform List<scalar> 
19000
(
1.1472e-06
-1.27974e-07
1.17972e-06
-2.8394e-07
1.17711e-06
-3.25215e-07
1.16451e-06
7.82977e-07
1.13518e-06
9.81006e-07
1.12672e-06
-6.78667e-07
1.17274e-06
-6.3525e-07
1.17336e-06
-1.77875e-06
1.21706e-06
-2.28093e-07
1.22454e-06
-1.26977e-07
1.20057e-06
2.60628e-07
1.20317e-06
7.53243e-07
1.17616e-06
5.31648e-07
1.16208e-06
3.12444e-07
1.16832e-06
4.22327e-07
1.13471e-06
-5.55786e-07
1.16142e-06
1.99266e-07
1.09705e-06
-8.47872e-07
1.12547e-06
-4.68998e-08
-7.87271e-07
1.0101e-06
1.20288e-06
-1.06588e-07
1.23571e-06
-3.1678e-07
1.2335e-06
-3.22999e-07
1.22435e-06
7.92125e-07
1.18991e-06
1.01544e-06
1.1777e-06
-6.66451e-07
1.21735e-06
-6.74898e-07
1.22103e-06
-1.78244e-06
1.26606e-06
-2.73119e-07
1.28212e-06
-1.43046e-07
1.25156e-06
2.9119e-07
1.2604e-06
7.44406e-07
1.23262e-06
5.59427e-07
1.22163e-06
3.23438e-07
1.22394e-06
4.20018e-07
1.20829e-06
-5.4014e-07
1.21849e-06
1.89063e-07
1.1833e-06
-8.12682e-07
1.18258e-06
-4.61792e-08
-7.21658e-07
1.11697e-06
1.26154e-06
-8.53424e-08
1.29319e-06
-3.48433e-07
1.29339e-06
-3.232e-07
1.28685e-06
7.98669e-07
1.2525e-06
1.04979e-06
1.23492e-06
-6.48871e-07
1.2668e-06
-7.06774e-07
1.27482e-06
-1.79046e-06
1.31717e-06
-3.15473e-07
1.3396e-06
-1.65475e-07
1.31075e-06
3.20044e-07
1.31146e-06
7.43694e-07
1.2956e-06
5.75284e-07
1.28339e-06
3.35656e-07
1.29242e-06
4.10987e-07
1.27797e-06
-5.25695e-07
1.29097e-06
1.76069e-07
1.26045e-06
-7.82167e-07
1.26426e-06
-4.99895e-08
-6.67962e-07
1.21057e-06
1.32387e-06
-6.51095e-08
1.35226e-06
-3.76821e-07
1.35573e-06
-3.26672e-07
1.35006e-06
8.04345e-07
1.31998e-06
1.07986e-06
1.29835e-06
-6.27243e-07
1.32106e-06
-7.29487e-07
1.3326e-06
-1.802e-06
1.37207e-06
-3.5494e-07
1.39761e-06
-1.91015e-07
1.37523e-06
3.42422e-07
1.36893e-06
7.49998e-07
1.36038e-06
5.83831e-07
1.35519e-06
3.40848e-07
1.36208e-06
4.04092e-07
1.34764e-06
-5.11254e-07
1.35788e-06
1.65833e-07
1.32372e-06
-7.48015e-07
1.32901e-06
-5.52794e-08
-6.09195e-07
1.27025e-06
1.39076e-06
-4.75157e-08
1.41356e-06
-3.9962e-07
1.41967e-06
-3.32783e-07
1.41394e-06
8.10074e-07
1.39095e-06
1.10286e-06
1.36776e-06
-6.04059e-07
1.38129e-06
-7.43013e-07
1.39291e-06
-1.81361e-06
1.43026e-06
-3.92295e-07
1.45633e-06
-2.17081e-07
1.44246e-06
3.56289e-07
1.43541e-06
7.57045e-07
1.43115e-06
5.88092e-07
1.4303e-06
3.41696e-07
1.43785e-06
3.96543e-07
1.41979e-06
-4.93192e-07
1.43086e-06
1.5476e-07
1.39337e-06
-7.10522e-07
1.40019e-06
-6.21043e-08
-5.48921e-07
1.33992e-06
1.46233e-06
-3.41672e-08
1.47803e-06
-4.15323e-07
1.48452e-06
-3.39276e-07
1.47966e-06
8.14934e-07
1.4652e-06
1.11732e-06
1.44293e-06
-5.81786e-07
1.4477e-06
-7.47791e-07
1.45542e-06
-1.82132e-06
1.49089e-06
-4.27764e-07
1.51642e-06
-2.42619e-07
1.51118e-06
3.61531e-07
1.50795e-06
7.60272e-07
1.50718e-06
5.88868e-07
1.50823e-06
3.40641e-07
1.51486e-06
3.89913e-07
1.49375e-06
-4.7208e-07
1.50384e-06
1.44672e-07
1.46282e-06
-6.69503e-07
1.4713e-06
-7.05863e-08
-4.87626e-07
1.41001e-06
1.53771e-06
-2.56605e-08
1.54619e-06
-4.23805e-07
1.55049e-06
-3.4357e-07
1.54855e-06
8.16865e-07
1.54314e-06
1.12273e-06
1.52339e-06
-5.62029e-07
1.51995e-06
-7.44353e-07
1.52078e-06
-1.82216e-06
1.55411e-06
-4.61092e-07
1.57874e-06
-2.67249e-07
1.58168e-06
3.58586e-07
1.58409e-06
7.57865e-07
1.58644e-06
5.86519e-07
1.58809e-06
3.38987e-07
1.59331e-06
3.84691e-07
1.56903e-06
-4.47796e-07
1.57909e-06
1.34614e-07
1.53508e-06
-6.25497e-07
1.54505e-06
-8.05581e-08
-4.26809e-07
1.48424e-06
1.61578e-06
-2.13149e-08
1.61802e-06
-4.26044e-07
1.61871e-06
-3.44256e-07
1.62164e-06
8.13935e-07
1.62498e-06
1.11939e-06
1.60831e-06
-5.45359e-07
1.59743e-06
-7.33473e-07
1.58994e-06
-1.81467e-06
1.62062e-06
-4.91773e-07
1.64383e-06
-2.9046e-07
1.65445e-06
3.47961e-07
1.66272e-06
7.49598e-07
1.66756e-06
5.81677e-07
1.66912e-06
3.37433e-07
1.67299e-06
3.80817e-07
1.64575e-06
-4.20552e-07
1.65617e-06
1.24193e-07
1.60985e-06
-5.79175e-07
1.62103e-06
-9.17422e-08
-3.6773e-07
1.56195e-06
1.69597e-06
-1.9707e-08
1.69338e-06
-4.23458e-07
1.69073e-06
-3.41607e-07
1.6995e-06
8.05169e-07
1.7104e-06
1.10849e-06
1.69656e-06
-5.3152e-07
1.67963e-06
-7.16543e-07
1.66375e-06
-1.79879e-06
1.69092e-06
-5.18944e-07
1.71175e-06
-3.11286e-07
1.72926e-06
3.30453e-07
1.74288e-06
7.3598e-07
1.74959e-06
5.74965e-07
1.75064e-06
3.36386e-07
1.75378e-06
3.77671e-07
1.72401e-06
-3.90781e-07
1.73522e-06
1.12987e-07
1.68747e-06
-5.31428e-07
1.69941e-06
-1.03681e-07
-3.11604e-07
1.64328e-06
1.77845e-06
-1.94344e-08
1.77238e-06
-4.17385e-07
1.76774e-06
-3.36966e-07
1.7822e-06
7.907e-07
1.79883e-06
1.09186e-06
1.78707e-06
-5.19752e-07
1.76615e-06
-6.95629e-07
1.74277e-06
-1.77541e-06
1.76529e-06
-5.41456e-07
1.78239e-06
-3.28394e-07
1.80534e-06
3.07503e-07
1.82343e-06
7.17891e-07
1.83176e-06
5.66635e-07
1.83237e-06
3.35781e-07
1.83574e-06
3.74298e-07
1.80417e-06
-3.59208e-07
1.81637e-06
1.0078e-07
1.76817e-06
-4.83221e-07
1.78028e-06
-1.15792e-07
-2.59471e-07
1.72814e-06
1.86389e-06
-1.95802e-08
1.8554e-06
-4.08889e-07
1.85015e-06
-3.31722e-07
1.86935e-06
7.715e-07
1.88979e-06
1.07142e-06
1.87921e-06
-5.09166e-07
1.85662e-06
-6.7304e-07
1.8271e-06
-1.74589e-06
1.84402e-06
-5.58378e-07
1.85619e-06
-3.40556e-07
1.88248e-06
2.81207e-07
1.90393e-06
6.96441e-07
1.91407e-06
5.56492e-07
1.91471e-06
3.35148e-07
1.91933e-06
3.69677e-07
1.88682e-06
-3.26703e-07
1.90003e-06
8.7575e-08
1.85228e-06
-4.35473e-07
1.86389e-06
-1.27401e-07
-2.12182e-07
1.8166e-06
1.95302e-06
-1.97642e-08
1.94293e-06
-3.98792e-07
1.93784e-06
-3.26638e-07
1.96037e-06
7.48975e-07
1.98314e-06
1.04865e-06
1.97305e-06
-4.99073e-07
1.95073e-06
-6.50723e-07
1.91649e-06
-1.71165e-06
1.92766e-06
-5.69548e-07
1.93434e-06
-3.4723e-07
1.96172e-06
2.5382e-07
1.98525e-06
6.7291e-07
1.99755e-06
5.442e-07
1.99871e-06
3.33979e-07
2.00531e-06
3.63078e-07
1.97272e-06
-2.94114e-07
1.98667e-06
7.36295e-08
1.9402e-06
-3.89007e-07
1.95056e-06
-1.3776e-07
-1.70416e-07
1.9088e-06
2.04638e-06
-1.99575e-08
2.03533e-06
-3.87736e-07
2.03045e-06
-3.21762e-07
2.05487e-06
7.2456e-07
2.0791e-06
1.02441e-06
2.06919e-06
-4.89163e-07
2.04836e-06
-6.29889e-07
2.01059e-06
-1.67389e-06
2.01671e-06
-5.75671e-07
2.01829e-06
-3.48804e-07
2.04503e-06
2.2708e-07
2.06928e-06
6.48653e-07
2.08382e-06
5.29666e-07
2.08576e-06
3.32041e-07
2.09456e-06
3.54272e-07
2.06259e-06
-2.62142e-07
2.07685e-06
5.9372e-08
2.03236e-06
-3.44519e-07
2.04072e-06
-1.46117e-07
-1.34628e-07
2.00493e-06
2.14431e-06
-2.0266e-08
2.13278e-06
-3.7621e-07
2.12773e-06
-3.16708e-07
2.15286e-06
6.99426e-07
2.17817e-06
9.99105e-07
2.16848e-06
-4.79472e-07
2.1496e-06
-6.11012e-07
2.10918e-06
-1.63346e-06
2.11142e-06
-5.7791e-07
2.10888e-06
-3.46269e-07
2.13411e-06
2.01854e-07
2.15785e-06
6.24914e-07
2.17435e-06
5.13163e-07
2.17703e-06
3.29364e-07
2.1878e-06
3.43496e-07
2.15704e-06
-2.31379e-07
2.17105e-06
4.53579e-08
2.12917e-06
-3.02629e-07
2.13492e-06
-1.51872e-07
-1.04935e-07
2.10523e-06
2.24701e-06
-2.07859e-08
2.23537e-06
-3.64571e-07
2.22965e-06
-3.10991e-07
2.25472e-06
6.74363e-07
2.28094e-06
9.72882e-07
2.27168e-06
-4.70212e-07
2.25475e-06
-5.94085e-07
2.21224e-06
-1.59095e-06
2.2117e-06
-5.77377e-07
2.20605e-06
-3.40619e-07
2.22964e-06
1.78268e-07
2.25197e-06
6.02587e-07
2.26995e-06
4.95175e-07
2.27333e-06
3.2599e-07
2.28559e-06
3.31238e-07
2.25654e-06
-2.02337e-07
2.26976e-06
3.21422e-08
2.23096e-06
-2.63831e-07
2.23383e-06
-1.54735e-07
-8.10451e-08
2.20994e-06
2.35463e-06
-2.15426e-08
2.34313e-06
-3.53068e-07
2.33639e-06
-3.04252e-07
2.36098e-06
6.49777e-07
2.38801e-06
9.45847e-07
2.37937e-06
-4.61577e-07
2.36418e-06
-5.78892e-07
2.3199e-06
-1.54666e-06
2.31738e-06
-5.74864e-07
2.30921e-06
-3.32443e-07
2.33139e-06
1.56085e-07
2.35191e-06
5.82071e-07
2.37092e-06
4.76157e-07
2.37515e-06
3.21761e-07
2.38835e-06
3.18041e-07
2.36146e-06
-1.75452e-07
2.37343e-06
2.0178e-08
2.33799e-06
-2.28397e-07
2.33802e-06
-1.54762e-07
-6.2305e-08
2.31928e-06
2.46734e-06
-2.24886e-08
2.45614e-06
-3.41864e-07
2.44821e-06
-2.96327e-07
2.47222e-06
6.25765e-07
2.49994e-06
9.18132e-07
2.49198e-06
-4.53618e-07
2.47825e-06
-5.65158e-07
2.43238e-06
-1.50079e-06
2.4284e-06
-5.70888e-07
2.41789e-06
-3.21926e-07
2.43896e-06
1.35013e-07
2.45775e-06
5.63283e-07
2.47745e-06
4.56452e-07
2.48289e-06
3.16318e-07
2.49652e-06
3.04418e-07
2.4721e-06
-1.51037e-07
2.48248e-06
9.79897e-09
2.45043e-06
-1.96348e-07
2.44792e-06
-1.52247e-07
-4.79003e-08
2.43351e-06
2.58534e-06
-2.35312e-08
2.57453e-06
-3.31053e-07
2.56543e-06
-2.87229e-07
2.589e-06
6.02194e-07
2.61724e-06
8.89895e-07
2.60984e-06
-4.46221e-07
2.59728e-06
-5.52598e-07
2.54994e-06
-1.45346e-06
2.54492e-06
-5.65869e-07
2.53211e-06
-3.09112e-07
2.5523e-06
1.14819e-07
2.56979e-06
5.45799e-07
2.5899e-06
4.36345e-07
2.59695e-06
3.09263e-07
2.61051e-06
2.90857e-07
2.58868e-06
-1.29208e-07
2.59734e-06
1.13982e-09
2.56842e-06
-1.67422e-07
2.56381e-06
-1.47645e-07
-3.70135e-08
2.55293e-06
2.70886e-06
-2.4565e-08
2.69849e-06
-3.20683e-07
2.68833e-06
-2.77069e-07
2.71173e-06
5.78801e-07
2.74033e-06
8.6129e-07
2.73327e-06
-4.39162e-07
2.72161e-06
-5.40934e-07
2.67288e-06
-1.40473e-06
2.66725e-06
-5.60241e-07
2.65229e-06
-2.94151e-07
2.67178e-06
9.53279e-08
2.68855e-06
5.29025e-07
2.70872e-06
4.16174e-07
2.71767e-06
3.00315e-07
2.7307e-06
2.77827e-07
2.71135e-06
-1.09854e-07
2.71836e-06
-5.87315e-09
2.69209e-06
-1.41154e-07
2.68587e-06
-1.41427e-07
-2.89866e-08
2.67785e-06
2.8382e-06
-2.54952e-08
2.82829e-06
-3.10776e-07
2.81721e-06
-2.65985e-07
2.84071e-06
5.55297e-07
2.86956e-06
8.3244e-07
2.86258e-06
-4.3218e-07
2.85157e-06
-5.29926e-07
2.8015e-06
-1.35466e-06
2.7957e-06
-5.54438e-07
2.77892e-06
-2.77374e-07
2.79784e-06
7.64091e-08
2.81452e-06
5.12346e-07
2.83433e-06
3.96366e-07
2.84525e-06
2.89392e-07
2.85738e-06
2.65698e-07
2.84018e-06
-9.26517e-08
2.84579e-06
-1.14795e-08
2.82169e-06
-1.17059e-07
2.81421e-06
-1.33941e-07
-2.3371e-08
2.80859e-06
2.97365e-06
-2.6247e-08
2.96422e-06
-3.01343e-07
2.95233e-06
-2.54095e-07
2.97618e-06
5.31444e-07
3.0052e-06
8.03416e-07
2.99805e-06
-4.25028e-07
2.98754e-06
-5.1941e-07
2.93618e-06
-1.30331e-06
2.93057e-06
-5.48825e-07
2.91244e-06
-2.5924e-07
2.93082e-06
5.80289e-08
2.94799e-06
4.95174e-07
2.96694e-06
3.77413e-07
2.97976e-06
2.76575e-07
2.99079e-06
2.54664e-07
2.97526e-06
-7.71216e-08
2.97979e-06
-1.60123e-08
2.95753e-06
-9.47963e-08
2.94891e-06
-1.25321e-07
-1.98827e-08
2.94542e-06
3.11552e-06
-2.67649e-08
3.10658e-06
-2.92402e-07
3.09398e-06
-2.41492e-07
3.11832e-06
5.07102e-07
3.1475e-06
7.74239e-07
3.13996e-06
-4.17495e-07
3.12987e-06
-5.09314e-07
3.07729e-06
-1.25072e-06
3.07208e-06
-5.43622e-07
3.0531e-06
-2.40259e-07
3.07083e-06
4.02963e-08
3.08901e-06
4.76997e-07
3.10665e-06
3.59777e-07
3.12116e-06
2.62068e-07
3.13113e-06
2.44689e-07
3.1167e-06
-6.26944e-08
3.12052e-06
-1.98283e-08
3.09998e-06
-7.42549e-08
3.09014e-06
-1.15486e-07
-1.83213e-08
3.08858e-06
3.26415e-06
-2.70082e-08
3.25572e-06
-2.8397e-07
3.24248e-06
-2.28248e-07
3.26734e-06
4.82237e-07
3.29669e-06
7.44888e-07
3.2886e-06
-4.09397e-07
3.27893e-06
-4.99646e-07
3.2252e-06
-1.19699e-06
3.22046e-06
-5.38887e-07
3.20113e-06
-2.20932e-07
3.21797e-06
2.34603e-08
3.23759e-06
4.57381e-07
3.25354e-06
3.43825e-07
3.26944e-06
2.46169e-07
3.27861e-06
2.35515e-07
3.26472e-06
-4.88043e-08
3.26808e-06
-2.31931e-08
3.2494e-06
-5.55735e-08
3.23815e-06
-1.04235e-07
-1.84471e-08
3.23828e-06
3.41987e-06
-2.69467e-08
3.41196e-06
-2.76065e-07
3.39816e-06
-2.14439e-07
3.42349e-06
4.56908e-07
3.45307e-06
7.15307e-07
3.44424e-06
-4.00565e-07
3.43506e-06
-4.90467e-07
3.3803e-06
-1.14223e-06
3.37593e-06
-5.34522e-07
3.35675e-06
-2.0175e-07
3.37233e-06
7.88199e-09
3.39371e-06
4.35996e-07
3.40778e-06
3.29761e-07
3.42467e-06
2.29279e-07
3.43345e-06
2.26733e-07
3.41965e-06
-3.50031e-08
3.42266e-06
-2.62075e-08
3.40612e-06
-3.90347e-08
3.39334e-06
-9.14543e-08
-1.98393e-08
3.39474e-06
3.58302e-06
-2.65581e-08
3.57565e-06
-2.68692e-07
3.56137e-06
-2.0016e-07
3.58703e-06
4.31244e-07
3.61693e-06
6.85413e-07
3.60721e-06
-3.90843e-07
3.59859e-06
-4.8185e-07
3.54298e-06
-1.08663e-06
3.53877e-06
-5.30313e-07
3.52022e-06
-1.83195e-07
3.53412e-06
-6.0201e-09
3.55748e-06
4.12635e-07
3.56967e-06
3.17577e-07
3.58702e-06
2.11921e-07
3.5959e-06
2.17857e-07
3.5819e-06
-2.09985e-08
3.58448e-06
-2.87876e-08
3.57041e-06
-2.49683e-08
3.55623e-06
-7.72717e-08
-2.18007e-08
3.55819e-06
3.75398e-06
-2.58278e-08
3.74712e-06
-2.61839e-07
3.7325e-06
-1.85534e-07
3.75831e-06
4.05431e-07
3.78861e-06
6.55107e-07
3.77786e-06
-3.80092e-07
3.76986e-06
-4.73847e-07
3.71365e-06
-1.03041e-06
3.70931e-06
-5.25978e-07
3.69184e-06
-1.65724e-07
3.70366e-06
-1.78418e-08
3.72904e-06
3.87257e-07
3.73959e-06
3.0703e-07
3.75676e-06
1.94748e-07
3.76621e-06
2.08406e-07
3.75193e-06
-6.71472e-09
3.75377e-06
-3.06345e-08
3.7425e-06
-1.36974e-08
3.72728e-06
-6.20532e-08
-2.34831e-08
3.72897e-06
3.93311e-06
-2.47492e-08
3.92674e-06
-2.55467e-07
3.91192e-06
-1.7072e-07
3.93767e-06
3.79687e-07
3.96848e-06
6.24292e-07
3.9566e-06
-3.68204e-07
3.94921e-06
-4.66458e-07
3.8927e-06
-9.73907e-07
3.8879e-06
-5.21178e-07
3.87196e-06
-1.49788e-07
3.88135e-06
-2.72293e-08
3.90861e-06
3.6e-07
3.91793e-06
2.97707e-07
3.93424e-06
1.78438e-07
3.94462e-06
1.98031e-07
3.93023e-06
7.67433e-09
3.93094e-06
-3.13441e-08
3.92263e-06
-5.39095e-09
3.90694e-06
-4.63651e-08
-2.40305e-08
3.90749e-06
4.12083e-06
-2.3324e-08
4.11487e-06
-2.49516e-07
4.10006e-06
-1.55907e-07
4.1255e-06
3.54245e-07
4.15691e-06
5.92881e-07
4.14383e-06
-3.55119e-07
4.13699e-06
-4.59618e-07
4.08056e-06
-9.17482e-07
4.07492e-06
-5.15534e-07
4.06094e-06
-1.35805e-07
4.06765e-06
-3.39404e-08
4.09645e-06
3.31195e-07
4.10508e-06
2.89081e-07
4.11993e-06
1.63587e-07
4.13135e-06
1.86609e-07
4.11724e-06
2.17897e-08
4.11644e-06
-3.05501e-08
4.11101e-06
4.08554e-11
4.09557e-06
-3.09278e-08
-2.28e-08
4.09434e-06
4.31754e-06
-2.15606e-08
4.31193e-06
-2.43904e-07
4.29732e-06
-1.41298e-07
4.32223e-06
3.29335e-07
4.35429e-06
5.60818e-07
4.34002e-06
-3.40845e-07
4.33358e-06
-4.53184e-07
4.27767e-06
-8.61571e-07
4.27081e-06
-5.08675e-07
4.25911e-06
-1.24105e-07
4.26306e-06
-3.78853e-08
4.2929e-06
3.01351e-07
4.30142e-06
2.80559e-07
4.31433e-06
1.50681e-07
4.32672e-06
1.74219e-07
4.31341e-06
3.51057e-08
4.31083e-06
-2.79751e-08
4.3079e-06
2.96805e-09
4.29352e-06
-1.65481e-08
-1.94501e-08
4.29017e-06
4.52369e-06
-1.94737e-08
4.51832e-06
-2.38539e-07
4.50411e-06
-1.27088e-07
4.52829e-06
3.05155e-07
4.56101e-06
5.28098e-07
4.54564e-06
-3.25472e-07
4.53939e-06
-4.46936e-07
4.48445e-06
-8.06633e-07
4.47604e-06
-5.00259e-07
4.46686e-06
-1.14932e-07
4.46812e-06
-3.91399e-08
4.49836e-06
2.7111e-07
4.50735e-06
2.7157e-07
4.51802e-06
1.40009e-07
4.53112e-06
1.61118e-07
4.51914e-06
4.70807e-08
4.51469e-06
-2.3516e-08
4.51365e-06
4.0013e-09
4.50109e-06
-3.987e-09
-1.40232e-08
4.49566e-06
4.73972e-06
-1.7082e-08
4.73451e-06
-2.33324e-07
4.72086e-06
-1.13443e-07
4.74415e-06
2.81864e-07
4.77748e-06
4.94771e-07
4.76118e-06
-3.09168e-07
4.75485e-06
-4.40604e-07
4.70134e-06
-7.53131e-07
4.69109e-06
-4.90009e-07
4.68452e-06
-1.08355e-07
4.68338e-06
-3.80029e-08
4.7133e-06
2.41193e-07
4.72321e-06
2.61659e-07
4.73159e-06
1.31629e-07
4.74497e-06
1.47732e-07
4.73485e-06
5.72094e-08
4.72863e-06
-1.72966e-08
4.72868e-06
3.95307e-09
4.71861e-06
6.08288e-09
-6.83758e-09
4.71142e-06
4.96612e-06
-1.44059e-08
4.96098e-06
-2.28183e-07
4.948e-06
-1.00466e-07
4.9703e-06
2.59564e-07
5.00415e-06
4.6093e-07
4.98714e-06
-2.92163e-07
4.98043e-06
-4.33892e-07
4.92878e-06
-7.01485e-07
4.91653e-06
-4.77755e-07
4.91243e-06
-1.0426e-07
4.90939e-06
-3.49613e-08
4.93824e-06
2.12348e-07
4.94941e-06
2.50485e-07
4.95563e-06
1.25411e-07
4.96883e-06
1.34529e-07
4.96085e-06
6.51916e-08
4.95325e-06
-9.70045e-09
4.95354e-06
3.66529e-09
4.9463e-06
1.33262e-08
1.38288e-09
4.93808e-06
5.20338e-06
-1.14685e-08
5.19826e-06
-2.23066e-07
5.18598e-06
-8.81826e-08
5.20725e-06
2.38295e-07
5.24149e-06
4.26692e-07
5.22405e-06
-2.74727e-07
5.21665e-06
-4.26496e-07
5.16725e-06
-6.52077e-07
5.15289e-06
-4.63396e-07
5.151e-06
-1.0237e-07
5.1467e-06
-3.06601e-08
5.17375e-06
1.85294e-07
5.18634e-06
2.37891e-07
5.19074e-06
1.21017e-07
5.20326e-06
1.22009e-07
5.19755e-06
7.09001e-08
5.1891e-06
-1.25124e-09
5.189e-06
3.76179e-09
5.18434e-06
1.79876e-08
9.63183e-09
5.17609e-06
5.45202e-06
-8.29502e-09
5.44691e-06
-2.17958e-07
5.43527e-06
-7.65448e-08
5.4555e-06
2.18062e-07
5.49001e-06
3.92186e-07
5.47241e-06
-2.57123e-07
5.46407e-06
-4.18163e-07
5.41722e-06
-6.05221e-07
5.40075e-06
-4.46929e-07
5.40069e-06
-1.0231e-07
5.39575e-06
-2.57162e-08
5.42048e-06
1.60555e-07
5.43444e-06
2.23937e-07
5.4375e-06
1.17958e-07
5.44888e-06
1.10629e-07
5.44537e-06
7.44109e-08
5.43666e-06
7.45809e-09
5.43575e-06
4.67023e-09
5.43309e-06
2.06448e-08
1.69077e-08
5.42582e-06
5.71258e-06
-4.91648e-09
5.7075e-06
-2.12878e-07
5.69641e-06
-6.54535e-08
5.71562e-06
1.98853e-07
5.75026e-06
3.57543e-07
5.73271e-06
-2.39572e-07
5.72325e-06
-4.08708e-07
5.6792e-06
-5.61173e-07
5.66076e-06
-4.28481e-07
5.66201e-06
-1.03561e-07
5.65701e-06
-2.07155e-08
5.67912e-06
1.38439e-07
5.69419e-06
2.08868e-07
5.69642e-06
1.15732e-07
5.70634e-06
1.00709e-07
5.70482e-06
7.59313e-08
5.6964e-06
1.58721e-08
5.69452e-06
6.55315e-09
5.69315e-06
2.20154e-08
2.25818e-08
5.68748e-06
5.98565e-06
-1.37296e-09
5.98063e-06
-2.07861e-07
5.97001e-06
-5.48337e-08
5.98815e-06
1.80713e-07
6.02281e-06
3.22882e-07
6.00548e-06
-2.22239e-07
5.99479e-06
-3.98018e-07
5.95376e-06
-5.20144e-07
5.93355e-06
-4.08269e-07
5.93554e-06
-1.05553e-07
5.93094e-06
-1.61146e-08
5.95034e-06
1.19045e-07
5.96616e-06
1.9304e-07
5.96798e-06
1.13915e-07
5.97631e-06
9.23825e-08
5.97646e-06
7.57819e-08
5.96878e-06
2.35534e-08
5.966e-06
9.32514e-09
5.96527e-06
2.27528e-08
2.64749e-08
5.96137e-06
6.27183e-06
2.28262e-09
6.26691e-06
-2.02937e-07
6.2568e-06
-4.47274e-08
6.27369e-06
1.63821e-07
6.30827e-06
2.88311e-07
6.29133e-06
-2.05299e-07
6.27927e-06
-3.85962e-07
6.24146e-06
-4.82333e-07
6.21981e-06
-3.86624e-07
6.22193e-06
-1.07669e-07
6.218e-06
-1.21842e-08
6.23476e-06
1.02288e-07
6.25094e-06
1.76854e-07
6.25277e-06
1.1209e-07
6.25945e-06
8.56968e-08
6.26091e-06
7.43282e-08
6.25423e-06
3.02325e-08
6.25089e-06
1.26594e-08
6.25023e-06
2.34195e-08
2.88202e-08
6.24788e-06
6.57177e-06
5.97947e-09
6.56693e-06
-1.98098e-07
6.55749e-06
-3.52886e-08
6.57286e-06
1.48458e-07
6.60718e-06
2.53987e-07
6.59091e-06
-1.89032e-07
6.57724e-06
-3.72282e-07
6.54273e-06
-4.47824e-07
6.52015e-06
-3.64047e-07
6.52179e-06
-1.09312e-07
6.51865e-06
-9.04144e-09
6.53292e-06
8.80206e-08
6.54916e-06
1.60612e-07
6.55129e-06
1.09954e-07
6.55647e-06
8.05215e-08
6.55883e-06
7.19687e-08
6.55334e-06
3.57166e-08
6.54972e-06
1.62854e-08
6.5489e-06
2.42331e-08
3.01768e-08
6.54755e-06
6.88615e-06
9.62292e-09
6.88129e-06
-1.93238e-07
6.87279e-06
-2.67953e-08
6.88623e-06
1.35026e-07
6.92013e-06
2.20085e-07
6.90487e-06
-1.73776e-07
6.88923e-06
-3.56641e-07
6.85781e-06
-4.16408e-07
6.83501e-06
-3.41245e-07
6.83579e-06
-1.10085e-07
6.83331e-06
-6.56609e-09
6.84535e-06
7.59811e-08
6.86144e-06
1.44519e-07
6.86416e-06
1.07236e-07
6.86802e-06
7.66632e-08
6.87096e-06
6.90343e-08
6.86668e-06
3.99943e-08
6.86307e-06
1.98883e-08
6.86207e-06
2.52388e-08
3.10318e-08
6.86121e-06
7.21566e-06
1.30945e-08
7.21053e-06
-1.88098e-07
7.2034e-06
-1.96693e-08
7.21443e-06
1.23991e-07
7.24758e-06
1.8694e-07
7.23385e-06
-1.6005e-07
7.21613e-06
-3.38915e-07
7.18742e-06
-3.87704e-07
7.16505e-06
-3.18875e-07
7.16471e-06
-1.09739e-07
7.16262e-06
-4.48053e-09
7.1727e-06
6.59e-08
7.18842e-06
1.28803e-07
7.19201e-06
1.0364e-07
7.19484e-06
7.38346e-08
7.19799e-06
6.5884e-08
7.19493e-06
4.30522e-08
7.19151e-06
2.33171e-08
7.19049e-06
2.62536e-08
3.17387e-08
7.18978e-06
7.56106e-06
1.62586e-08
7.55529e-06
-1.82327e-07
7.55004e-06
-1.44173e-08
7.55838e-06
1.15646e-07
7.59018e-06
1.55142e-07
7.57858e-06
-1.4845e-07
7.55883e-06
-3.19165e-07
7.53225e-06
-3.61125e-07
7.51093e-06
-2.97551e-07
7.50935e-06
-1.08159e-07
7.5074e-06
-2.53388e-09
7.51569e-06
5.7607e-08
7.53085e-06
1.13648e-07
7.53551e-06
9.8982e-08
7.53766e-06
7.16847e-08
7.5407e-06
6.28355e-08
7.53882e-06
4.4934e-08
7.53571e-06
2.64261e-08
7.53475e-06
2.72136e-08
3.23542e-08
7.53414e-06
7.9231e-06
1.89657e-08
7.91631e-06
-1.75537e-07
7.91345e-06
-1.15539e-08
7.91905e-06
1.10045e-07
7.94899e-06
1.25209e-07
7.94021e-06
-1.39675e-07
7.91888e-06
-2.97834e-07
7.89369e-06
-3.35933e-07
7.87317e-06
-2.77037e-07
7.8704e-06
-1.05381e-07
7.86853e-06
-6.70117e-10
7.87522e-06
5.09209e-08
7.88954e-06
9.93233e-08
7.89532e-06
9.32002e-08
7.8972e-06
6.98046e-08
7.8999e-06
6.01408e-08
7.8991e-06
4.57346e-08
7.89644e-06
2.90888e-08
7.89552e-06
2.81311e-08
3.27918e-08
7.89508e-06
8.30258e-06
2.1066e-08
8.29438e-06
-1.67335e-07
8.29444e-06
-1.16175e-08
8.29749e-06
1.06994e-07
8.32548e-06
9.7222e-08
8.32059e-06
-1.34784e-07
8.29748e-06
-2.74724e-07
8.27136e-06
-3.09813e-07
8.25156e-06
-2.57234e-07
8.24856e-06
-1.02383e-07
8.24702e-06
8.64271e-10
8.2522e-06
4.57399e-08
8.26539e-06
8.61348e-08
8.27222e-06
8.63753e-08
8.27414e-06
6.78859e-08
8.27652e-06
5.7761e-08
8.27646e-06
4.5795e-08
8.27441e-06
3.11368e-08
8.2736e-06
2.89339e-08
3.30492e-08
8.27335e-06
8.70031e-06
2.24223e-08
8.69042e-06
-1.57447e-07
8.69355e-06
-1.47534e-08
8.69514e-06
1.05408e-07
8.71815e-06
7.42149e-08
8.71296e-06
-1.29602e-07
8.68994e-06
-2.51695e-07
8.66492e-06
-2.84796e-07
8.64721e-06
-2.3953e-07
8.64483e-06
-9.99938e-08
8.64381e-06
1.87684e-09
8.64775e-06
4.18028e-08
8.65943e-06
7.4458e-08
8.66703e-06
7.87712e-08
8.66926e-06
6.56527e-08
8.67136e-06
5.56636e-08
8.67175e-06
4.54119e-08
8.67033e-06
3.25547e-08
8.66975e-06
2.95101e-08
3.31108e-08
8.66969e-06
9.11707e-06
2.29686e-08
9.10549e-06
-1.45866e-07
9.11096e-06
-2.02176e-08
9.11169e-06
1.04671e-07
9.128e-06
5.79049e-08
9.1264e-06
-1.27999e-07
9.1048e-06
-2.30093e-07
9.07933e-06
-2.59327e-07
9.06187e-06
-2.2207e-07
9.05987e-06
-9.79982e-08
9.05979e-06
1.95965e-09
9.06265e-06
3.89409e-08
9.07269e-06
6.44178e-08
9.08067e-06
7.07965e-08
9.08343e-06
6.28963e-08
9.08535e-06
5.37346e-08
9.08608e-06
4.46889e-08
9.08519e-06
3.34421e-08
9.08489e-06
2.98097e-08
3.28754e-08
9.08513e-06
9.55374e-06
2.26886e-08
9.54056e-06
-1.32681e-07
9.54767e-06
-2.73309e-08
9.54957e-06
1.02766e-07
9.56042e-06
4.70627e-08
9.55961e-06
-1.27197e-07
9.53986e-06
-2.10335e-07
9.51434e-06
-2.33811e-07
9.49645e-06
-2.04175e-07
9.49469e-06
-9.62392e-08
9.49576e-06
8.81493e-10
9.49789e-06
3.68187e-08
9.50627e-06
5.60297e-08
9.51413e-06
6.29426e-08
9.5175e-06
5.95295e-08
9.51937e-06
5.18627e-08
9.52036e-06
4.36989e-08
9.51988e-06
3.39216e-08
9.51982e-06
2.9864e-08
3.21862e-08
9.52051e-06
1.00112e-05
2.16467e-08
9.99676e-06
-1.18269e-07
1.00046e-05
-3.51636e-08
1.0009e-05
9.83604e-08
1.0015e-05
4.11012e-08
1.00133e-05
-1.2556e-07
9.99592e-06
-1.92931e-07
9.97089e-06
-2.08775e-07
9.9523e-06
-1.85589e-07
9.9503e-06
-9.42383e-08
9.95246e-06
-1.2791e-09
9.95442e-06
3.4861e-08
9.96109e-06
4.93566e-08
9.96857e-06
5.5468e-08
9.97245e-06
5.56476e-08
9.97441e-06
4.99033e-08
9.97551e-06
4.25992e-08
9.97552e-06
3.39084e-08
9.97556e-06
2.98272e-08
3.11233e-08
9.97662e-06
1.04903e-05
1.99924e-08
1.04754e-05
-1.03326e-07
1.04827e-05
-4.25015e-08
1.04907e-05
9.03688e-08
1.04926e-05
3.91547e-08
1.04889e-05
-1.21832e-07
1.04736e-05
-1.77651e-07
1.045e-05
-1.85116e-07
1.04309e-05
-1.66535e-07
1.04277e-05
-9.10712e-08
1.04308e-05
-4.37041e-09
1.04331e-05
3.26035e-08
1.04383e-05
4.41694e-08
1.04451e-05
4.86582e-08
1.04493e-05
5.14174e-08
1.04514e-05
4.78043e-08
1.04526e-05
4.13897e-08
1.04531e-05
3.34485e-08
1.04532e-05
2.97393e-08
2.98391e-08
1.04545e-05
1.09921e-05
1.79392e-08
1.09774e-05
-8.86744e-08
1.09832e-05
-4.82628e-08
1.09949e-05
7.86726e-08
1.09942e-05
3.98327e-08
1.09874e-05
-1.1501e-07
1.09738e-05
-1.6406e-07
1.09523e-05
-1.6366e-07
1.09333e-05
-1.47458e-07
1.09286e-05
-8.63895e-08
1.09319e-05
-7.66201e-09
1.09347e-05
2.98035e-08
1.09389e-05
3.99709e-08
1.09448e-05
4.27715e-08
1.09492e-05
4.69456e-08
1.09515e-05
4.55326e-08
1.09528e-05
4.01015e-08
1.09536e-05
3.26798e-08
1.09539e-05
2.9428e-08
2.85862e-08
1.09551e-05
1.15176e-05
1.57496e-08
1.1504e-05
-7.51277e-08
1.15074e-05
-5.16887e-08
1.15219e-05
6.42232e-08
1.15206e-05
4.1154e-08
1.15101e-05
-1.04564e-07
1.14974e-05
-1.51391e-07
1.14787e-05
-1.44927e-07
1.14603e-05
-1.29009e-07
1.14541e-05
-8.02767e-08
1.14568e-05
-1.03466e-08
1.14602e-05
2.64752e-08
1.14638e-05
3.63529e-08
1.14688e-05
3.77616e-08
1.14733e-05
4.24705e-08
1.14758e-05
4.30143e-08
1.14771e-05
3.87852e-08
1.1478e-05
3.17311e-08
1.14788e-05
2.8704e-08
2.75874e-08
1.14798e-05
1.20679e-05
1.37044e-08
1.20562e-05
-6.34267e-08
1.20568e-05
-5.23384e-08
1.20725e-05
4.84942e-08
1.20723e-05
4.13575e-08
1.20587e-05
-9.09425e-08
1.20458e-05
-1.38448e-07
1.20299e-05
-1.29008e-07
1.20129e-05
-1.12073e-07
1.20056e-05
-7.29607e-08
1.20073e-05
-1.20067e-08
1.20107e-05
2.30276e-08
1.2014e-05
3.30858e-08
1.20183e-05
3.34357e-08
1.20226e-05
3.81715e-08
1.20254e-05
4.01711e-08
1.20268e-05
3.73935e-08
1.20278e-05
3.07591e-08
1.20289e-05
2.76432e-08
2.66864e-08
1.20298e-05
1.26442e-05
1.20657e-08
1.26345e-05
-5.37338e-08
1.26321e-05
-4.99142e-08
1.26479e-05
3.27119e-08
1.265e-05
3.92224e-08
1.26346e-05
-7.55078e-08
1.26203e-05
-1.2412e-07
1.26068e-05
-1.15536e-07
1.2592e-05
-9.7256e-08
1.2584e-05
-6.4995e-08
1.25846e-05
-1.25505e-08
1.25876e-05
1.99727e-08
1.25907e-05
3.00033e-08
1.25944e-05
2.97477e-08
1.25985e-05
3.40424e-08
1.26016e-05
3.70598e-08
1.26032e-05
3.58243e-08
1.26041e-05
2.98517e-08
1.26054e-05
2.63456e-08
2.5623e-08
1.26065e-05
1.3248e-05
1.10333e-08
1.32395e-05
-4.53159e-08
1.32345e-05
-4.48972e-08
1.32492e-05
1.80849e-08
1.32543e-05
3.41068e-08
1.32387e-05
-5.99206e-08
1.32227e-05
-1.08156e-07
1.32107e-05
-1.03516e-07
1.31983e-05
-8.48169e-08
1.31906e-05
-5.73253e-08
1.319e-05
-1.19115e-08
1.31924e-05
1.75548e-08
1.31951e-05
2.72679e-08
1.31983e-05
2.65542e-08
1.32022e-05
3.01793e-08
1.32054e-05
3.37759e-08
1.32074e-05
3.38384e-08
1.32083e-05
2.90261e-08
1.32096e-05
2.50385e-08
2.43062e-08
1.32109e-05
1.38805e-05
1.06809e-08
1.38743e-05
-3.90897e-08
1.38671e-05
-3.76845e-08
1.38782e-05
6.92029e-09
1.38859e-05
2.64715e-08
1.38719e-05
-4.59637e-08
1.38548e-05
-9.10422e-08
1.3843e-05
-9.17199e-08
1.38329e-05
-7.46601e-08
1.38262e-05
-5.06231e-08
1.38248e-05
-1.05438e-08
1.38264e-05
1.58974e-08
1.38287e-05
2.50508e-08
1.38314e-05
2.38629e-08
1.38349e-05
2.66024e-08
1.38383e-05
3.03698e-08
1.38406e-05
3.15403e-08
1.38417e-05
2.79883e-08
1.38428e-05
2.3869e-08
2.27541e-08
1.38444e-05
1.45433e-05
1.1038e-08
1.4538e-05
-3.38159e-08
1.45302e-05
-2.98145e-08
1.45373e-05
-2.45088e-10
1.45463e-05
1.75491e-08
1.45354e-05
-3.51236e-08
1.4518e-05
-7.36166e-08
1.45057e-05
-7.9421e-08
1.4497e-05
-6.60204e-08
1.44916e-05
-4.5163e-08
1.44903e-05
-9.28199e-09
1.44912e-05
1.5029e-08
1.44929e-05
2.33908e-08
1.44949e-05
2.18254e-08
1.44981e-05
2.33595e-08
1.45015e-05
2.69596e-08
1.45042e-05
2.88554e-08
1.45056e-05
2.66119e-08
1.45066e-05
2.28543e-08
2.11123e-08
1.45083e-05
1.52379e-05
1.19738e-08
1.52337e-05
-2.95804e-08
1.52257e-05
-2.17907e-08
1.52286e-05
-3.20823e-09
1.52374e-05
8.82952e-09
1.52302e-05
-2.79472e-08
1.52136e-05
-5.70232e-08
1.52007e-05
-6.6524e-08
1.51924e-05
-5.76785e-08
1.51882e-05
-4.09578e-08
1.51875e-05
-8.61798e-09
1.51881e-05
1.4386e-08
1.51891e-05
2.24073e-08
1.51906e-05
2.03522e-08
1.51933e-05
2.06782e-08
1.51966e-05
2.36155e-08
1.51996e-05
2.59165e-08
1.52014e-05
2.47957e-08
1.52024e-05
2.18072e-08
1.95509e-08
1.5204e-05
1.5966e-05
1.32824e-08
1.59621e-05
-2.56938e-08
1.59549e-05
-1.4547e-08
1.59542e-05
-2.50253e-09
1.59611e-05
1.93634e-09
1.59574e-05
-2.43108e-08
1.5943e-05
-4.25375e-08
1.59296e-05
-5.31979e-08
1.59209e-05
-4.89928e-08
1.59173e-05
-3.73308e-08
1.59174e-05
-8.74324e-09
1.59184e-05
1.3387e-08
1.5919e-05
2.18468e-08
1.59199e-05
1.94527e-08
1.5922e-05
1.85923e-08
1.59251e-05
2.05087e-08
1.59281e-05
2.29268e-08
1.59304e-05
2.25228e-08
1.59317e-05
2.04682e-08
1.81474e-08
1.59331e-05
1.67291e-05
1.47481e-08
1.67244e-05
-2.09931e-08
1.67188e-05
-8.87136e-09
1.67159e-05
3.96554e-10
1.67197e-05
-1.90942e-09
1.67187e-05
-2.32655e-08
1.67072e-05
-3.10333e-08
1.6694e-05
-4.00796e-08
1.66849e-05
-3.98323e-08
1.66809e-05
-3.33612e-08
1.66816e-05
-9.4548e-09
1.66833e-05
1.16737e-08
1.6684e-05
2.11434e-08
1.66844e-05
1.90509e-08
1.66859e-05
1.71209e-08
1.66886e-05
1.78442e-08
1.66916e-05
1.99168e-08
1.66941e-05
2.00311e-08
1.66958e-05
1.87136e-08
1.67127e-08
1.66973e-05
1.7529e-05
1.61476e-08
1.75242e-05
-1.61999e-08
1.75195e-05
-4.20376e-09
1.75154e-05
4.45196e-09
1.75157e-05
-2.20908e-09
1.75156e-05
-2.31582e-08
1.75074e-05
-2.28046e-08
1.74954e-05
-2.81017e-08
1.74859e-05
-3.02918e-08
1.74812e-05
-2.86412e-08
1.74818e-05
-1.01011e-08
1.74842e-05
9.28772e-09
1.74855e-05
1.98262e-08
1.74858e-05
1.87986e-08
1.74867e-05
1.61787e-08
1.74888e-05
1.57111e-08
1.74917e-05
1.70671e-08
1.74943e-05
1.74379e-08
1.74964e-05
1.659e-08
1.50909e-08
1.7498e-05
1.83672e-05
1.7337e-08
1.83619e-05
-1.09234e-08
1.83582e-05
-5.47881e-10
1.83542e-05
8.5076e-09
1.83514e-05
5.52631e-10
1.83505e-05
-2.2296e-08
1.83453e-05
-1.7537e-08
1.83352e-05
-1.80561e-08
1.83257e-05
-2.07136e-08
1.83202e-05
-2.31637e-08
1.83201e-05
-1.00443e-08
1.83228e-05
6.58698e-09
1.83248e-05
1.7807e-08
1.83255e-05
1.81761e-08
1.83261e-05
1.55797e-08
1.83277e-05
1.40605e-08
1.83303e-05
1.45152e-08