/*--------------------------------*- C++ -*----------------------------------*\
| =========                 |                                                 |
| \\      /  F ield         | OpenFOAM: The Open Source CFD Toolbox           |
|  \\    /   O peration     | Version:  v1812                                 |
|   \\  /    A nd           | Web:      www.OpenFOAM.com                      |
|    \\/     M anipulation  |                                                 |
\*---------------------------------------------------------------------------*/
FoamFile
{
    version     2.0;
    format      ascii;
    class       volVectorField;
    location    "4.1";
    object      U;
}
// * * * * * * * * * * * * * * * * * * * * * * * * * * * * * * * * * * * * * //

dimensions      [0 1 -1 0 0 0 0];


internalField   nonuniform List<vector> 
9600
(
(0.896007 -0.00143987 0)
(1.06078 -0.00284377 0)
(0.963528 -0.00388758 0)
(1.04639 0.0100816 0)
(0.951984 0.0135886 0)
(0.987277 -0.0105312 0)
(0.945885 -0.010006 0)
(1.05439 -0.0322906 0)
(0.960508 -0.00382124 0)
(1.11536 -0.00259152 0)
(0.988678 0.00578965 0)
(1.05694 0.0193084 0)
(1.00588 0.0143185 0)
(1.00881 0.00910376 0)
(0.981476 0.014054 0)
(1.01165 -0.0206861 0)
(0.942118 0.0085276 0)
(1.03069 -0.0377552 0)
(0.863043 -0.00137616 0)
(1.04099 -0.0414217 0)
(0.906109 -0.00118866 0)
(1.05267 -0.00326075 0)
(0.969979 -0.00386744 0)
(1.0417 0.0101728 0)
(0.962391 0.0140308 0)
(0.978904 -0.0103398 0)
(0.949041 -0.0109912 0)
(1.03329 -0.0323686 0)
(0.965035 -0.00496667 0)
(1.09826 -0.00285295 0)
(1.00118 0.006382 0)
(1.04024 0.0190703 0)
(1.01962 0.0150622 0)
(0.995824 0.00960228 0)
(0.999827 0.0138271 0)
(0.994978 -0.0195619 0)
(0.987171 0.00750647 0)
(0.990002 -0.0354391 0)
(0.956337 -0.0014577 0)
(0.957118 -0.0420553 0)
(0.923769 -0.000956392 0)
(1.03821 -0.00365622 0)
(0.980905 -0.00384291 0)
(1.03299 0.0103128 0)
(0.976336 0.0145621 0)
(0.97457 -0.0101127 0)
(0.954516 -0.011601 0)
(1.01498 -0.0324614 0)
(0.975231 -0.00589199 0)
(1.07472 -0.00331639 0)
(1.01724 0.00715113 0)
(1.02431 0.0189112 0)
(1.02059 0.0157916 0)
(1.00111 0.0100311 0)
(0.999805 0.0136601 0)
(1.00987 -0.0189933 0)
(0.991557 0.00684008 0)
(1.00648 -0.0332824 0)
(0.973973 -0.00330004 0)
(0.977115 -0.0339246 0)
(0.944993 -0.000747035 0)
(1.02164 -0.00399095 0)
(0.992231 -0.00385879 0)
(1.02326 0.0103926 0)
(0.987694 0.0150215 0)
(0.974944 -0.00980534 0)
(0.960545 -0.0120403 0)
(1.00026 -0.0326903 0)
(0.9845 -0.00666267 0)
(1.05454 -0.0038503 0)
(1.02733 0.00782052 0)
(1.01742 0.0190376 0)
(1.01955 0.0161403 0)
(1.00621 0.010263 0)
(1.00989 0.013479 0)
(1.01175 -0.0187537 0)
(1.00238 0.00691241 0)
(1.00333 -0.0329378 0)
(0.982641 -0.0021313 0)
(0.974734 -0.0319445 0)
(0.965298 -0.00055386 0)
(1.00793 -0.0042741 0)
(1.0003 -0.00392132 0)
(1.01461 0.0104496 0)
(0.994743 0.0154 0)
(0.979162 -0.00944923 0)
(0.966773 -0.0123394 0)
(0.990346 -0.0329089 0)
(0.989256 -0.00738693 0)
(1.03991 -0.00441098 0)
(1.02994 0.008268 0)
(1.01682 0.0192595 0)
(1.02163 0.0163059 0)
(1.01217 0.010355 0)
(1.01839 0.0131541 0)
(1.01829 -0.0179558 0)
(1.00729 0.00617714 0)
(1.00916 -0.0308612 0)
(0.987364 -0.00266432 0)
(0.98055 -0.0288988 0)
(0.981373 -0.000395759 0)
(0.999817 -0.00448517 0)
(1.00374 -0.00400468 0)
(1.00747 0.0105199 0)
(0.998853 0.0156745 0)
(0.985462 -0.00909066 0)
(0.97378 -0.0124901 0)
(0.984204 -0.0330835 0)
(0.989907 -0.00811146 0)
(1.029 -0.00496952 0)
(1.0278 0.00848446 0)
(1.01824 0.0194108 0)
(1.02555 0.0163764 0)
(1.01849 0.0103271 0)
(1.02496 0.012961 0)
(1.02277 -0.0173438 0)
(1.0115 0.00585281 0)
(1.01071 -0.0292875 0)
(0.990793 -0.0031483 0)
(0.982975 -0.0258909 0)
(0.992048 -0.00028714 0)
(0.996854 -0.00461179 0)
(1.00339 -0.00407282 0)
(1.00154 0.010579 0)
(1.00199 0.0158255 0)
(0.992374 -0.00875909 0)
(0.981743 -0.012497 0)
(0.980463 -0.0331606 0)
(0.988444 -0.0087992 0)
(1.02009 -0.00550863 0)
(1.02362 0.00850412 0)
(1.01969 0.0194275 0)
(1.02937 0.016353 0)
(1.02391 0.0102871 0)
(1.02964 0.012758 0)
(1.02565 -0.0164949 0)
(1.0141 0.00545896 0)
(1.01207 -0.0274367 0)
(0.993291 -0.00358912 0)
(0.985489 -0.0227569 0)
(0.998029 -0.000226446 0)
(0.996818 -0.0046629 0)
(1.00097 -0.00410143 0)
(0.996727 0.0105874 0)
(1.00526 0.0158492 0)
(0.998939 -0.00847069 0)
(0.990091 -0.0123686 0)
(0.978326 -0.0330999 0)
(0.98655 -0.00943279 0)
(1.0123 -0.0060241 0)
(1.01875 0.00833653 0)
(1.02054 0.0192903 0)
(1.03216 0.0162582 0)
(1.02754 0.0102273 0)
(1.03245 0.0126157 0)
(1.02685 -0.0155598 0)
(1.01547 0.00505844 0)
(1.01246 -0.0255157 0)
(0.995082 -0.00409186 0)
(0.987349 -0.0197275 0)
(1.00088 -0.000200763 0)
(0.997583 -0.00465552 0)
(0.998019 -0.00408596 0)
(0.993339 0.0105214 0)
(1.0087 0.0157502 0)
(1.00454 -0.00823088 0)
(0.997827 -0.0121242 0)
(0.97766 -0.0328819 0)
(0.985031 -0.0100079 0)
(1.00526 -0.00650513 0)
(1.01347 0.0079935 0)
(1.02031 0.0190034 0)
(1.03329 0.0160959 0)
(1.02901 0.0101766 0)
(1.03323 0.0125062 0)
(1.02664 -0.014528 0)
(1.0156 0.00462385 0)
(1.01219 -0.0234893 0)
(0.996238 -0.00463606 0)
(0.988701 -0.0168333 0)
(1.00207 -0.000194735 0)
(0.998073 -0.00460419 0)
(0.99545 -0.00403655 0)
(0.991543 0.0103715 0)
(1.01187 0.0155509 0)
(1.00885 -0.00803325 0)
(1.00402 -0.0117948 0)
(0.97855 -0.0325116 0)
(0.984003 -0.0105053 0)
(0.998863 -0.00692199 0)
(1.00759 0.00750742 0)
(1.01836 0.0185823 0)
(1.03226 0.0158818 0)
(1.02822 0.0101493 0)
(1.03206 0.0123967 0)
(1.02528 -0.0134125 0)
(1.01472 0.00415043 0)
(1.0113 -0.0214239 0)
(0.996862 -0.0052095 0)
(0.989544 -0.0141399 0)
(1.00253 -0.000195972 0)
(0.998152 -0.00452115 0)
(0.993598 -0.00397394 0)
(0.991075 0.0101458 0)
(1.01423 0.0152829 0)
(1.01183 -0.00786472 0)
(1.00817 -0.0114195 0)
(0.980831 -0.0320153 0)
(0.983292 -0.0108996 0)
(0.993324 -0.00723842 0)
(1.00126 0.00691907 0)
(1.01449 0.0180568 0)
(1.0291 0.0156227 0)
(1.02554 0.0101338 0)
(1.02937 0.0122542 0)
(1.02311 -0.0122433 0)
(1.01318 0.00365443 0)
(1.00998 -0.0193704 0)
(0.997073 -0.00577301 0)
(0.989992 -0.0116837 0)
(1.00272 -0.000198147 0)
(0.998081 -0.00441675 0)
(0.992476 -0.00391382 0)
(0.991356 0.00986758 0)
(1.0155 0.0149716 0)
(1.01367 -0.007713 0)
(1.01039 -0.0110384 0)
(0.98397 -0.0314248 0)
(0.982746 -0.0111786 0)
(0.989008 -0.00743649 0)
(0.995154 0.00627872 0)
(1.00929 0.0174656 0)
(1.02452 0.015308 0)
(1.02169 0.0101076 0)
(1.02575 0.012058 0)
(1.02052 -0.0110594 0)
(1.01131 0.00311341 0)
(1.00842 -0.0173637 0)
(0.996986 -0.00627821 0)
(0.990169 -0.00949526 0)
(1.00278 -0.000199706 0)
(0.998093 -0.00429985 0)
(0.991953 -0.00385718 0)
(0.991817 0.00955683 0)
(1.0157 0.0146329 0)
(1.01464 -0.00756861 0)
(1.01116 -0.0106781 0)
(0.987294 -0.0307675 0)
(0.982336 -0.0113481 0)
(0.986098 -0.0075184 0)
(0.990171 0.00563638 0)
(1.00381 0.0168438 0)
(1.0195 0.014927 0)
(1.01749 0.0100675 0)
(1.02182 0.0117933 0)
(1.01785 -0.00988303 0)
(1.00937 0.00253889 0)
(1.00683 -0.0154428 0)
(0.996732 -0.00668139 0)
(0.990184 -0.00759517 0)
(1.00278 -0.000201867 0)
(0.99826 -0.00417562 0)
(0.991858 -0.00380014 0)
(0.992123 0.0092294 0)
(1.01508 0.0142767 0)
(1.01499 -0.00742628 0)
(1.0111 -0.0103504 0)
(0.990278 -0.0300607 0)
(0.982111 -0.0114288 0)
(0.984409 -0.00750116 0)
(0.986776 0.00502217 0)
(0.998942 0.0162233 0)
(1.01482 0.0144859 0)
(1.01355 0.0100044 0)
(1.01799 0.0114723 0)
(1.01529 -0.00874724 0)
(1.00757 0.00200341 0)
(1.00532 -0.0136368 0)
(0.996444 -0.00696065 0)
(0.990135 -0.00597955 0)
(1.00275 -0.000205956 0)
(0.998537 -0.00404798 0)
(0.992035 -0.00373792 0)
(0.992188 0.0088993 0)
(1.01398 0.0139084 0)
(1.01494 -0.00728631 0)
(1.01068 -0.0100563 0)
(0.992676 -0.0293128 0)
(0.982099 -0.0114449 0)
(0.983504 -0.00740978 0)
(0.984796 0.00444553 0)
(0.995034 0.0156348 0)
(1.01077 0.0139957 0)
(1.01012 0.00992053 0)
(1.0145 0.0110958 0)
(1.01296 -0.00766616 0)
(1.00599 0.00146978 0)
(1.00399 -0.0119695 0)
(0.996226 -0.00711091 0)
(0.990108 -0.00464684 0)
(1.00271 -0.000212552 0)
(0.998838 -0.00392063 0)
(0.992358 -0.00366485 0)
(0.992082 0.00857532 0)
(1.01268 0.0135287 0)
(1.01462 -0.00715183 0)
(1.01015 -0.00978987 0)
(0.994475 -0.0285269 0)
(0.982275 -0.0114122 0)
(0.982959 -0.00726046 0)
(0.983686 0.00390685 0)
(0.991974 0.0150915 0)
(1.00731 0.0134752 0)
(1.0072 0.00981751 0)
(1.01145 0.0106697 0)
(1.01093 -0.00665895 0)
(1.00471 0.00096224 0)
(1.00288 -0.0104411 0)
(0.996131 -0.00714141 0)
(0.990161 -0.00358191 0)
(1.00265 -0.000221409 0)
(0.9991 -0.00379596 0)
(0.992735 -0.00357787 0)
(0.991928 0.00825999 0)
(1.01141 0.0131389 0)
(1.01415 -0.00702593 0)
(1.00961 -0.00954801 0)
(0.995771 -0.027707 0)
(0.982579 -0.0113434 0)
(0.982546 -0.00705781 0)
(0.98296 0.00339781 0)
(0.989543 0.0145989 0)
(1.00435 0.0129321 0)
(1.00477 0.0096773 0)
(1.00889 0.0102254 0)
(1.00924 -0.00575487 0)
(1.00371 0.000541419 0)
(1.00199 -0.00904813 0)
(0.99617 -0.00705883 0)
(0.990325 -0.00274328 0)
(1.00257 -0.000231684 0)
(0.999296 -0.00367547 0)
(0.993101 -0.00347616 0)
(0.991832 0.00795066 0)
(1.0103 0.0127439 0)
(1.01363 -0.00690953 0)
(1.00907 -0.00932771 0)
(0.996671 -0.0268607 0)
(0.982959 -0.011249 0)
(0.982228 -0.00680518 0)
(0.982411 0.00291289 0)
(0.987631 0.0141469 0)
(1.00191 0.01237 0)
(1.00284 0.00949055 0)
(1.00682 0.00977642 0)
(1.0079 -0.00495479 0)
(1.00298 0.000200387 0)
(1.0013 -0.00778336 0)
(0.996325 -0.00687636 0)
(0.9906 -0.00208455 0)
(1.00248 -0.000242407 0)
(0.999432 -0.00355964 0)
(0.993416 -0.00336084 0)
(0.991852 0.00764513 0)
(1.00939 0.0123448 0)
(1.01313 -0.00680061 0)
(1.00854 -0.0091246 0)
(0.997266 -0.0259885 0)
(0.983384 -0.0111412 0)
(0.982057 -0.00649958 0)
(0.982052 0.00244268 0)
(0.986247 0.0137206 0)
(1.00003 0.011808 0)
(1.00141 0.00924706 0)
(1.00523 0.00932841 0)
(1.00688 -0.00425015 0)
(1.00249 -7.65099e-05 0)
(1.00078 -0.00662616 0)
(0.996563 -0.00663338 0)
(0.990969 -0.00158134 0)
(1.00236 -0.000252697 0)
(0.99953 -0.0034486 0)
(0.993664 -0.00323393 0)
(0.991997 0.00734164 0)
(1.00868 0.0119407 0)
(1.01266 -0.00669505 0)
(1.00801 -0.00893477 0)
(0.997635 -0.0250893 0)
(0.983842 -0.0110284 0)
(0.982074 -0.00614918 0)
(0.98195 0.00198926 0)
(0.985403 0.0132993 0)
(0.998717 0.0112542 0)
(1.00047 0.00895081 0)
(1.00403 0.0089099 0)
(1.00612 -0.00363076 0)
(1.00217 -0.000308112 0)
(1.00037 -0.00555246 0)
(0.996844 -0.00634873 0)
(0.991415 -0.00122028 0)
(1.00222 -0.000261329 0)
(0.99961 -0.00334323 0)
(0.993848 -0.00309603 0)
(0.992244 0.00703461 0)
(1.00812 0.0115336 0)
(1.01224 -0.00658833 0)
(1.00749 -0.00875464 0)
(0.997852 -0.0241672 0)
(0.984327 -0.0109162 0)
(0.982276 -0.00577105 0)
(0.982115 0.0015522 0)
(0.985044 0.0128761 0)
(0.997877 0.0107097 0)
(0.999914 0.00858501 0)
(1.00312 0.00854124 0)
(1.00554 -0.00307557 0)
(1.00197 -0.000500311 0)
(1.00003 -0.00454468 0)
(0.997129 -0.00601603 0)
(0.991919 -0.000990911 0)
(1.00205 -0.000267622 0)
(0.999687 -0.00324366 0)
(0.993984 -0.00294892 0)
(0.992559 0.00672138 0)
(1.00765 0.0111242 0)
(1.01185 -0.0064773 0)
(1.007 -0.00858278 0)
(0.997979 -0.0232208 0)
(0.984833 -0.0108125 0)
(0.982618 -0.00536767 0)
(0.982499 0.00112307 0)
(0.985049 0.012436 0)
(0.997365 0.0101982 0)
(0.999629 0.00815197 0)
(1.00239 0.00821644 0)
(1.00507 -0.00255725 0)
(1.00186 -0.0006612 0)
(0.999751 -0.00360531 0)
(0.997389 -0.00561892 0)
(0.992468 -0.000874731 0)
(1.00187 -0.000271445 0)
(0.999763 -0.00314941 0)
(0.994094 -0.00279441 0)
(0.99291 0.00640185 0)
(1.00724 0.0107119 0)
(1.01148 -0.00635817 0)
(1.00652 -0.00841924 0)
(0.998057 -0.0222499 0)
(0.985355 -0.0107197 0)
(0.983048 -0.00494852 0)
(0.983022 0.000711857 0)
(0.985287 0.0119545 0)
(0.997044 0.0097382 0)
(0.9995 0.00767537 0)
(1.00178 0.00791322 0)
(1.00464 -0.00205818 0)
(1.00179 -0.000814046 0)
(0.999502 -0.00274006 0)
(0.997603 -0.00513954 0)
(0.993049 -0.000854413 0)
(1.00168 -0.000272494 0)
(0.999835 -0.00306046 0)
(0.994196 -0.00263255 0)
(0.99327 0.00607526 0)
(1.00685 0.0102965 0)
(1.01111 -0.00622933 0)
(1.00606 -0.00826398 0)
(0.998109 -0.02126 0)
(0.985894 -0.0106322 0)
(0.983519 -0.00453501 0)
(0.983621 0.000326183 0)
(0.985651 0.011427 0)
(0.996815 0.00933307 0)
(0.999444 0.00716521 0)
(1.00124 0.00762138 0)
(1.00422 -0.00156087 0)
(1.00177 -0.000963401 0)
(0.999288 -0.00196371 0)
(0.997762 -0.00457617 0)
(0.993649 -0.000910557 0)
(1.00151 -0.000270271 0)
(0.999894 -0.00297745 0)
(0.994307 -0.00246466 0)
(0.993621 0.00574391 0)
(1.00648 0.00987723 0)
(1.01072 -0.00608697 0)
(1.00562 -0.00811916 0)
(0.998143 -0.020252 0)
(0.98645 -0.0105503 0)
(0.984002 -0.00412585 0)
(0.984253 -1.87826e-05 0)
(0.986074 0.0108471 0)
(0.996622 0.00898045 0)
(0.999413 0.00664024 0)
(1.00075 0.00733906 0)
(1.00379 -0.00105072 0)
(1.00176 -0.00109499 0)
(0.999112 -0.0012966 0)
(0.997863 -0.00393948 0)
(0.994251 -0.00102367 0)
(1.00136 -0.000264153 0)
(0.999935 -0.00290147 0)
(0.994435 -0.00229169 0)
(0.993956 0.00541026 0)
(1.00612 0.00945176 0)
(1.01032 -0.00592901 0)
(1.0052 -0.00798389 0)
(0.99816 -0.0192305 0)
(0.987026 -0.01047 0)
(0.984482 -0.00373062 0)
(0.984896 -0.000309844 0)
(0.986524 0.0102154 0)
(0.996442 0.00867963 0)
(0.999386 0.00611347 0)
(1.00031 0.00703272 0)
(1.00334 -0.00053503 0)
(1.00178 -0.00120703 0)
(0.99898 -0.000748441 0)
(0.997905 -0.00323881 0)
(0.994839 -0.00115102 0)
(1.00122 -0.000254679 0)
(0.999956 -0.00283074 0)
(0.994584 -0.00211489 0)
(0.994272 0.00507533 0)
(1.00578 0.00901988 0)
(1.00989 -0.0057547 0)
(1.0048 -0.00785764 0)
(0.998161 -0.0182019 0)
(0.987621 -0.0103819 0)
(0.984955 -0.00337595 0)
(0.985536 -0.000556795 0)
(0.986989 0.00953184 0)
(0.996267 0.00841875 0)
(0.999352 0.00560091 0)
(0.999923 0.00669799 0)
(1.00286 -8.43789e-06 0)
(1.0018 -0.00127576 0)
(0.998902 -0.000330091 0)
(0.997898 -0.00248743 0)
(0.995387 -0.00124496 0)
(1.00112 -0.000242028 0)
(0.99996 -0.00276364 0)
(0.994751 -0.00193867 0)
(0.994572 0.00474347 0)
(1.00544 0.00858065 0)
(1.00944 -0.00555898 0)
(1.00442 -0.00774177 0)
(0.998146 -0.0171722 0)
(0.988232 -0.010282 0)
(0.985423 -0.0030515 0)
(0.986166 -0.000745833 0)
(0.987468 0.00880286 0)
(0.996096 0.00817009 0)
(0.999307 0.0051245 0)
(0.999589 0.00633175 0)
(1.00237 0.000519335 0)
(1.00182 -0.00127828 0)
(0.998881 -5.25985e-05 0)
(0.997851 -0.00172596 0)
(0.995879 -0.00125276 0)
(1.00103 -0.000225736 0)
(0.999951 -0.0027005 0)
(0.994931 -0.00176383 0)
(0.994861 0.00441789 0)
(1.00512 0.00813011 0)
(1.00898 -0.00534506 0)
(1.00406 -0.00763188 0)
(0.99812 -0.016147 0)
(0.988853 -0.0101599 0)
(0.985892 -0.00277541 0)
(0.986778 -0.000862077 0)
(0.98796 0.00804132 0)
(0.995933 0.00793048 0)
(0.999248 0.00470252 0)
(0.999311 0.00592495 0)
(1.00188 0.00102636 0)
(1.00182 -0.00121163 0)
(0.998919 0.000101685 0)
(0.997785 -0.00100604 0)
(0.996292 -0.00113156 0)
(1.00096 -0.000206102 0)
(0.999936 -0.00264143 0)
(0.995118 -0.00159127 0)
(0.995143 0.00410046 0)
(1.00481 0.00767081 0)
(1.00852 -0.00511683 0)
(1.00372 -0.00752564 0)
(0.998088 -0.0151369 0)
(0.989477 -0.0100041 0)
(0.986367 -0.00255052 0)
(0.987369 -0.000913825 0)
(0.988468 0.00726523 0)
(0.99578 0.00769413 0)
(0.99917 0.00435721 0)
(0.999089 0.00549078 0)
(1.00139 0.00149252 0)
(1.00179 -0.00106709 0)
(0.999013 0.000165252 0)
(0.997721 -0.000371708 0)
(0.996615 -0.000887163 0)
(1.00089 -0.000183097 0)
(0.99992 -0.00258422 0)
(0.995309 -0.00142651 0)
(0.995419 0.00379411 0)
(1.00451 0.0072059 0)
(1.00804 -0.0048721 0)
(1.0034 -0.00742424 0)
(0.998053 -0.0141516 0)
(0.990098 -0.00981772 0)
(0.986853 -0.00238186 0)
(0.987934 -0.000905346 0)
(0.988989 0.00649259 0)
(0.995646 0.00743376 0)
(0.999071 0.00408286 0)
(0.998918 0.00504854 0)
(1.00093 0.00189353 0)
(1.00172 -0.000844136 0)
(0.999151 0.000167436 0)
(0.997681 0.000120807 0)
(0.996846 -0.000529759 0)
(1.00083 -0.000157644 0)
(0.999905 -0.00252631 0)
(0.995501 -0.00126981 0)
(0.995691 0.00349894 0)
(1.00422 0.00673234 0)
(1.00756 -0.00461495 0)
(1.00309 -0.00731549 0)
(0.998019 -0.0131966 0)
(0.990709 -0.00959887 0)
(0.987352 -0.0022771 0)
(0.988472 -0.000849422 0)
(0.98952 0.00573686 0)
(0.995537 0.00712913 0)
(0.998954 0.00386322 0)
(0.998792 0.00460857 0)
(1.00049 0.0022165 0)
(1.00161 -0.000559147 0)
(0.999313 0.00014322 0)
(0.997685 0.000487071 0)
(0.997003 -0.000102298 0)
(1.00077 -0.000129347 0)
(0.999894 -0.00246922 0)
(0.995692 -0.0011212 0)
(0.995957 0.0032173 0)
(1.00394 0.00625127 0)
(1.00709 -0.00435055 0)
(1.00279 -0.00719598 0)
(0.997987 -0.0122764 0)
(0.991307 -0.00933111 0)
(0.987866 -0.00221944 0)
(0.988983 -0.000759052 0)
(0.990054 0.0050233 0)
(0.995458 0.00678671 0)
(0.998819 0.00370864 0)
(0.998705 0.00418424 0)
(1.0001 0.00246206 0)
(1.00146 -0.000229475 0)
(0.999487 0.000130123 0)
(0.997742 0.000752021 0)
(0.997099 0.000319905 0)
(1.00071 -9.89211e-05 0)
(0.999886 -0.00241024 0)
(0.995881 -0.000979345 0)
(0.996215 0.00294643 0)
(1.00367 0.00576767 0)
(1.00661 -0.00408137 0)
(1.00251 -0.00706793 0)
(0.997962 -0.0113977 0)
(0.991886 -0.00901887 0)
(0.988393 -0.00220668 0)
(0.98947 -0.000649692 0)
(0.990585 0.00437348 0)
(0.995413 0.00640742 0)
(0.998669 0.00360171 0)
(0.998647 0.00379312 0)
(0.999755 0.00262985 0)
(1.00127 0.000124838 0)
(0.999655 0.000151649 0)
(0.99785 0.000918609 0)
(0.997162 0.000707568 0)
(1.00066 -6.66377e-05 0)
(0.999884 -0.00235315 0)
(0.996068 -0.000842818 0)
(0.996465 0.00268832 0)
(1.00341 0.0052832 0)
(1.00614 -0.00380975 0)
(1.00225 -0.00692157 0)
(0.997944 -0.0105691 0)
(0.992445 -0.00866678 0)
(0.988934 -0.00222545 0)
(0.989936 -0.000533887 0)
(0.991108 0.00378644 0)
(0.995406 0.00599692 0)
(0.998511 0.00352491 0)
(0.998609 0.00344261 0)
(0.999467 0.00271134 0)
(1.00106 0.000472379 0)
(0.999803 0.000215648 0)
(0.998005 0.00100129 0)
(0.997215 0.00103884 0)
(1.0006 -3.08795e-05 0)
(0.999885 -0.00229874 0)
(0.996254 -0.000714356 0)
(0.996704 0.00244575 0)
(1.00317 0.00479589 0)
(1.00567 -0.00354076 0)
(1.00199 -0.00675645 0)
(0.997935 -0.00980256 0)
(0.992981 -0.00827485 0)
(0.989485 -0.00226268 0)
(0.990385 -0.000420848 0)
(0.991617 0.00326524 0)
(0.995437 0.00556791 0)
(0.998348 0.00346509 0)
(0.998581 0.00314975 0)
(0.999233 0.00272677 0)
(1.00084 0.000794504 0)
(0.99992 0.000321536 0)
(0.998194 0.00103189 0)
(0.99729 0.00127593 0)
(1.00055 4.66434e-06 0)
(0.999892 -0.00224291 0)
(0.996439 -0.000589121 0)
(0.996931 0.0022153 0)
(1.00293 0.00430818 0)
(1.0052 -0.00327135 0)
(1.00175 -0.0065705 0)
(0.997938 -0.00909406 0)
(0.993495 -0.00785374 0)
(0.990043 -0.00230782 0)
(0.99082 -0.000323968 0)
(0.99211 0.00280908 0)
(0.995506 0.00512392 0)
(0.99819 0.00341114 0)
(0.998557 0.00290737 0)
(0.99905 0.00269037 0)
(1.00062 0.00107912 0)
(1 0.000466736 0)
(0.998401 0.00105824 0)
(0.997396 0.00142168 0)
(1.00049 4.09533e-05 0)
(0.999903 -0.00219033 0)
(0.996623 -0.000469073 0)
(0.997143 0.00200592 0)
(1.00272 0.00381562 0)
(1.00475 -0.00300503 0)
(1.00153 -0.0063546 0)
(0.997952 -0.00844045 0)
(0.993986 -0.0074088 0)
(0.990606 -0.00234949 0)
(0.991246 -0.000248678 0)
(0.992583 0.00240992 0)
(0.995613 0.00466995 0)
(0.998044 0.00335543 0)
(0.998533 0.00271001 0)
(0.998914 0.00261916 0)
(1.00042 0.00131609 0)
(1.00006 0.000623977 0)
(0.998607 0.00109785 0)
(0.997533 0.00149689 0)
(1.00044 7.95533e-05 0)
(0.999919 -0.00214228 0)
(0.996807 -0.000360527 0)
(0.99734 0.00182203 0)
(1.00252 0.00332603 0)
(1.00432 -0.00275864 0)
(1.00131 -0.00610282 0)
(0.997978 -0.0078507 0)
(0.994455 -0.00695659 0)
(0.99117 -0.0023711 0)
(0.991664 -0.000185873 0)
(0.993037 0.00206727 0)
(0.995758 0.00421756 0)
(0.997918 0.00328572 0)
(0.998507 0.00256452 0)
(0.998819 0.00252195 0)
(1.00024 0.00150573 0)
(1.00008 0.000778944 0)
(0.998804 0.00114862 0)
(0.997691 0.00154139 0)
(1.00039 0.000116219 0)
(0.999939 -0.00208971 0)
(0.996993 -0.000268248 0)
(0.997522 0.00166313 0)
(1.00233 0.0028518 0)
(1.0039 -0.00253334 0)
(1.00109 -0.00582028 0)
(0.998014 -0.00731317 0)
(0.994904 -0.00651344 0)
(0.991734 -0.00237366 0)
(0.992077 -0.000130289 0)
(0.993469 0.00178885 0)
(0.995935 0.00377201 0)
(0.997821 0.00319748 0)
(0.998477 0.00246195 0)
(0.998758 0.00240495 0)
(1.00008 0.00164579 0)
(1.00009 0.000933696 0)
(0.998991 0.00119952 0)
(0.997866 0.00158545 0)
(1.00034 0.000148931 0)
(0.999963 -0.00203108 0)
(0.99718 -0.000190895 0)
(0.997688 0.00154036 0)
(1.00216 0.00238735 0)
(1.00351 -0.00233539 0)
(1.00089 -0.00549447 0)
(0.99806 -0.00681935 0)
(0.995337 -0.00608384 0)
(0.992296 -0.00234969 0)
(0.992488 -8.62875e-05 0)
(0.993876 0.00155404 0)
(0.99614 0.00333534 0)
(0.99776 0.0030717 0)
(0.998446 0.00238948 0)
(0.998723 0.00228927 0)
(0.99995 0.00173419 0)
(1.0001 0.00107661 0)
(0.999169 0.00124695 0)
(0.998046 0.0016232 0)
(1.00029 0.00018026 0)
(0.99999 -0.00196771 0)
(0.997372 -0.000144229 0)
(0.997839 0.00145756 0)
(1.00199 0.00195377 0)
(1.00315 -0.00218901 0)
(1.0007 -0.00513022 0)
(0.998114 -0.00635208 0)
(0.995757 -0.00567812 0)
(0.992857 -0.0022969 0)
(0.992895 -3.95263e-05 0)
(0.994256 0.0013606 0)
(0.996364 0.00292472 0)
(0.997737 0.00290665 0)
(0.998419 0.00233287 0)
(0.998708 0.00218742 0)
(0.999857 0.00177751 0)
(1.0001 0.00120123 0)
(0.999338 0.00129112 0)
(0.998232 0.00165091 0)
(1.00025 0.000205117 0)
(1.00002 -0.00188789 0)
(0.99757 -0.000126668 0)
(0.997977 0.0014107 0)
(1.00184 0.00154243 0)
(1.00281 -0.00209176 0)
(1.00053 -0.00474689 0)
(0.998175 -0.00589955 0)
(0.996166 -0.00529839 0)
(0.993416 -0.00223489 0)
(0.993299 1.01983e-05 0)
(0.994608 0.00121427 0)
(0.996599 0.0025466 0)
(0.997756 0.00271379 0)
(0.998404 0.00227671 0)
(0.998707 0.00210493 0)
(0.999793 0.00179179 0)
(1.0001 0.0012951 0)
(0.999499 0.00132968 0)
(0.998422 0.00166415 0)
(1.0002 0.000221646 0)
(1.00005 -0.00178662 0)
(0.997772 -0.000148197 0)
(0.998094 0.00138797 0)
(1.00168 0.00117864 0)
(1.00252 -0.00203931 0)
(1.00037 -0.0043639 0)
(0.99823 -0.00542703 0)
(0.996558 -0.00493892 0)
(0.993977 -0.00217713 0)
(0.993713 4.7057e-05 0)
(0.994942 0.0011123 0)
(0.996846 0.0022018 0)
(0.99782 0.00248474 0)
(0.998409 0.00220551 0)
(0.998717 0.00202577 0)
(0.999749 0.00177924 0)
(1.0001 0.00136177 0)
(0.999649 0.00136357 0)
(0.99861 0.00167555 0)
(1.00017 0.00023186 0)
(1.00008 -0.00166814 0)
(0.997978 -0.000206524 0)
(0.998208 0.00137961 0)
(1.00153 0.000902476 0)
(1.00225 -0.00201388 0)
(1.00024 -0.0039824 0)
(0.998288 -0.00493171 0)
(0.996931 -0.00459657 0)
(0.994536 -0.00214122 0)
(0.994133 5.40425e-05 0)
(0.995253 0.00103474 0)
(0.997086 0.00190322 0)
(0.997921 0.00224579 0)
(0.99844 0.00212279 0)
(0.99874 0.00195643 0)
(0.999734 0.00175261 0)
(1.00013 0.00141123 0)
(0.999807 0.00138271 0)
(0.998812 0.00167693 0)
(1.00013 0.000232979 0)
(1.0001 -0.00153065 0)
(0.998189 -0.000284115 0)
(0.998318 0.0013636 0)
(1.00137 0.000718676 0)
(1.00202 -0.00199269 0)
(1.00014 -0.00363791 0)
(0.998347 -0.00444889 0)
(0.99728 -0.00424523 0)
(0.995088 -0.00211403 0)
(0.994562 4.17916e-05 0)
(0.995547 0.000972258 0)
(0.997318 0.00165664 0)
(0.998054 0.00200509 0)
(0.998501 0.00201307 0)
(0.998778 0.00188863 0)
(0.99974 0.00171911 0)
(1.00016 0.00143408 0)
(0.999965 0.00138434 0)
(0.999031 0.00165318 0)
(1.0001 0.000225511 0)
(1.00012 -0.00137468 0)
(0.998399 -0.000376795 0)
(0.99843 0.00131649 0)
(1.00121 0.000614124 0)
(1.00181 -0.00197737 0)
(1.00007 -0.00335566 0)
(0.998414 -0.00397709 0)
(0.997602 -0.00387185 0)
(0.995629 -0.00208019 0)
(0.995005 1.23428e-06 0)
(0.99583 0.000925781 0)
(0.997538 0.00145555 0)
(0.998211 0.00177299 0)
(0.998595 0.00188947 0)
(0.998838 0.00182031 0)
(0.999765 0.0016782 0)
(1.00021 0.00143624 0)
(1.00012 0.00138376 0)
(0.999267 0.00160245 0)
(1.00007 0.000210803 0)
(1.00013 -0.00120968 0)
(0.998606 -0.000469945 0)
(0.998547 0.00123826 0)
(1.00105 0.000563095 0)
(1.00162 -0.00193837 0)
(1.00003 -0.00310489 0)
(0.998493 -0.00353281 0)
(0.997894 -0.00347742 0)
(0.996147 -0.00202933 0)
(0.99546 -6.69474e-05 0)
(0.996113 0.00087346 0)
(0.997747 0.00129564 0)
(0.998389 0.00156487 0)
(0.998723 0.00176047 0)
(0.998917 0.00175322 0)
(0.999807 0.00163304 0)
(1.00027 0.00142859 0)
(1.00028 0.0013774 0)
(0.999516 0.00152924 0)
(1.00005 0.00019122 0)
(1.00013 -0.00104131 0)
(0.998804 -0.000552217 0)
(0.998673 0.00110573 0)
(1.00089 0.000559617 0)
(1.00143 -0.00185102 0)
(1.00002 -0.00287982 0)
(0.998589 -0.00313299 0)
(0.998159 -0.00307281 0)
(0.996635 -0.00193638 0)
(0.995923 -0.00014574 0)
(0.996401 0.000799343 0)
(0.997946 0.0011688 0)
(0.998576 0.00137723 0)
(0.998881 0.00161909 0)
(0.99902 0.00167951 0)
(0.999865 0.00158788 0)
(1.00034 0.00140279 0)
(1.00042 0.00136488 0)
(0.999768 0.00146053 0)
(1.00003 0.000168347 0)
(1.00012 -0.000881847 0)
(0.998986 -0.00060482 0)
(0.998809 0.000923137 0)
(1.00074 0.000581014 0)
(1.00125 -0.00170072 0)
(1.00003 -0.00267402 0)
(0.998704 -0.00278609 0)
(0.998403 -0.00269037 0)
(0.997085 -0.00179907 0)
(0.996381 -0.00022429 0)
(0.996699 0.00071147 0)
(0.998141 0.00106331 0)
(0.99877 0.00121691 0)
(0.999065 0.00147364 0)
(0.999149 0.00159432 0)
(0.999935 0.00154217 0)
(1.00042 0.0013618 0)
(1.00057 0.00134436 0)
(1.00001 0.00140638 0)
(1.00001 0.000145504 0)
(1.00011 -0.000741601 0)
(0.999149 -0.000628644 0)
(0.998955 0.000719467 0)
(1.00061 0.000593393 0)
(1.00107 -0.00149089 0)
(1.00005 -0.00245875 0)
(0.998836 -0.00249141 0)
(0.998635 -0.00234469 0)
(0.997499 -0.00163204 0)
(0.996828 -0.000279894 0)
(0.997007 0.000622412 0)
(0.998336 0.000961503 0)
(0.998963 0.00107562 0)
(0.999268 0.00132895 0)
(0.999305 0.00149342 0)
(1.00002 0.00149441 0)
(1.00052 0.00132245 0)
(1.00072 0.00130447 0)
(1.00023 0.00136261 0)
(0.99999 0.000127369 0)
(1.00009 -0.000624491 0)
(0.999292 -0.000621987 0)
(0.999107 0.000511502 0)
(1.00051 0.000581182 0)
(1.0009 -0.00124749 0)
(1.00007 -0.00221746 0)
(0.99898 -0.00224588 0)
(0.99886 -0.00204048 0)
(0.997878 -0.00145599 0)
(0.997254 -0.000295207 0)
(0.997318 0.000537932 0)
(0.998532 0.000866663 0)
(0.999158 0.000948006 0)
(0.999486 0.0011907 0)
(0.999487 0.00138646 0)
(1.00012 0.00143516 0)
(1.00061 0.00128808 0)
(1.00088 0.00124144 0)
(1.00045 0.00131357 0)
(0.999974 0.000113455 0)
(1.00008 -0.000528344 0)
(0.999414 -0.00056786 0)
(0.999261 0.000311947 0)
(1.00044 0.000522532 0)
(1.00075 -0.00100108 0)
(1.00008 -0.00194468 0)
(0.999128 -0.00202347 0)
(0.999082 -0.00179262 0)
(0.998232 -0.00128874 0)
(0.997658 -0.000279724 0)
(0.997624 0.000467443 0)
(0.998725 0.000785807 0)
(0.999348 0.000839458 0)
(0.999713 0.00105434 0)
(0.999689 0.00127583 0)
(1.00025 0.00136837 0)
(1.0007 0.00125848 0)
(1.00103 0.00117995 0)
(1.00065 0.00125226 0)
(0.99996 0.000106397 0)
(1.00006 -0.000451196 0)
(0.999516 -0.000485949 0)
(0.999405 0.00014546 0)
(1.00041 0.000427249 0)
(1.00061 -0.000778652 0)
(1.00008 -0.00164579 0)
(0.999266 -0.00179854 0)
(0.9993 -0.0015946 0)
(0.998567 -0.00113786 0)
(0.998041 -0.000251277 0)
(0.997923 0.000421534 0)
(0.998916 0.000716034 0)
(0.999531 0.000753226 0)
(0.999944 0.000924849 0)
(0.999913 0.00115182 0)
(1.00039 0.00128687 0)
(1.0008 0.00122052 0)
(1.00117 0.00112955 0)
(1.00085 0.00117865 0)
(0.999948 0.000107013 0)
(1.00005 -0.000390458 0)
(0.999602 -0.000394031 0)
(0.999538 2.71952e-05 0)
(1.00041 0.000307848 0)
(1.00051 -0.000594884 0)
(1.00008 -0.0013426 0)
(0.999389 -0.00156832 0)
(0.999509 -0.00141874 0)
(0.99889 -0.00102795 0)
(0.998409 -0.000216543 0)
(0.998214 0.000396732 0)
(0.999101 0.000668461 0)
(0.999703 0.000682098 0)
(1.00017 0.00081409 0)
(1.00015 0.00102165 0)
(1.00057 0.00118579 0)
(1.00091 0.00117148 0)
(1.0013 0.00108678 0)
(1.00105 0.00110147 0)
(0.999937 0.000113947 0)
(1.00005 -0.000342875 0)
(0.999676 -0.000296455 0)
(0.999651 -3.92539e-05 0)
(1.00043 0.00017748 0)
(1.00045 -0.00046544 0)
(1.00008 -0.00105357 0)
(0.999493 -0.0013205 0)
(0.999698 -0.00124602 0)
(0.999197 -0.000948314 0)
(0.998768 -0.000198594 0)
(0.998498 0.000379348 0)
(0.999278 0.000639569 0)
(0.999862 0.000626323 0)
(1.00038 0.000714422 0)
(1.00039 0.00089567 0)
(1.00076 0.00107087 0)
(1.00103 0.00110488 0)
(1.00143 0.0010392 0)
(1.00123 0.00102377 0)
(0.999927 0.000126971 0)
(1.00005 -0.000303536 0)
(0.999743 -0.000205894 0)
(0.999746 -4.6592e-05 0)
(1.00046 6.40821e-05 0)
(1.00043 -0.000398994 0)
(1.00009 -0.00079816 0)
(0.99958 -0.00106487 0)
(0.999861 -0.00106984 0)
(0.999485 -0.000866676 0)
(0.999122 -0.000205623 0)
(0.998784 0.000361847 0)
(0.99945 0.000621674 0)
(1 0.000600225 0)
(1.00057 0.000634658 0)
(1.00062 0.000781797 0)
(1.00097 0.000946062 0)
(1.00118 0.00101356 0)
(1.00154 0.000983749 0)
(1.00139 0.00095108 0)
(0.999919 0.000141583 0)
(1.00005 -0.000259461 0)
(0.99981 -0.000131178 0)
(0.999822 -1.60498e-05 0)
(1.0005 -1.65732e-05 0)
(1.00044 -0.000376568 0)
(1.00012 -0.000587806 0)
(0.999656 -0.000818369 0)
(0.999999 -0.000881813 0)
(0.999743 -0.000783118 0)
(0.999465 -0.000228714 0)
(0.999077 0.000324406 0)
(0.999626 0.000602693 0)
(1.00013 0.000589559 0)
(1.00074 0.000583084 0)
(1.00084 0.000679081 0)
(1.00118 0.000824889 0)
(1.00134 0.00090335 0)
(1.00167 0.000913192 0)
(1.00154 0.000883483 0)
(0.999914 0.0001561 0)
(1.00006 -0.000208143 0)
(0.999877 -7.40461e-05 0)
(0.999887 3.13377e-05 0)
(1.00053 -4.67512e-05 0)
(1.00048 -0.000374975 0)
(1.00018 -0.000433427 0)
(0.99973 -0.000590716 0)
(1.00011 -0.000679672 0)
(0.999967 -0.00068682 0)
(0.999792 -0.000246981 0)
(0.999378 0.000267598 0)
(0.999812 0.000576975 0)
(1.00025 0.000579136 0)
(1.00088 0.000551964 0)
(1.00104 0.000590367 0)
(1.00139 0.000711172 0)
(1.00152 0.000787914 0)
(1.00181 0.000819526 0)
(1.00168 0.000810532 0)
(0.99991 0.000169799 0)
(1.00007 -0.000152985 0)
(0.999947 -2.69859e-05 0)
(0.999945 8.62635e-05 0)
(1.00055 -2.03974e-05 0)
(1.00054 -0.00037144 0)
(1.00028 -0.00033479 0)
(0.999815 -0.000395348 0)
(1.0002 -0.000480806 0)
(1.00015 -0.00056529 0)
(1.00009 -0.000255102 0)
(0.999684 0.000199023 0)
(1.00001 0.000528634 0)
(1.00037 0.000564376 0)
(1.001 0.000530089 0)
(1.00121 0.00052873 0)
(1.00158 0.000605618 0)
(1.0017 0.000676485 0)
(1.00196 0.000710752 0)
(1.00183 0.000718573 0)
(0.999907 0.000180025 0)
(1.00008 -9.16844e-05 0)
(1.00002 1.22664e-05 0)
(1 0.000136113 0)
(1.00056 4.22041e-05 0)
(1.00059 -0.00034085 0)
(1.00039 -0.000275303 0)
(0.999918 -0.000238914 0)
(1.00028 -0.000299442 0)
(1.0003 -0.000425536 0)
(1.00036 -0.000240796 0)
(0.999985 0.000130533 0)
(1.00023 0.000457772 0)
(1.0005 0.000537168 0)
(1.00111 0.000509152 0)
(1.00135 0.000484011 0)
(1.00176 0.000517124 0)