/*--------------------------------*- C++ -*----------------------------------*\
| =========                 |                                                 |
| \\      /  F ield         | OpenFOAM: The Open Source CFD Toolbox           |
|  \\    /   O peration     | Version:  v1906                                 |
|   \\  /    A nd           | Web:      www.OpenFOAM.com                      |
|    \\/     M anipulation  |                                                 |
\*---------------------------------------------------------------------------*/
FoamFile
{
    version     2.0;
    format      ascii;
    class       volScalarField;
    location    "7.8";
    object      p;
}
// * * * * * * * * * * * * * * * * * * * * * * * * * * * * * * * * * * * * * //

dimensions      [0 2 -2 0 0 0 0];


internalField   nonuniform List<scalar> 
9600
(
-2.35254e-10
0.000887437
0.00475684
0.000567362
-0.00281463
0.0032182
0.00455777
0.00517074
0.00904277
0.00874374
0.00850517
0.01092
0.0107226
0.0121016
0.0121989
0.0132908
0.0139056
0.0166826
0.0187073
0.0222066
2.41024e-06
0.000882134
0.00475442
0.000590061
-0.00280079
0.00319027
0.00454778
0.00517116
0.00904501
0.00875632
0.00851211
0.0109089
0.0107257
0.0120994
0.0122082
0.0132653
0.0139236
0.0166292
0.0187198
0.0218349
5.5781e-06
0.000884945
0.00475562
0.000608689
-0.00278201
0.00314701
0.00453576
0.00519836
0.00905319
0.0087757
0.00852432
0.010885
0.0107366
0.0120884
0.0122207
0.0132296
0.0139404
0.0165655
0.018709
0.0214018
1.24125e-05
0.000906865
0.00474828
0.000629131
-0.00274237
0.00311701
0.00452449
0.00525235
0.00906045
0.00880039
0.008546
0.0108537
0.010755
0.0120699
0.0122354
0.0131874
0.0139547
0.0164965
0.018667
0.02099
2.61814e-05
0.00094501
0.00472393
0.000652209
-0.00267127
0.00310491
0.00450954
0.00532513
0.00906819
0.00882912
0.00857586
0.0108204
0.0107795
0.0120483
0.0122524
0.0131428
0.0139684
0.0164208
0.0185994
0.0206049
4.8171e-05
0.000993323
0.00467807
0.000681204
-0.00256692
0.00310684
0.00448976
0.00541173
0.00907926
0.0088599
0.00861214
0.0107886
0.0108085
0.0120267
0.0122716
0.0130967
0.0139804
0.0163381
0.0185106
0.0202386
7.786e-05
0.00104701
0.00461248
0.000718558
-0.00243592
0.00312143
0.00446779
0.00550791
0.00909623
0.00889098
0.008653
0.010759
0.0108405
0.0120059
0.0122921
0.0130504
0.013989
0.0162512
0.0184015
0.0198851
0.000113446
0.00110341
0.00453402
0.000765412
-0.00228774
0.00314859
0.00444585
0.00560954
0.00911943
0.00892068
0.00869678
0.0107312
0.0108746
0.0119861
0.0123132
0.0130048
0.0139933
0.0161627
0.0182714
0.0195422
0.000152736
0.00116204
0.00445124
0.000821633
-0.00213034
0.00318577
0.00442421
0.00571263
0.00914687
0.00894737
0.00874178
0.0107045
0.0109102
0.0119671
0.012334
0.012961
0.0139922
0.0160738
0.0181211
0.0192097
0.000194045
0.00122368
0.00437081
0.000886509
-0.0019683
0.00322817
0.00440217
0.00581342
0.00917534
0.00896951
0.00878655
0.0106788
0.0109465
0.0119494
0.0123543
0.0129203
0.0139855
0.0159859
0.0179536
0.0188874
0.000236625
0.00128914
0.00429605
0.000958843
-0.00180236
0.00327105
0.00437899
0.00590888
0.00920171
0.0089859
0.00882994
0.0106541
0.0109832
0.0119337
0.0123736
0.0128841
0.0139734
0.0159004
0.0177729
0.0185746
0.000280537
0.0013584
0.00422732
0.00103682
-0.00163064
0.00331178
0.00435449
0.00599702
0.00922387
0.00899586
0.00887107
0.0106307
0.0110194
0.0119203
0.0123915
0.0128533
0.0139559
0.0158184
0.017584
0.0182714
0.000326212
0.0014307
0.00416348
0.00111839
-0.00145045
0.00334989
0.00432933
0.00607699
0.00924116
0.00899933
0.00890941
0.0106091
0.0110546
0.0119095
0.0124074
0.012828
0.0139352
0.01574
0.0173919
0.0179783
0.000374093
0.00150501
0.00410317
0.00120198
-0.00125994
0.00338625
0.00430468
0.00614915
0.00925427
0.00899697
0.00894475
0.0105898
0.011088
0.0119014
0.0124208
0.0128079
0.0139109
0.0156641
0.0172004
0.0176954
0.000424465
0.00158054
0.00404551
0.00128686
-0.0010591
0.0034219
0.00428202
0.00621451
0.00926486
0.00898989
0.00897695
0.0105736
0.0111193
0.0118957
0.0124308
0.0127913
0.0138832
0.0155884
0.0170108
0.017422
0.000477446
0.0016568
0.0039902
0.00137302
-0.000849406
0.00345739
0.00426264
0.0062741
0.00927487
0.0089795
0.00900579
0.0105611
0.0111482
0.0118922
0.0124371
0.0127763
0.0138524
0.0155108
0.0168226
0.0171575
0.000533076
0.00173359
0.00393737
0.00146069
-0.00063295
0.00349298
0.00424743
0.0063287
0.00928587
0.00896725
0.00903097
0.0105529
0.0111749
0.01189
0.0124399
0.0127612
0.0138181
0.0154294
0.0166353
0.0169014
0.000591382
0.00181078
0.00388735
0.0015501
-0.000411641
0.00352884
0.00423695
0.00637891
0.0092989
0.00895445
0.00905213
0.0105492
0.0111993
0.0118887
0.0124395
0.0127443
0.01378
0.015344
0.0164491
0.0166524
0.000652406
0.00188827
0.00384056
0.0016414
-0.000186883
0.00356521
0.00423155
0.00642518
0.00931442
0.00894231
0.00906885
0.0105502
0.0112218
0.0118873
0.0124363
0.0127245
0.0137372
0.0152557
0.0162637
0.0164078
0.000716219
0.00196599
0.00379746
0.0017347
4.03615e-05
0.00360239
0.00423149
0.00646786
0.00933255
0.00893195
0.00908072
0.0105555
0.0112431
0.0118847
0.0124309
0.0127019
0.0136888
0.0151651
0.0160799
0.0161659
0.000782928
0.00204388
0.00375854
0.00183003
0.000269339
0.00364074
0.00423694
0.00650729
0.00935316
0.00892442
0.00908753
0.0105646
0.0112641
0.0118801
0.0124233
0.0126762
0.013634
0.0150719
0.0158984
0.0159262
0.000852672
0.00212182
0.00372429
0.00192749
0.00049934
0.00368056
0.00424799
0.00654382
0.00937583
0.00892062
0.00908928
0.0105766
0.0112854
0.011873
0.0124131
0.0126477
0.0135724
0.0149758
0.0157196
0.0156888
0.000925625
0.00219964
0.00369515
0.00202734
0.000729752
0.00372203
0.00426473
0.00657787
0.00940002
0.00892115
0.00908614
0.010591
0.011308
0.0118623
0.0123999
0.0126166
0.0135034
0.0148765
0.0155445
0.0154521
0.00100199
0.00227724
0.00367143
0.00212973
0.000960088
0.00376543
0.00428711
0.00660985
0.00942539
0.00892637
0.00907831
0.0106071
0.0113327
0.0118478
0.0123826
0.0125836
0.013427
0.0147738
0.0153754
0.015214
0.00108197
0.0023545
0.00365335
0.00223472
0.00118986
0.00381106
0.00431498
0.00664015
0.00945162
0.00893667
0.00906604
0.0106237
0.0113604
0.0118293
0.0123601
0.0125491
0.013343
0.0146667
0.0152162
0.0149753
0.0011658
0.00243127
0.00364114
0.00234255
0.00141856
0.00385913
0.00434835
0.00666925
0.00947825
0.00895256
0.00904972
0.0106395
0.0113918
0.0118074
0.0123314
0.0125133
0.0132511
0.0145521
0.0150702
0.0147427
0.00125372
0.00250742
0.00363489
0.00245353
0.00164584
0.00390994
0.00438716
0.00669916
0.00950485
0.0089745
0.00902987
0.0106533
0.0114274
0.0117826
0.0122949
0.0124774
0.0131533
0.0144257
0.0149359
0.0145271
0.00134594
0.00258295
0.00363455
0.00256783
0.00187145
0.00396387
0.00443137
0.00672631
0.00953092
0.00900275
0.00900721
0.0106636
0.0114676
0.0117555
0.0122495
0.0124416
0.0130533
0.0142847
0.0148066
0.0143372
0.00144262
0.00265793
0.00364011
0.00268553
0.00209511
0.00402117
0.00448107
0.00675266
0.00955572
0.00903748
0.00898251
0.0106692
0.0115122
0.0117277
0.0121944
0.0124052
0.012955
0.0141302
0.0146731
0.0141744
0.00154392
0.00273246
0.00365161
0.00280684
0.00231651
0.00408198
0.00453647
0.00677887
0.0095785
0.00907882
0.00895675
0.0106684
0.0115605
0.0117008
0.0121292
0.0123671
0.0128607
0.0139661
0.0145292
0.0140339
0.00164998
0.00280681
0.00366893
0.00293187
0.00253562
0.00414632
0.0045975
0.00680572
0.00959861
0.00912675
0.00893135
0.0106597
0.0116116
0.0116764
0.0120535
0.0123264
0.0127725
0.013796
0.0143726
0.0139083
0.00176089
0.00288135
0.0036919
0.00306053
0.00275262
0.00421433
0.00466392
0.00683388
0.0096153
0.00918068
0.00890785
0.0106421
0.0116641
0.0116562
0.0119676
0.0122816
0.0126926
0.0136237
0.0142023
0.0137897
0.0018767
0.00295652
0.00372038
0.00319264
0.00296765
0.00428611
0.0047354
0.00686418
0.00962804
0.00923957
0.00888771
0.0106147
0.0117162
0.0116422
0.0118718
0.01223
0.0126242
0.0134551
0.0140179
0.0136701
0.00199741
0.00303283
0.00375433
0.00332793
0.00318099
0.00436166
0.0048115
0.00689761
0.00963712
0.00930238
0.00887197
0.010577
0.0117655
0.0116364
0.0117671
0.0121677
0.0125681
0.0132965
0.0138216
0.0135425
0.00212297
0.00311083
0.00379382
0.003466
0.00339283
0.00444134
0.00489161
0.00693469
0.00964294
0.00936816
0.00886154
0.0105287
0.0118096
0.0116409
0.0116567
0.0120916
0.0125214
0.0131537
0.0136186
0.0134018
0.00225339
0.00319104
0.00383897
0.0036065
0.00360328
0.00452569
0.00497488
0.00697538
0.009646
0.00943594
0.00885743
0.0104701
0.0118452
0.0116562
0.0115444
0.0119997
0.0124799
0.0130304
0.0134159
0.0132449
0.00238872
0.00327393
0.00388992
0.00374912
0.00381233
0.00461534
0.0050605
0.00701941
0.00964707
0.00950509
0.00886034
0.0104018
0.0118692
0.0116823
0.0114353
0.0118908
0.012439
0.0129299
0.0132214
0.0130704
0.00252897
0.00335972
0.0039471
0.0038938
0.00401962
0.00471126
0.00514838
0.00706591
0.00964643
0.0095757
0.00887117
0.0103241
0.0118783
0.0117183
0.0113342
0.0117651
0.0123927
0.0128526
0.0130444
0.0128812
0.00267413
0.00344836
0.00401118
0.00404081
0.00422441
0.00481457
0.00523878
0.00711365
0.00964377
0.00964753
0.00889139
0.0102381
0.0118685
0.0117618
0.0112464
0.0116247
0.0123345
0.0127966
0.0128949
0.012687
0.00282439
0.00353974
0.00408246
0.00419074
0.00442604
0.00492598
0.00533194
0.00716187
0.00963897
0.00971951
0.00892282
0.0101465
0.0118362
0.0118088
0.0111774
0.0114733
0.012258
0.0127557
0.0127796
0.0125035
0.00297995
0.00363398
0.00416078
0.00434436
0.00462344
0.00504535
0.0054295
0.00721036
0.0096313
0.0097903
0.00896659
0.0100528
0.0117791
0.0118543
0.0111315
0.0113169
0.0121586
0.0127208
0.0126985
0.0123459
0.00314095
0.00373145
0.0042457
0.00450259
0.00481626
0.00517176
0.00553358
0.00725915
0.00961921
0.00985866
0.00902333
0.0099616
0.0116969
0.0118914
0.011111
0.0111639
0.0120332
0.0126825
0.0126484
0.0122251
0.00330747
0.00383279
0.00433628
0.00466631
0.00500553
0.00530309
0.00564486
0.00730941
0.00960204
0.00992267
0.00909268
0.00987696
0.011591
0.0119136
0.0111158
0.011024
0.0118808
0.0126313
0.0126251
0.0121477
0.00347951
0.00393897
0.00443099
0.00483588
0.00519328
0.00543678
0.00576274
0.00736368
0.0095802
0.0099792
0.00917287
0.00980271
0.0114652
0.0119161
0.0111423
0.0109065
0.0117055
0.0125569
0.0126212
0.0121155
0.00365697
0.00404919
0.00452799
0.00501061
0.00538278
0.005571
0.00588609
0.00742378
0.00955446
0.0100253
0.00926124
0.00974288
0.0113254
0.0118961
0.011184
0.0108191
0.0115176
0.0124492
0.0126245
0.0121245
0.0038395
0.00416862
0.00462615
0.00518886
0.00557779
0.00570513
0.00601157
0.00749047
0.00952752
0.0100593
0.00935353
0.00970006
0.0111794
0.0118539
0.0112329
0.0107651
0.0113309
0.0123033
0.0126191
0.0121656
0.00402646
0.00429767
0.00472535
0.00536775
0.00578134
0.00584036
0.00613412
0.00756307
0.0095045
0.0100823
0.00944417
0.00967427
0.0110355
0.0117922
0.0112816
0.0107422
0.0111582
0.0121243
0.0125888
0.0122272
0.00421717
0.00443735
0.00482634
0.0055435
0.00599451
0.00597957
0.00624933
0.00763985
0.00949108
0.0100968
0.00952841
0.00966341
0.0108994
0.0117147
0.0113252
0.0107463
0.0110094
0.0119228
0.012522
0.0122957
0.00441086
0.00458855
0.00493082
0.00571188
0.00621627
0.00612807
0.00635495
0.00771582
0.00949093
0.0101088
0.00960521
0.00966448
0.0107735
0.0116245
0.01136
0.010773
0.0108925
0.0117122
0.012413
0.0123555
0.00460682
0.00475191
0.00504145
0.00586868
0.00644342
0.00629352
0.00645196
0.00778199
0.00950313
0.0101278
0.00967695
0.00967375
0.0106586
0.0115249
0.0113826
0.0108159
0.0108117
0.0115081
0.0122637
0.0123901
0.00480431
0.00492741
0.00516158
0.00601138
0.00667116
0.00648163
0.00654318
0.00783041
0.00952361
0.010161
0.00974935
0.00968925
0.0105542
0.011419
0.0113925
0.0108682
0.0107659
0.0113274
0.0120843
0.0123838
0.00500275
0.00511448
0.00529435
0.00613985
0.00689276
0.00669426
0.00663771
0.00785686
0.00954083
0.0102096
0.00983207
0.00971359
0.0104585
0.0113072
0.0113896
0.0109251
0.0107508
0.0111821
0.0118934
0.0123277
0.0052019
0.0053127
0.00544222
0.00625523
0.00709906
0.00692853
0.00675085
0.00786335
0.00953969
0.0102702
0.00993314
0.00975211
0.0103731
0.0111898
0.011373
0.0109839
0.0107599
0.0110746
0.011709
0.0122258
0.00540134
0.00552098
0.00560848
0.00636147
0.00728134
0.00717764
0.0068951
0.00785648
0.00950932
0.0103338
0.010056
0.009813
0.0103029
0.0110678
0.011339
0.0110415
0.0107898
0.0110025
0.0115463
0.0120961
0.00560159
0.00573539
0.00579359
0.00646521
0.0074363
0.00743127
0.00707669
0.00785233
0.00944659
0.010383
0.0101993
0.00990314
0.0102547
0.0109463
0.0112856
0.0110915
0.010837
0.0109616
0.01142
0.0119621
0.00580412
0.00595287
0.0059961
0.0065704
0.00756145
0.0076762
0.00729538
0.00787487
0.00935807
0.0103997
0.0103521
0.0100246
0.010236
0.0108339
0.0112146
0.0111252
0.0108964
0.0109497
0.0113302
0.0118427
0.00601037
0.00617229
0.00621548
0.00667965
0.00765511
0.00790051
0.00754467
0.00794167
0.00926355
0.0103759
0.010495
0.0101762
0.0102543
0.0107392
0.0111319
0.0111375
0.0109593
0.0109644
0.0112695
0.0117472
0.00622135
0.00640029
0.00644574
0.00679599
0.00771954
0.00809724
0.00781371
0.00805556
0.00918602
0.010315
0.0106063
0.0103479
0.0103149
0.0106723
0.011047
0.011129
0.0110144
0.011001
0.0112386
0.0116758
0.00643546
0.00661626
0.00668415
0.00693649
0.00777359
0.00826029
0.00808569
0.00821369
0.00914204
0.0102291
0.0106729
0.0105196
0.0104159
0.0106442
0.0109696
0.011104
0.0110544
0.0110492
0.0112381
0.0116296
0.00665228
0.00682866
0.00692348
0.00710341
0.00783085
0.00838937
0.00834227
0.00840553
0.00914041
0.0101396
0.0106965
0.010672
0.010547
0.0106608
0.0109128
0.0110705
0.0110788
0.0110967
0.0112619
0.0116111
0.00687113
0.00703647
0.00716091
0.00729316
0.00789943
0.00848754
0.00857232
0.00861826
0.0091845
0.0100675
0.0106856
0.0107924
0.0106919
0.01072
0.0108886
0.0110389
0.0110915
0.0111367
0.0112981
0.0116193
0.00709175
0.00724266
0.00738917
0.00749674
0.00798678
0.00856757
0.0087731
0.00884022
0.00927167
0.0100263
0.0106554
0.0108762
0.0108338
0.0108122
0.010902
0.0110214
0.0110992
0.0111698
0.0113359
0.0116483
0.00731317
0.00744499
0.0076081
0.00771
0.00809772
0.00864028
0.00894227
0.00905681
0.00939289
0.010022
0.0106257
0.0109285
0.0109598
0.0109263
0.0109526
0.0110274
0.0111093
0.0112008
0.0113726
0.0116863
0.00753428
0.00764856
0.00781672
0.00792308
0.00822969
0.0087161
0.00908376
0.00925908
0.00953868
0.0100553
0.0106107
0.0109608
0.0110633
0.0110486
0.0110357
0.0110621
0.0111297
0.011234
0.011411
0.0117272
0.00775329
0.00784949
0.00801823
0.0081318
0.00837783
0.00880156
0.00920437
0.00944196
0.0096997
0.0101249
0.0106184
0.0109877
0.0111481
0.0111662
0.0111425
0.0111294
0.0111684
0.0112732
0.0114544
0.011771
0.00796882
0.00805065
0.00821112
0.00833297
0.00853998
0.00890206
0.00931145
0.0096023
0.00986237
0.0102239
0.0106537
0.0110202
0.0112231
0.0112754
0.0112601
0.0112276
0.0112334
0.011324
0.0115054
0.0118199
0.00817898
0.0082467
0.00839911
0.00852433
0.00870666
0.00901646
0.00941532
0.00974533
0.0100224
0.0103446
0.0107185
0.0110661
0.0112964
0.0113821
0.0113796
0.0113464
0.0113286
0.0113946
0.0115685
0.0118779
0.008383
0.00844217
0.00858137
0.00870523
0.00887222
0.00914161
0.00951892
0.00987233
0.010175
0.0104784
0.0108088
0.0111338
0.0113776
0.0114944
0.0115065
0.0114771
0.0114514
0.0114912
0.0116477
0.0119482
0.0085783
0.00863144
0.00875858
0.00887767
0.00903484
0.00927544
0.00962668
0.00998783
0.0103169
0.0106201
0.0109198
0.0112224
0.0114702
0.011614
0.0116507
0.0116281
0.0116019
0.0116214
0.0117515
0.0120365
0.0087628
0.00880815
0.00892952
0.009042
0.00919114
0.00941315
0.0097403
0.010097
0.0104463
0.0107655
0.0110531
0.0113375
0.0115811
0.0117393
0.0118049
0.0117996
0.0117768
0.0117875
0.0118909
0.012152
0.00893806
0.00898263
0.00909181
0.00919363
0.00933585
0.00954828
0.00985899
0.0102063
0.0105626
0.0108973
0.0111978
0.0114848
0.0117323
0.0118983
0.0119853
0.0120024
0.0119823
0.011987
0.0120682
0.0122962
0.00909963
0.00914424
0.00924635
0.00933389
0.00946581
0.00967271
0.00997676
0.0103234
0.0106845
0.0110192
0.0113274
0.0116357
0.0119113
0.0121082
0.0122237
0.0122745
0.0122698
0.012269
0.0123325
0.0125289
0.00924152
0.00928841
0.00939223
0.00946994
0.00958975
0.00978603
0.0100721
0.0104145
0.010798
0.011153
0.011461
0.0117677
0.0120682
0.0123098
0.0124673
0.0125621
0.0125965
0.0126028
0.0126492
0.0128131
0.00937457
0.00942172
0.00952923
0.00959721
0.00971664
0.00991109
0.0101756
0.0104889
0.0108683
0.0112853
0.0116823
0.0120539
0.0123989
0.0126837
0.0128776
0.0130162
0.013096
0.0131017
0.0130892
0.0131418
0.00947117
0.00950593
0.00959157
0.00967181
0.00980985
0.0100156
0.0102924
0.0105688
0.010845
0.0111279
0.011508
0.0120214
0.012546
0.0129837
0.0133121
0.0135966
0.0139034
0.0142441
0.0146114
0.0149525
0.00961143
0.00965246
0.00975858
0.00980638
0.00989808
0.0100466
0.0103089
0.0106921
0.0111418
0.0116133
0.012056
0.0124633
0.0128206
0.0131655
0.0135095
0.0138364
0.0141583
0.0144676
0.0147405
0.0149301
0.00950651
0.00953786
0.0097397
0.00995442
0.0101502
0.0103635
0.0106393
0.0109616
0.0113112
0.0116549
0.0119806
0.0123373
0.0127203
0.0131207
0.0135395
0.0139534
0.0144318
0.0149489
0.0154116
0.0157177
0.00975199
0.00982125
0.00998571
0.0101158
0.0102837
0.0104844
0.0107579
0.0110769
0.0114157
0.0118017
0.0122275
0.0126707
0.0130887
0.0134275
0.0136994
0.0138805
0.0139062
0.0138172
0.0136775
0.0135886
0.00960313
0.00964709
0.00991519
0.0102097
0.0104521
0.0106587
0.010912
0.0112083
0.0115159
0.0118575
0.012223
0.012588
0.0129999
0.0134168
0.0138229
0.0142402
0.0146838
0.0151371
0.0155288
0.0157845
0.00976198
0.00982202
0.0101264
0.0104013
0.0106249
0.0108087
0.0110348
0.011319
0.0116142
0.0119418
0.0123372
0.0127526
0.0131917
0.0136355
0.0140456
0.014433
0.0147734
0.0150509
0.015243
0.0153144
0.0255356
0.020643
0.0130038
0.00741319
0.00632926
0.00788088
0.00965217
0.0108978
0.0116795
0.0122006
0.0126472
0.013165
0.0137485
0.0142547
0.0146472
0.0150237
0.0154198
0.0158157
0.0162025
0.0165768
0.0169927
0.0174932
0.0179955
0.0184001
0.0187531
0.019196
0.0197434
0.0202487
0.0206631
0.021113
0.0216467
0.0221671
0.0226378
0.0231097
0.0236191
0.0241712
0.024771
0.025405
0.0260316
0.0266447
0.0272713
0.0278928
0.0284772
0.0290353
0.0295851
0.0301671
0.0307916
0.0314403
0.0320894
0.0327608
0.0334654
0.0341813
0.0348759
0.0355828
0.0363581
0.0371359
0.0378771
0.0386195
0.0393814
0.040133
0.0409135
0.0417271
0.042587
0.0434742
0.0443882
0.045334
0.046268
0.0471331
0.0480179
0.0489565
0.0499315
0.0509488
0.0519761
0.0530006
0.0540209
0.0550821
0.0561596
0.0572847
0.0584164
0.0595757
0.060742
0.0619396
0.0631802
0.0644329
0.0657159
0.0670223
0.0683678
0.0697465
0.0711234
0.0725344
0.0739227
0.0753879
0.0768728
0.0783683
0.0798663
0.0813523
0.0828239
0.0842247
0.085537
0.0867042
0.0248205
0.0204855
0.0130879
0.00756026
0.0064197
0.00792428
0.00967851
0.0109162
0.0116934
0.0122115
0.0126559
0.0131722
0.013755
0.0142606
0.0146524
0.0150283
0.0154239
0.0158193
0.0162058
0.0165797
0.0169952
0.0174955
0.0179977
0.0184022
0.0187548
0.0191974
0.0197448
0.0202501
0.0206643
0.021114
0.0216477
0.0221681
0.0226388
0.0231105
0.0236198
0.0241719
0.0247716
0.0254057
0.0260323
0.0266454
0.0272719
0.0278934
0.0284778
0.0290359
0.0295857
0.0301677
0.0307921
0.0314408
0.0320899
0.0327612
0.0334658
0.0341818
0.0348763
0.0355832
0.0363585
0.0371363
0.0378775
0.0386198
0.0393817
0.0401333
0.0409138
0.0417274
0.0425872
0.0434745
0.0443884
0.0453342
0.0462682
0.0471333
0.0480181
0.0489567
0.0499316
0.050949
0.0519762
0.0530008
0.0540211
0.0550822
0.0561597
0.0572849
0.0584165
0.0595758
0.0607421
0.0619397
0.0631803
0.0644331
0.065716
0.0670224
0.0683679
0.0697466
0.0711235
0.0725345
0.0739228
0.075388
0.0768729
0.0783684
0.0798663
0.0813524
0.082824
0.0842247
0.085537
0.0867042
0.0241282
0.0203275
0.0132658
0.00783417
0.00657584
0.00798277
0.00970638
0.0109361
0.0117092
0.0122247
0.0126668
0.0131808
0.0137619
0.0142665
0.0146576
0.015033
0.015428
0.0158229
0.0162091
0.0165826
0.0169977
0.0174978
0.0179999
0.0184042
0.0187565
0.0191988
0.0197461
0.0202514
0.0206654
0.0211149
0.0216486
0.022169
0.0226396
0.0231112
0.0236205
0.0241725
0.0247722
0.0254063
0.0260329
0.0266459
0.0272725
0.027894
0.0284784
0.0290364
0.0295862
0.0301681
0.0307926
0.0314413
0.0320903
0.0327617
0.0334662
0.0341822
0.0348767
0.0355835
0.0363588
0.0371367
0.0378778
0.0386202
0.039382
0.0401336
0.040914
0.0417277
0.0425875
0.0434747
0.0443886
0.0453344
0.0462685
0.0471335
0.0480182
0.0489568
0.0499318
0.0509492
0.0519764
0.0530009
0.0540212
0.0550824
0.0561598
0.057285
0.0584166
0.0595759
0.0607422
0.0619398
0.0631804
0.0644332
0.0657161
0.0670225
0.068368
0.0697467
0.0711236
0.0725346
0.0739229
0.0753881
0.076873
0.0783685
0.0798664
0.0813524
0.082824
0.0842248
0.085537
0.0867042
0.0234764
0.020172
0.0134946
0.00818197
0.00679094
0.00806661
0.00974725
0.0109654
0.0117322
0.0122439
0.012683
0.0131932
0.0137705
0.0142732
0.0146639
0.0150392
0.0154335
0.0158275
0.0162131
0.0165864
0.017001
0.0175007
0.0180025
0.0184066
0.0187587
0.0192009
0.019748
0.020253
0.0206667
0.0211161
0.0216498
0.0221701
0.0226405
0.023112
0.0236212
0.0241731
0.0247728
0.0254069
0.0260335
0.0266465
0.0272731
0.0278946
0.0284789
0.029037
0.0295867
0.0301686
0.030793
0.0314417
0.0320908
0.0327621
0.0334667
0.0341826
0.0348771
0.0355838
0.0363592
0.0371371
0.0378782
0.0386205
0.0393824
0.0401339
0.0409143
0.0417279
0.0425877
0.0434749
0.0443888
0.0453347
0.0462688
0.0471338
0.0480184
0.048957
0.049932
0.0509493
0.0519766
0.0530011
0.0540213
0.0550825
0.05616
0.0572851
0.0584168
0.059576
0.0607423
0.0619399
0.0631805
0.0644333
0.0657162
0.0670226
0.0683681
0.0697468
0.0711237
0.0725347
0.073923
0.0753881
0.0768731
0.0783686
0.0798665
0.0813525
0.0828241
0.0842249
0.0855372
0.0867044
0.0228342
0.0199933
0.0137318
0.00855427
0.00703221
0.00816393
0.00979514
0.0110017
0.0117623
0.01227
0.012706
0.0132109
0.013782
0.0142811
0.0146717
0.0150475
0.015441
0.0158337
0.0162188
0.016592
0.0170062
0.0175046
0.0180055
0.0184098
0.0187624
0.0192043
0.0197506
0.0202551
0.0206687
0.021118
0.0216515
0.0221715
0.0226416
0.023113
0.0236221
0.0241738
0.0247735
0.0254076
0.0260342
0.0266472
0.0272738
0.0278953
0.0284795
0.0290375
0.0295872
0.030169
0.0307935
0.0314422
0.0320913
0.0327626
0.0334671
0.0341831
0.0348775
0.0355842
0.0363596
0.0371375
0.0378786
0.0386208
0.0393827
0.0401342
0.0409146
0.0417282
0.042588
0.0434752
0.0443891
0.045335
0.0462691
0.047134
0.0480186
0.0489572
0.0499321
0.0509495
0.0519767
0.0530013
0.0540215
0.0550826
0.0561601
0.0572853
0.0584169
0.0595762
0.0607425
0.06194
0.0631807
0.0644334
0.0657163
0.0670227
0.0683682
0.0697469
0.0711238
0.0725348
0.0739231
0.0753882
0.0768732
0.0783687
0.0798666
0.0813526
0.0828243
0.084225
0.0855374
0.0867046
0.0221928
0.0197825
0.0139625
0.00893557
0.00728876
0.00826852
0.00984432
0.0110403
0.0117966
0.0123011
0.0127341
0.0132329
0.013796
0.0142903
0.0146808
0.0150577
0.0154506
0.0158417
0.0162261
0.0166
0.0170136
0.0175098
0.0180089
0.0184137
0.0187676
0.0192094
0.0197543
0.020258
0.0206717
0.021121
0.021654
0.0221734
0.0226433
0.0231145
0.0236232
0.0241747
0.0247742
0.0254083
0.0260349
0.0266479
0.0272746
0.027896
0.0284801
0.0290381
0.0295878
0.0301696
0.0307939
0.0314427
0.0320918
0.0327631
0.0334676
0.0341836
0.034878
0.0355847
0.03636
0.037138
0.037879
0.0386213
0.0393831
0.0401345
0.0409149
0.0417285
0.0425883
0.0434755
0.0443894
0.0453353
0.0462695
0.0471343
0.0480188
0.0489574
0.0499323
0.0509497
0.051977
0.0530015
0.0540217
0.0550828
0.0561602
0.0572854
0.0584171
0.0595763
0.0607426
0.0619402
0.0631808
0.0644335
0.0657164
0.0670228
0.0683683
0.069747
0.0711239
0.072535
0.0739232
0.0753883
0.0768733
0.0783688
0.0798668
0.0813528
0.0828245
0.0842253
0.0855379
0.0867049
0.0215573
0.0195426
0.0141826
0.00932225
0.00755961
0.00838069
0.00989409
0.0110797
0.0118338
0.0123359
0.0127658
0.0132577
0.0138116
0.0143005
0.014691
0.0150692
0.0154616
0.0158509
0.016235
0.01661
0.0170235
0.0175166
0.0180129
0.0184182
0.0187744
0.0192162
0.0197589
0.0202615
0.0206758
0.0211254
0.0216576
0.0221762
0.0226458
0.0231167
0.0236249
0.024176
0.0247751
0.025409
0.0260356
0.0266488
0.0272755
0.0278969
0.0284808
0.0290388
0.0295885
0.0301702
0.0307944
0.0314431
0.0320924
0.0327637
0.0334682
0.0341841
0.0348786
0.0355853
0.0363606
0.0371385
0.0378796
0.0386218
0.0393835
0.0401349
0.0409152
0.0417288
0.0425886
0.0434758
0.0443897
0.0453356
0.04627
0.0471347
0.048019
0.0489576
0.0499326
0.05095
0.0519772
0.0530017
0.0540219
0.055083
0.0561604
0.0572856
0.0584172
0.0595764
0.0607427
0.0619403
0.0631809
0.0644336
0.0657165
0.0670229
0.0683684
0.0697472
0.071124
0.0725351
0.0739233
0.0753884
0.0768735
0.0783689
0.0798669
0.0813529
0.0828247
0.0842257
0.0855385
0.0867054
0.0209371
0.0192778
0.0143878
0.00971161
0.00784536
0.0085027
0.00994541
0.0111197
0.0118734
0.0123738
0.0128001
0.0132844
0.0138286
0.0143115
0.014702
0.0150817
0.0154734
0.0158609
0.0162447
0.0166215
0.0170352
0.0175249
0.0180176
0.0184234
0.0187823
0.0192242
0.0197643
0.0202655
0.0206808
0.021131
0.0216622
0.0221798
0.0226492
0.0231199
0.0236275
0.0241778
0.0247763
0.0254097
0.0260361
0.0266495
0.0272764
0.0278978
0.0284816
0.0290397
0.0295895
0.030171
0.0307949
0.0314436
0.0320931
0.0327645
0.0334687
0.0341845
0.0348792
0.0355859
0.0363612
0.037139
0.0378802
0.0386224
0.039384
0.0401352
0.0409156
0.0417291
0.0425889
0.0434762
0.04439
0.0453361
0.0462705
0.0471351
0.0480193
0.0489579
0.0499329
0.0509504
0.0519775
0.053002
0.0540221
0.0550832
0.0561606
0.0572858
0.0584174
0.0595766
0.0607429
0.0619404
0.0631811
0.0644338
0.0657167
0.067023
0.0683686
0.0697473
0.0711242
0.0725352
0.0739234
0.0753885
0.0768736
0.0783691
0.0798671
0.0813532
0.082825
0.0842263
0.0855394
0.086706
0.0203401
0.018991
0.0145734
0.0101006
0.00814605
0.00863642
0.0099991
0.0111596
0.0119147
0.0124145
0.012837
0.0133131
0.0138468
0.0143235
0.0147138
0.0150949
0.0154859
0.0158713
0.016255
0.0166338
0.017048
0.0175343
0.0180232
0.0184294
0.0187911
0.019233
0.0197701
0.0202698
0.0206865
0.0211375
0.0216674
0.022184
0.0226535
0.0231241
0.0236309
0.0241804
0.024778
0.0254105
0.0260366
0.0266501
0.0272772
0.0278985
0.0284824
0.0290408
0.0295909
0.0301723
0.0307957
0.0314442
0.0320939
0.0327653
0.0334693
0.0341849
0.0348798
0.0355867
0.0363617
0.0371396
0.0378809
0.0386232
0.0393846
0.0401358
0.040916
0.0417295
0.0425892
0.0434766
0.0443904
0.0453366
0.0462711
0.0471357
0.0480196
0.0489582
0.0499333
0.0509508
0.0519779
0.0530023
0.0540225
0.0550835
0.0561609
0.0572861
0.0584177
0.0595768
0.0607431
0.0619406
0.0631813
0.0644339
0.0657168
0.0670232
0.0683687
0.0697475
0.0711243
0.0725354
0.0739235
0.0753886
0.0768738
0.0783692
0.0798674
0.0813534
0.0828254
0.0842272
0.0855407
0.0867068
0.019772
0.0186864
0.014736
0.0104857
0.00846023
0.00878276
0.0100557
0.0111988
0.0119571
0.0124578
0.0128765
0.0133438
0.0138664
0.0143364
0.0147263
0.0151089
0.015499
0.0158823
0.0162656
0.0166466
0.0170615
0.0175445
0.0180295
0.018436
0.0188006
0.0192425
0.0197761
0.0202742
0.0206926
0.0211444
0.021673
0.0221885
0.0226583
0.0231291
0.0236353
0.0241837
0.0247802
0.0254117
0.0260372
0.0266505
0.0272776
0.0278989
0.028483
0.0290419
0.0295927
0.0301739
0.0307967
0.031445
0.032095
0.0327664
0.0334699
0.0341853
0.0348805
0.0355874
0.0363622
0.03714
0.0378817
0.038624
0.0393854
0.0401365
0.0409167
0.04173
0.0425896
0.0434768
0.0443907
0.045337
0.0462718
0.0471363
0.04802
0.0489587
0.0499338
0.0509513
0.0519783
0.0530028
0.0540229
0.0550839
0.0561612
0.0572864
0.058418
0.0595771
0.0607433
0.0619408
0.0631815
0.0644341
0.065717
0.0670233
0.0683689
0.0697477
0.0711245
0.0725355
0.0739236
0.0753888
0.076874
0.0783694
0.0798677
0.0813537
0.0828258
0.0842283
0.0855424
0.0867078
0.0192371
0.0183697
0.0148733
0.0108626
0.00878519
0.00894227
0.0101161
0.0112369
0.0119996
0.0125034
0.0129187
0.0133764
0.0138872
0.0143501
0.0147396
0.0151236
0.0155129
0.0158937
0.0162766
0.0166597
0.0170755
0.0175552
0.0180363
0.018443
0.0188106
0.0192524
0.0197825
0.0202789
0.0206989
0.0211518
0.0216788
0.022193
0.0226633
0.0231347
0.0236404
0.0241877
0.024783
0.0254132
0.0260379
0.026651
0.0272779
0.0278989
0.0284832
0.029043
0.0295947
0.030176
0.0307982
0.0314461
0.0320963
0.0327678
0.0334707
0.0341858
0.0348812
0.0355882
0.0363626
0.0371402
0.0378823
0.0386249
0.0393862
0.0401374
0.0409177
0.0417308
0.0425901
0.0434771
0.0443908
0.0453372
0.0462723
0.0471369
0.0480205
0.0489591
0.0499345
0.0509519
0.0519788
0.0530033
0.0540234
0.0550844
0.0561616
0.0572869
0.0584184
0.0595774
0.0607437
0.0619411
0.0631817
0.0644343
0.0657172
0.0670235
0.068369
0.0697479
0.0711246
0.0725357
0.0739238
0.0753889
0.0768742
0.0783696
0.0798681
0.0813541
0.0828264
0.0842298
0.0855445
0.086709
0.0187386
0.0180475
0.014984
0.0112269
0.00911789
0.00911541
0.0101812
0.0112735
0.0120414
0.0125508
0.0129633
0.0134109
0.0139091
0.0143646
0.0147538
0.0151393
0.0155275
0.0159057
0.016288
0.0166734
0.0170901
0.0175664
0.0180434
0.0184504
0.018821
0.0192628
0.0197893
0.0202839
0.0207056
0.0211594
0.0216848
0.0221976
0.0226683
0.0231405
0.0236459
0.0241923
0.0247863
0.025415
0.0260389
0.0266516
0.0272779
0.0278985
0.0284829
0.0290439
0.0295968
0.0301784
0.0307999
0.0314475
0.0320979
0.0327693
0.0334717
0.0341863
0.034882
0.0355891
0.0363629
0.0371402
0.0378827
0.0386256
0.0393869
0.0401383
0.0409189
0.041732
0.042591
0.0434775
0.0443907
0.0453372
0.0462727
0.0471375
0.048021
0.0489597
0.0499352
0.0509525
0.0519794
0.0530039
0.054024
0.0550849
0.0561622
0.0572874
0.058419
0.0595779
0.0607441
0.0619415
0.0631821
0.0644345
0.0657174
0.0670237
0.0683692
0.0697481
0.0711248
0.0725358
0.073924
0.0753891
0.0768744
0.0783698
0.0798685
0.0813546
0.082827
0.0842317
0.0855472
0.0867104
0.0182777
0.0177249
0.0150679
0.0115753
0.0094553
0.00930228
0.0102522
0.0113086
0.0120814
0.0125992
0.0130102
0.0134472
0.0139322
0.0143798
0.0147688
0.0151559
0.0155429
0.0159183
0.0162999
0.0166876
0.0171052
0.0175779
0.0180507
0.0184579
0.0188318
0.0192737
0.0197965
0.0202891
0.0207125
0.0211674
0.021691
0.0222023
0.0226734
0.0231463
0.0236516
0.0241972
0.0247899
0.0254171
0.02604
0.0266522
0.0272779
0.0278979
0.0284824
0.0290445
0.0295989
0.0301811
0.030802
0.0314491
0.0320998
0.0327711
0.0334728
0.0341869
0.034883
0.0355902
0.0363631
0.03714
0.0378829
0.038626