/*--------------------------------*- C++ -*----------------------------------*\
| =========                 |                                                 |
| \\      /  F ield         | OpenFOAM: The Open Source CFD Toolbox           |
|  \\    /   O peration     | Version:  v1906                                 |
|   \\  /    A nd           | Web:      www.OpenFOAM.com                      |
|    \\/     M anipulation  |                                                 |
\*---------------------------------------------------------------------------*/
FoamFile
{
    version     2.0;
    format      ascii;
    class       surfaceScalarField;
    location    "7.8";
    object      phi;
}
// * * * * * * * * * * * * * * * * * * * * * * * * * * * * * * * * * * * * * //

dimensions      [0 3 -1 0 0 0 0];
oriented        oriented;


internalField   nonuniform List<scalar> 
19000
(
1.17796e-06
-2.20522e-07
1.10206e-06
1.2745e-06
1.11454e-06
-1.30297e-06
1.28722e-06
-1.9209e-06
1.30085e-06
-1.05648e-06
1.18553e-06
1.21159e-06
1.16672e-06
3.91136e-07
1.14075e-06
2.3826e-07
1.1614e-06
-7.98097e-07
1.19901e-06
-9.5541e-07
1.20387e-06
-1.15533e-06
1.20179e-06
-5.63763e-07
1.20866e-06
-4.51339e-07
1.21941e-06
-1.67286e-07
1.22539e-06
-1.15247e-07
1.22146e-06
1.68549e-08
1.22404e-06
4.77855e-08
1.2069e-06
8.8468e-08
1.20003e-06
1.17125e-07
1.04351e-07
1.16321e-06
1.23388e-06
-2.30139e-07
1.18517e-06
1.32321e-06
1.17577e-06
-1.29357e-06
1.32788e-06
-2.07301e-06
1.35438e-06
-1.08298e-06
1.26679e-06
1.29918e-06
1.23589e-06
4.22028e-07
1.23604e-06
2.38113e-07
1.24097e-06
-8.03024e-07
1.26625e-06
-9.80688e-07
1.27219e-06
-1.16127e-06
1.26968e-06
-5.61252e-07
1.2719e-06
-4.53567e-07
1.28926e-06
-1.84645e-07
1.28672e-06
-1.12707e-07
1.29555e-06
8.02975e-09
1.28031e-06
6.30214e-08
1.28448e-06
8.43044e-08
1.24992e-06
1.51677e-07
1.00885e-07
1.25339e-06
1.29084e-06
-2.38197e-07
1.26961e-06
1.34444e-06
1.23348e-06
-1.25745e-06
1.36321e-06
-2.20273e-06
1.40575e-06
-1.12551e-06
1.35392e-06
1.35101e-06
1.31697e-06
4.58981e-07
1.32783e-06
2.27253e-07
1.31392e-06
-7.89111e-07
1.32778e-06
-9.94551e-07
1.32756e-06
-1.16105e-06
1.33306e-06
-5.66751e-07
1.33125e-06
-4.5176e-07
1.35575e-06
-2.09143e-07
1.35165e-06
-1.08605e-07
1.36413e-06
-4.44743e-09
1.34975e-06
7.74023e-08
1.34958e-06
8.44733e-08
1.32713e-06
1.74127e-07
1.17724e-07
1.31029e-06
1.34796e-06
-2.42051e-07
1.35006e-06
1.34234e-06
1.28887e-06
-1.19626e-06
1.39489e-06
-2.30875e-06
1.45204e-06
-1.18266e-06
1.43579e-06
1.36726e-06
1.40415e-06
4.9062e-07
1.41608e-06
2.15323e-07
1.3863e-06
-7.59325e-07
1.38528e-06
-9.93535e-07
1.37692e-06
-1.15269e-06
1.38656e-06
-5.76395e-07
1.38735e-06
-4.52546e-07
1.41273e-06
-2.34522e-07
1.4174e-06
-1.13279e-07
1.42838e-06
-1.5429e-08
1.42252e-06
8.32607e-08
1.41804e-06
8.89576e-08
1.40389e-06
1.8828e-07
1.38887e-07
1.38272e-06
1.40634e-06
-2.40041e-07
1.42254e-06
1.32614e-06
1.34453e-06
-1.11825e-06
1.42604e-06
-2.39026e-06
1.49574e-06
-1.25237e-06
1.51196e-06
1.35104e-06
1.49617e-06
5.06414e-07
1.50242e-06
2.09074e-07
1.4612e-06
-7.18103e-07
1.44314e-06
-9.7548e-07
1.42668e-06
-1.13623e-06
1.43657e-06
-5.86285e-07
1.44238e-06
-4.58358e-07
1.46721e-06
-2.59347e-07
1.48064e-06
-1.26713e-07
1.49345e-06
-2.82383e-08
1.49381e-06
8.29016e-08
1.4904e-06
9.23672e-08
1.48007e-06
1.9861e-07
1.59087e-07
1.45987e-06
1.46857e-06
-2.32933e-07
1.48881e-06
1.3059e-06
1.40549e-06
-1.03492e-06
1.46137e-06
-2.44614e-06
1.54095e-06
-1.33195e-06
1.58699e-06
1.305e-06
1.59155e-06
5.01849e-07
1.5901e-06
2.10526e-07
1.54047e-06
-6.68477e-07
1.50666e-06
-9.41669e-07
1.48166e-06
-1.11123e-06
1.48991e-06
-5.94536e-07
1.49904e-06
-4.67481e-07
1.52394e-06
-2.84252e-07
1.54253e-06
-1.453e-07
1.55922e-06
-4.49264e-08
1.56453e-06
7.75843e-08
1.56377e-06
9.31302e-08
1.55722e-06
2.05161e-07
1.77702e-07
1.53861e-06
1.53737e-06
-2.2409e-07
1.55515e-06
1.28812e-06
1.47644e-06
-9.5621e-07
1.50568e-06
-2.47539e-06
1.59125e-06
-1.41752e-06
1.66471e-06
1.23155e-06
1.68717e-06
4.79386e-07
1.67918e-06
2.18512e-07
1.62275e-06
-6.12047e-07
1.57703e-06
-8.95945e-07
1.54349e-06
-1.07768e-06
1.54924e-06
-6.00294e-07
1.55946e-06
-4.77695e-07
1.58456e-06
-3.09349e-07
1.60564e-06
-1.66383e-07
1.62565e-06
-6.49387e-08
1.63549e-06
6.7743e-08
1.63743e-06
9.11927e-08
1.63483e-06
2.0776e-07
1.94295e-07
1.61824e-06
1.61387e-06
-2.17829e-07
1.6281e-06
1.27389e-06
1.55899e-06
-8.87103e-07
1.56198e-06
-2.47837e-06
1.64857e-06
-1.50411e-06
1.74534e-06
1.13477e-06
1.77916e-06
4.45566e-07
1.76685e-06
2.30828e-07
1.70545e-06
-5.50647e-07
1.6526e-06
-8.43097e-07
1.61198e-06
-1.03706e-06
1.61476e-06
-6.03076e-07
1.62445e-06
-4.87383e-07
1.64917e-06
-3.34072e-07
1.67128e-06
-1.88489e-07
1.69326e-06
-8.69186e-08
1.70689e-06
5.41105e-08
1.71122e-06
8.68597e-08
1.71236e-06
2.06621e-07
2.08503e-07
1.69815e-06
1.69674e-06
-2.16996e-07
1.71059e-06
1.26004e-06
1.65128e-06
-8.27796e-07
1.63072e-06
-2.45781e-06
1.71341e-06
-1.5868e-06
1.82661e-06
1.02157e-06
1.86451e-06
4.07667e-07
1.84985e-06
2.45485e-07
1.78645e-06
-4.87251e-07
1.73138e-06
-7.88023e-07
1.68638e-06
-9.92061e-07
1.68611e-06
-6.02808e-07
1.6939e-06
-4.95172e-07
1.71711e-06
-3.57284e-07
1.73919e-06
-2.10574e-07
1.7619e-06
-1.09622e-07
1.77847e-06
3.75407e-08
1.78476e-06
8.0569e-08
1.78926e-06
2.02118e-07
2.19985e-07
1.77778e-06
1.78337e-06
-2.21643e-07
1.80113e-06
1.24227e-06
1.74979e-06
-7.76452e-07
1.71052e-06
-2.41853e-06
1.78526e-06
-1.66154e-06
1.906e-06
9.00829e-07
1.94191e-06
3.71759e-07
1.9265e-06
2.60896e-07
1.86488e-06
-4.25628e-07
1.81225e-06
-7.35396e-07
1.766e-06
-9.45813e-07
1.76304e-06
-5.99845e-07
1.76774e-06
-4.99872e-07
1.78782e-06
-3.77365e-07
1.80866e-06
-2.31412e-07
1.8309e-06
-1.31862e-07
1.84958e-06
1.88597e-08
1.85744e-06
7.27051e-08
1.86487e-06
1.94692e-07
2.2832e-07
1.85654e-06
1.87171e-06
-2.29609e-07
1.89593e-06
1.21806e-06
1.85136e-06
-7.31881e-07
1.79923e-06
-2.36641e-06
1.86254e-06
-1.72485e-06
1.98168e-06
7.81688e-07
2.01175e-06
3.41687e-07
1.99731e-06
2.75338e-07
1.94119e-06
-3.69511e-07
1.89499e-06
-6.89199e-07
1.85042e-06
-9.01245e-07
1.84544e-06
-5.94866e-07
1.84642e-06
-5.00845e-07
1.86177e-06
-3.92718e-07
1.87986e-06
-2.49506e-07
1.90026e-06
-1.52254e-07
1.92002e-06
-9.06611e-10
1.92909e-06
6.36341e-08
1.93893e-06
1.84855e-07
2.3311e-07
1.93414e-06
1.96138e-06
-2.38148e-07
1.99178e-06
1.18766e-06
1.95404e-06
-6.94141e-07
1.89483e-06
-2.3072e-06
1.94311e-06
-1.77312e-06
2.05282e-06
6.71977e-07
2.07608e-06
3.18425e-07
2.06494e-06
2.86486e-07
2.01721e-06
-3.2179e-07
1.98005e-06
-6.52031e-07
1.93936e-06
-8.60557e-07
1.93321e-06
-5.88715e-07
1.93066e-06
-4.98299e-07
1.9404e-06
-4.02461e-07
1.95442e-06
-2.63521e-07
1.97146e-06
-1.6929e-07
1.9909e-06
-2.03483e-08
2.0006e-06
5.39285e-08
2.01217e-06
1.73287e-07
2.34214e-07
2.01107e-06
2.0533e-06
-2.45255e-07
2.08778e-06
1.15317e-06
2.05719e-06
-6.63547e-07
1.99575e-06
-2.24576e-06
2.02599e-06
-1.80336e-06
2.12096e-06
5.77e-07
2.13898e-06
3.00405e-07
2.13364e-06
2.91824e-07
2.09571e-06
-2.83857e-07
2.06828e-06
-6.24602e-07
2.03262e-06
-8.24893e-07
2.02609e-06
-5.8219e-07
2.021e-06
-4.93202e-07
2.02534e-06
-4.06805e-07
2.03466e-06
-2.72837e-07
2.04714e-06
-1.81778e-07
2.06465e-06
-3.78508e-08
2.07411e-06
4.44594e-08
2.08647e-06
1.60929e-07
2.31938e-07
2.08875e-06
2.14882e-06
-2.50074e-07
2.18507e-06
1.11693e-06
2.16121e-06
-6.39685e-07
2.10092e-06
-2.18548e-06
2.11223e-06
-1.81467e-06
2.19058e-06
4.98653e-07
2.20593e-06
2.85052e-07
2.20801e-06
2.89751e-07
2.17951e-06
-2.55358e-07
2.16071e-06
-6.05806e-07
2.13013e-06
-7.94317e-07
2.12376e-06
-5.75817e-07
2.1174e-06
-4.8684e-07
2.11746e-06
-4.06861e-07
2.12237e-06
-2.77749e-07
2.12985e-06
-1.89261e-07
2.14406e-06
-5.20647e-08
2.15231e-06
3.62129e-08
2.16435e-06
1.48886e-07
2.27055e-07
2.16924e-06
2.24902e-06
-2.5261e-07
2.28549e-06
1.08046e-06
2.26714e-06
-6.21331e-07
2.20977e-06
-2.12811e-06
2.20411e-06
-1.80901e-06
2.26724e-06
4.35519e-07
2.28188e-06
2.70418e-07
2.29134e-06
2.80281e-07
2.2706e-06
-2.34617e-07
2.25822e-06
-5.93419e-07
2.23201e-06
-7.68106e-07
2.22593e-06
-5.69745e-07
2.21941e-06
-4.8032e-07
2.21662e-06
-4.04065e-07
2.21807e-06
-2.79204e-07
2.22095e-06
-1.92139e-07
2.23116e-06
-6.22764e-08
2.23743e-06
2.99482e-08
2.24813e-06
1.38187e-07
2.20622e-07
2.25456e-06
2.35452e-06
-2.53256e-07
2.39058e-06
1.0444e-06
2.37621e-06
-6.0696e-07
2.32213e-06
-2.07403e-06
2.30333e-06
-1.79021e-06
2.35468e-06
3.8417e-07
2.36932e-06
2.55775e-07
2.38488e-06
2.64728e-07
2.36978e-06
-2.1952e-07
2.3614e-06
-5.8504e-07
2.33851e-06
-7.4521e-07
2.33254e-06
-5.63783e-07
2.32652e-06
-4.74292e-07
2.32209e-06
-3.9964e-07
2.32119e-06
-2.78303e-07
2.32046e-06
-1.91411e-07
2.32668e-06
-6.84913e-08
2.33065e-06
2.59783e-08
2.33932e-06
1.29518e-07
2.13678e-07
2.34626e-06
2.4656e-06
-2.52463e-07
2.50118e-06
1.00882e-06
2.48943e-06
-5.95211e-07
2.43824e-06
-2.02284e-06
2.41029e-06
-1.76226e-06
2.45359e-06
3.40869e-07
2.46819e-06
2.41167e-07
2.48814e-06
2.44787e-07
2.4769e-06
-2.08289e-07
2.47059e-06
-5.78731e-07
2.45003e-06
-7.2465e-07
2.44379e-06
-5.57539e-07
2.43846e-06
-4.68956e-07
2.43318e-06
-3.94366e-07
2.43078e-06
-2.75905e-07
2.42764e-06
-1.88265e-07
2.43041e-06
-7.12664e-08
2.4322e-06
2.41934e-08
2.43864e-06
1.23078e-07
2.07e-07
2.44532e-06
2.58244e-06
-2.50611e-07
2.61775e-06
9.73512e-07
2.60755e-06
-5.85013e-07
2.55854e-06
-1.97383e-06
2.52445e-06
-1.72817e-06
2.56266e-06
3.02661e-07
2.57707e-06
2.26764e-07
2.60002e-06
2.21835e-07
2.59149e-06
-1.99762e-07
2.58595e-06
-5.73195e-07
2.56702e-06
-7.05711e-07
2.56007e-06
-5.50589e-07
2.55529e-06
-4.64185e-07
2.54958e-06
-3.88651e-07
2.54617e-06
-2.72498e-07
2.54163e-06
-1.83721e-07
2.5418e-06
-7.14374e-08
2.54178e-06
2.42154e-08
2.54624e-06
1.1861e-07
2.00969e-07
2.55227e-06
2.70521e-06
-2.47988e-07
2.74055e-06
9.38171e-07
2.73107e-06
-5.75535e-07
2.68353e-06
-1.92629e-06
2.64525e-06
-1.68989e-06
2.68034e-06
2.67579e-07
2.69455e-06
2.12548e-07
2.71962e-06
1.96771e-07
2.71314e-06
-1.93282e-07
2.70758e-06
-5.67638e-07
2.68983e-06
-6.87958e-07
2.68184e-06
-5.42602e-07
2.67733e-06
-4.59678e-07
2.67136e-06
-3.82679e-07
2.66715e-06
-2.68281e-07
2.66192e-06
-1.78493e-07
2.66034e-06
-6.9864e-08
2.65901e-06
2.55487e-08
2.66205e-06
1.15574e-07
1.9559e-07
2.66743e-06
2.83408e-06
-2.44798e-07
2.86981e-06
9.02442e-07
2.8604e-06
-5.66123e-07
2.81372e-06
-1.87962e-06
2.77245e-06
-1.64862e-06
2.80566e-06
2.34369e-07
2.81988e-06
1.98325e-07
2.84647e-06
1.70186e-07
2.84165e-06
-1.88465e-07
2.83559e-06
-5.61576e-07
2.81877e-06
-6.71139e-07
2.80958e-06
-5.33419e-07
2.80499e-06
-4.55079e-07
2.79886e-06
-3.76552e-07
2.7939e-06
-2.63321e-07
2.78839e-06
-1.72984e-07
2.78582e-06
-6.72913e-08
2.78366e-06
2.77059e-08
2.78586e-06
1.13376e-07
1.90603e-07
2.79084e-06
2.96926e-06
-2.41165e-07
3.00573e-06
8.65977e-07
2.99589e-06
-5.56286e-07
2.94956e-06
-1.83329e-06
2.90614e-06
-1.6052e-06
2.93831e-06
2.02195e-07
2.95279e-06
1.83854e-07
2.98041e-06
1.42558e-07
2.97698e-06
-1.85034e-07
2.97011e-06
-5.54699e-07
2.95406e-06
-6.55096e-07
2.94371e-06
-5.23069e-07
2.93868e-06
-4.50044e-07
2.93247e-06
-3.70342e-07
2.92681e-06
-2.57665e-07
2.9212e-06
-1.67368e-07
2.91821e-06
-6.43024e-08
2.91565e-06
3.02673e-08
2.91746e-06
1.11561e-07
1.85622e-07
2.92244e-06
3.11098e-06
-2.37138e-07
3.14847e-06
8.2849e-07
3.13789e-06
-5.4571e-07
3.09151e-06
-1.78691e-06
3.0466e-06
-1.56029e-06
3.07829e-06
1.7051e-07
3.09321e-06
1.68935e-07
3.12144e-06
1.14327e-07
3.11918e-06
-1.82773e-07
3.1113e-06
-5.46826e-07
3.09593e-06
-6.39719e-07
3.08458e-06
-5.11721e-07
3.07883e-06
-4.44291e-07
3.0726e-06
-3.64115e-07
3.06634e-06
-2.51402e-07
3.06065e-06
-1.61685e-07
3.05767e-06
-6.13211e-08
3.05504e-06
3.28965e-08
3.0567e-06
1.09904e-07
1.8028e-07
3.06204e-06
3.25948e-06
-2.32707e-07
3.29817e-06
7.89803e-07
3.2867e-06
-5.34248e-07
3.24001e-06
-1.74022e-06
3.19414e-06
-1.51442e-06
3.22565e-06
1.39005e-07
3.24115e-06
1.53437e-07
3.26958e-06
8.5891e-08
3.26832e-06
-1.81509e-07
3.25939e-06
-5.37898e-07
3.24459e-06
-6.24917e-07
3.23249e-06
-4.99625e-07
3.22583e-06
-4.37626e-07
3.21963e-06
-3.57915e-07
3.21289e-06
-2.44663e-07
3.20711e-06
-1.5591e-07
3.2044e-06
-5.86109e-08
3.202e-06
3.53024e-08
3.20351e-06
1.08393e-07
1.74357e-07
3.20943e-06
3.41505e-06
-2.27821e-07
3.45498e-06
7.49864e-07
3.44264e-06
-5.21902e-07
3.39547e-06
-1.69305e-06
3.34906e-06
-1.46802e-06
3.3805e-06
1.07573e-07
3.39664e-06
1.37294e-07
3.42495e-06
5.75847e-08
3.42457e-06
-1.81134e-07
3.41461e-06
-5.27941e-07
3.40031e-06
-6.10616e-07
3.38774e-06
-4.87051e-07
3.38005e-06
-4.29942e-07
3.3739e-06
-3.51758e-07
3.36685e-06
-2.37613e-07
3.36092e-06
-1.49984e-07
3.3586e-06
-5.62877e-08
3.35669e-06
3.7209e-08
3.35796e-06
1.07127e-07
1.67868e-07
3.36445e-06
3.57802e-06
-2.2243e-07
3.61913e-06
7.08751e-07
3.60602e-06
-5.08789e-07
3.55827e-06
-1.64529e-06
3.51165e-06
-1.4214e-06
3.54298e-06
7.62453e-08
3.5598e-06
1.2047e-07
3.58772e-06
2.96697e-08
3.58816e-06
-1.81577e-07
3.57727e-06
-5.17047e-07
3.5634e-06
-5.96751e-07
3.55061e-06
-4.74259e-07
3.54186e-06
-4.21196e-07
3.53573e-06
-3.4563e-07
3.52856e-06
-2.30441e-07
3.52242e-06
-1.43839e-07
3.52046e-06
-5.43296e-08
3.51928e-06
3.83837e-08
3.52027e-06
1.06137e-07
1.6111e-07
3.52703e-06
3.74878e-06
-2.16505e-07
3.79088e-06
6.6665e-07
3.77721e-06
-4.95117e-07
3.72881e-06
-1.59689e-06
3.68221e-06
-1.3748e-06
3.71332e-06
4.51271e-08
3.73084e-06
1.02952e-07
3.75817e-06
2.33585e-09
3.7594e-06
-1.82805e-07
3.74769e-06
-5.05331e-07
3.73419e-06
-5.83252e-07
3.7214e-06
-4.61466e-07
3.7116e-06
-4.11402e-07
3.70546e-06
-3.39486e-07
3.69835e-06
-2.23334e-07
3.69196e-06
-1.37445e-07
3.69025e-06
-5.26221e-08
3.68993e-06
3.86993e-08
3.69078e-06
1.0529e-07
1.54557e-07
3.69733e-06
3.92775e-06
-2.10063e-07
3.97057e-06
6.23827e-07
3.9566e-06
-4.8115e-07
3.90749e-06
-1.54778e-06
3.86106e-06
-1.32837e-06
3.89184e-06
1.43466e-08
3.91003e-06
8.47566e-08
3.93665e-06
-2.42854e-08
3.93864e-06
-1.84794e-07
3.92622e-06
-4.9291e-07
3.91303e-06
-5.70057e-07
3.90039e-06
-4.48831e-07
3.88964e-06
-4.00644e-07
3.88335e-06
-3.33202e-07
3.87651e-06
-2.16489e-07
3.86988e-06
-1.30821e-07
3.86829e-06
-5.10263e-08
3.86883e-06
3.81581e-08
3.8698e-06
1.04318e-07
1.48626e-07
3.87573e-06
4.11534e-06
-2.03154e-07
4.15859e-06
5.8058e-07
4.14462e-06
-4.67184e-07
4.09476e-06
-1.49792e-06
4.04858e-06
-1.28219e-06
4.07888e-06
-1.59593e-08
4.0977e-06
6.59356e-08
4.12352e-06
-5.01019e-08
4.12627e-06
-1.87546e-07
4.11325e-06
-4.79884e-07
4.10029e-06
-5.57102e-07
4.08794e-06
-4.3648e-07
4.07631e-06
-3.89012e-07
4.06974e-06
-3.26632e-07
4.0633e-06
-2.10047e-07
4.05653e-06
-1.24058e-07
4.0549e-06
-4.93903e-08
4.05621e-06
3.68436e-08
4.05761e-06
1.0292e-07
1.43465e-07
4.06277e-06
4.312e-06
-1.95848e-07
4.35537e-06
5.3721e-07
4.3417e-06
-4.53516e-07
4.29108e-06
-1.4473e-06
4.24519e-06
-1.23629e-06
4.27487e-06
-4.56479e-08
4.29423e-06
4.65854e-08
4.31916e-06
-7.50394e-08
4.32269e-06
-1.91077e-07
4.30915e-06
-4.66337e-07
4.29636e-06
-5.44319e-07
4.2844e-06
-4.24514e-07
4.27198e-06
-3.76594e-07
4.26498e-06
-3.1963e-07
4.25901e-06
-2.04082e-07
4.25222e-06
-1.17262e-07
4.25041e-06
-4.75807e-08
4.25237e-06
3.48834e-08
4.25449e-06
1.00799e-07
1.38966e-07
4.25899e-06
4.51814e-06
-1.88216e-07
4.56135e-06
4.94e-07
4.54825e-06
-4.40414e-07
4.49693e-06
-1.39598e-06
4.45133e-06
-1.19069e-06
4.48027e-06
-7.45962e-08
4.50002e-06
2.68431e-08
4.524e-06
-9.90228e-08
4.52833e-06
-1.95412e-07
4.51436e-06
-4.5236e-07
4.50165e-06
-5.31611e-07
4.49018e-06
-4.13046e-07
4.47704e-06
-3.63452e-07
4.46949e-06
-3.12079e-07
4.46399e-06
-1.98579e-07
4.45721e-06
-1.10485e-07
4.45518e-06
-4.55531e-08
4.45766e-06
3.24004e-08
4.46068e-06
9.77784e-08
1.34819e-07
4.46483e-06
4.73422e-06
-1.80319e-07
4.77701e-06
4.51206e-07
4.76468e-06
-4.28088e-07
4.71278e-06
-1.34407e-06
4.66747e-06
-1.14538e-06
4.69557e-06
-1.02695e-07
4.71557e-06
6.84708e-09
4.7385e-06
-1.21953e-07
4.74365e-06
-2.00565e-07
4.72935e-06
-4.38063e-07
4.7166e-06
-5.18862e-07
4.70572e-06
-4.02168e-07
4.69196e-06
-3.49693e-07
4.68373e-06
-3.03842e-07
4.6787e-06
-1.93552e-07
4.67202e-06
-1.03808e-07
4.66965e-06
-4.31821e-08
4.67257e-06
2.94883e-08
4.67652e-06
9.38266e-08
1.3066e-07
4.68068e-06
4.96068e-06
-1.72202e-07
5.00283e-06
4.09059e-07
4.9914e-06
-4.16661e-07
4.93909e-06
-1.29176e-06
4.89411e-06
-1.1004e-06
4.92128e-06
-1.29863e-07
4.9414e-06
-1.32761e-08
4.96316e-06
-1.43711e-07
4.96911e-06
-2.06513e-07
4.95463e-06
-4.23586e-07
4.9417e-06
-5.05932e-07
4.9315e-06
-3.91964e-07
4.91727e-06
-3.35461e-07
4.90822e-06
-2.94797e-07
4.90365e-06
-1.88981e-07
4.89732e-06
-9.74727e-08
4.89446e-06
-4.03265e-08
4.8976e-06
2.63457e-08
4.90241e-06
8.90223e-08
1.26186e-07
4.90688e-06
5.19802e-06
-1.63908e-07
5.23932e-06
3.67761e-07
5.22881e-06
-4.06149e-07
5.17635e-06
-1.2393e-06
5.13176e-06
-1.05581e-06
5.15793e-06
-1.56035e-07
5.17809e-06
-3.34387e-08
5.19855e-06
-1.64172e-07
5.20523e-06
-2.1319e-07
5.19073e-06
-4.09087e-07
5.17748e-06
-4.92686e-07
5.16799e-06
-3.82471e-07
5.1535e-06
-3.20969e-07
5.14358e-06
-2.84879e-07
5.13939e-06
-1.84788e-07
5.1336e-06
-9.16874e-08
5.13026e-06
-3.69853e-08
5.13334e-06
2.32634e-08
5.13883e-06
8.35384e-08
1.21142e-07
5.14387e-06
5.44676e-06
-1.55477e-07
5.48704e-06
3.27479e-07
5.47734e-06
-3.96451e-07
5.42505e-06
-1.18701e-06
5.38092e-06
-1.01168e-06
5.40602e-06
-1.81134e-07
5.42621e-06
-5.36282e-08
5.44525e-06
-1.83206e-07
5.45251e-06
-2.20456e-07
5.43817e-06
-3.94746e-07
5.42452e-06
-4.79038e-07
5.4157e-06
-3.73653e-07
5.40123e-06
-3.06499e-07
5.39038e-06
-2.74021e-07
5.38644e-06
-1.80851e-07
5.38142e-06
-8.66651e-08
5.37767e-06
-3.32401e-08
5.3804e-06
2.05369e-08
5.38636e-06
7.75713e-08
1.15386e-07
5.39212e-06
5.70743e-06
-1.46951e-07
5.74658e-06
2.88337e-07
5.73749e-06
-3.87366e-07
5.68572e-06
-1.13524e-06
5.64218e-06
-9.68139e-07
5.66608e-06
-2.05037e-07
5.68634e-06
-7.38859e-08
5.70385e-06
-2.00712e-07
5.7115e-06
-2.28112e-07
5.6975e-06
-3.80746e-07
5.68339e-06
-4.64929e-07
5.67519e-06
-3.65453e-07
5.66102e-06
-2.92326e-07
5.64923e-06
-2.62232e-07
5.64534e-06
-1.76959e-07
5.64128e-06
-8.26047e-08
5.63728e-06
-2.92392e-08
5.63941e-06
1.84019e-08
5.6456e-06
7.13798e-08
1.08865e-07
5.65212e-06
5.98062e-06
-1.38375e-07
6.01855e-06
2.50402e-07
6.00978e-06
-3.78594e-07
5.95893e-06
-1.08439e-06
5.9161e-06
-9.25313e-07
5.93865e-06
-2.27583e-07
5.95904e-06
-9.42785e-08
5.97497e-06
-2.16637e-07
5.98276e-06
-2.35907e-07
5.96927e-06
-3.67255e-07
5.95468e-06
-4.50339e-07
5.94702e-06
-3.57795e-07
5.93343e-06
-2.78733e-07
5.92077e-06
-2.4957e-07
5.91669e-06
-1.72883e-07
5.91367e-06
-7.95774e-08
5.90969e-06
-2.52662e-08
5.91106e-06
1.70323e-08
5.91717e-06
6.5269e-08
1.01655e-07
5.92438e-06
6.2669e-06
-1.2979e-07
6.30362e-06
2.1368e-07
6.29479e-06
-3.69754e-07
6.24529e-06
-1.0349e-06
6.20331e-06
-8.83331e-07
6.22429e-06
-2.48562e-07
6.24486e-06
-1.14851e-07
6.25924e-06
-2.31016e-07
6.2669e-06
-2.43567e-07
6.25405e-06
-3.54409e-07
6.23899e-06
-4.35279e-07
6.23179e-06
-3.50596e-07
6.21901e-06
-2.65949e-07
6.20563e-06
-2.36192e-07
6.20114e-06
-1.68387e-07
6.19917e-06
-7.76075e-08
6.19546e-06
-2.15614e-08
6.19606e-06
1.64362e-08
6.20172e-06
5.96024e-08
9.39276e-08
6.20945e-06
6.56692e-06
-1.21241e-07
6.60245e-06
1.78155e-07
6.59322e-06
-3.60533e-07
6.54547e-06
-9.87146e-07
6.50443e-06
-8.42288e-07
6.52355e-06
-2.67689e-07
6.54432e-06
-1.35617e-07
6.55729e-06
-2.4399e-07
6.56458e-06
-2.50847e-07
6.55243e-06
-3.42264e-07
6.53695e-06
-4.19796e-07
6.5301e-06
-3.43749e-07
6.51833e-06
-2.54177e-07
6.50445e-06
-2.22315e-07
6.49936e-06
-1.63293e-07
6.49833e-06
-7.65796e-08
6.49519e-06
-1.84253e-08
6.49509e-06
1.65333e-08
6.50005e-06
5.46438e-08
8.60552e-08
6.50793e-06
6.88133e-06
-1.12783e-07
6.91566e-06
1.43832e-07
6.90606e-06
-3.50942e-07
6.86011e-06
-9.41193e-07
6.82019e-06
-8.02367e-07
6.83712e-06
-2.84615e-07
6.85794e-06
-1.56439e-07
6.86976e-06
-2.55815e-07
6.87648e-06
-2.57567e-07
6.86505e-06
-3.30835e-07
6.84918e-06
-4.03919e-07
6.84255e-06
-3.3712e-07
6.83197e-06
-2.43601e-07
6.81785e-06
-2.0819e-07
6.81198e-06
-1.57422e-07
6.81171e-06
-7.63131e-08
6.80948e-06
-1.61952e-08
6.80881e-06
1.72008e-08
6.81298e-06
5.04736e-08
7.84901e-08
6.82055e-06
7.21085e-06
-1.045e-07
7.24388e-06
1.1081e-07
7.23417e-06
-3.41233e-07
7.18958e-06
-8.96612e-07
7.15128e-06
-7.64065e-07
7.16583e-06
-2.99163e-07
7.18632e-06
-1.76925e-07
7.19727e-06
-2.66765e-07
7.20334e-06
-2.63642e-07
7.19259e-06
-3.20086e-07
7.17637e-06
-3.87692e-07
7.16977e-06
-3.30525e-07
7.16051e-06
-2.34337e-07
7.14646e-06
-1.94147e-07
7.13965e-06
-1.50612e-07
7.13998e-06
-7.66424e-08
7.13885e-06
-1.50666e-08
7.13787e-06
1.81888e-08
7.14125e-06
4.70903e-08
7.16014e-08
7.14814e-06
7.55622e-06
-9.6498e-08
7.58774e-06
7.92922e-08
7.57835e-06
-3.31842e-07
7.5344e-06
-8.52663e-07
7.49835e-06
-7.28015e-07
7.51057e-06
-3.11377e-07
7.53016e-06
-1.96514e-07
7.54043e-06
-2.77041e-07
7.54584e-06
-2.69055e-07
7.53577e-06
-3.10016e-07
7.51925e-06
-3.71164e-07
7.5124e-06
-3.23679e-07
7.50448e-06
-2.26417e-07
7.49089e-06
-1.80556e-07
7.48314e-06
-1.42866e-07
7.48374e-06
-7.72328e-08
7.48389e-06
-1.5226e-08
7.48287e-06
1.92147e-08
7.48555e-06
4.44058e-08
6.55768e-08
7.49158e-06
7.91822e-06
-8.89036e-08
7.94794e-06
4.95684e-08
7.9394e-06
-3.23305e-07
7.89543e-06
-8.08686e-07
7.86192e-06
-6.94511e-07
7.87219e-06
-3.21644e-07
7.89028e-06
-2.14607e-07
7.89987e-06
-2.8663e-07
7.90473e-06
-2.73912e-07
7.89528e-06
-3.00566e-07
7.87853e-06
-3.54417e-07
7.87112e-06
-3.16272e-07
7.86443e-06
-2.19724e-07
7.8517e-06
-1.67823e-07
7.84321e-06
-1.34376e-07
7.84361e-06
-7.76339e-08
7.84514e-06
-1.67546e-08
7.84445e-06
1.9897e-08
7.84653e-06
4.233e-08
6.03724e-08
7.85173e-06
8.29764e-06
-8.18633e-08
8.3252e-06
2.20108e-08
8.31805e-06
-3.16155e-07
8.27362e-06
-7.64257e-07
8.24257e-06
-6.63458e-07
8.25146e-06
-3.30542e-07
8.2676e-06
-2.30744e-07
8.27623e-06
-2.95257e-07
8.28061e-06
-2.78295e-07
8.27179e-06
-2.91742e-07
8.25489e-06
-3.37523e-07
8.24665e-06
-3.08029e-07
8.24091e-06
-2.13986e-07
8.22947e-06
-1.5638e-07
8.22057e-06
-1.25473e-07
8.22035e-06
-7.74172e-08
8.22316e-06
-1.95653e-08
8.22328e-06
1.97771e-08
8.22483e-06
4.07798e-08
5.58056e-08
8.2294e-06
8.69534e-06
-7.55392e-08
8.72028e-06
-2.92677e-09
8.71492e-06
-3.10803e-07
8.67005e-06
-7.19382e-07
8.6409e-06
-6.34307e-07
8.64907e-06
-3.38714e-07
8.66295e-06
-2.44622e-07
8.67028e-06
-3.02587e-07
8.67408e-06
-2.82094e-07
8.66589e-06
-2.83558e-07
8.64901e-06
-3.20642e-07
8.63966e-06
-2.98678e-07
8.63468e-06
-2.0901e-07
8.62487e-06
-1.46564e-07
8.616e-06
-1.16607e-07
8.61492e-06
-7.63345e-08
8.61858e-06
-2.32305e-08
8.61999e-06
1.83731e-08
8.6212e-06
3.95717e-08
5.17391e-08
8.62526e-06
9.11216e-06
-7.00793e-08
9.13403e-06
-2.48021e-08
9.13067e-06
-3.07436e-07
9.08583e-06
-6.74544e-07
9.05764e-06
-6.06115e-07
9.06553e-06
-3.46609e-07
9.07731e-06
-2.56397e-07
9.08281e-06
-3.08085e-07
9.08574e-06
-2.85024e-07
9.07821e-06
-2.76037e-07
9.06165e-06
-3.04077e-07
9.05108e-06
-2.88104e-07
9.04667e-06
-2.04603e-07
9.0387e-06
-1.38599e-07
9.03033e-06
-1.08235e-07
9.02837e-06
-7.43687e-08
9.03226e-06
-2.71257e-08
9.03523e-06
1.54022e-08
9.03646e-06
3.83395e-08
4.81686e-08
9.04003e-06
9.54898e-06
-6.56019e-08
9.56756e-06
-4.33777e-08
9.56597e-06
-3.05852e-07
9.52234e-06
-6.30906e-07
9.49371e-06
-5.77486e-07
9.50139e-06
-3.54291e-07
9.51149e-06
-2.66501e-07
9.51468e-06
-3.11275e-07
9.51641e-06
-2.86752e-07
9.5098e-06
-2.69429e-07
9.49388e-06
-2.88153e-07
9.48225e-06
-2.76474e-07
9.4781e-06
-2.00452e-07
9.47194e-06
-1.32443e-07
9.46439e-06
-1.00685e-07
9.46178e-06
-7.17592e-08
9.4653e-06
-3.06423e-08
9.46971e-06
1.09954e-08
9.47149e-06
3.65564e-08
4.51236e-08
9.47453e-06
1.00067e-05
-6.21863e-08
1.0022e-05
-5.86331e-08
1.00217e-05
-3.05549e-07
9.98066e-06
-5.89898e-07
9.95054e-06
-5.47362e-07
9.95735e-06
-3.61107e-07
9.96628e-06
-2.75423e-07
9.96698e-06
-3.11975e-07
9.96743e-06
-2.87205e-07
9.96175e-06
-2.63751e-07
9.94688e-06
-2.73279e-07
9.93469e-06
-2.64281e-07
9.93031e-06
-1.9608e-07
9.92571e-06
-1.27843e-07
9.91917e-06
-9.41422e-08
9.91621e-06
-6.87986e-08
9.91896e-06
-3.33917e-08
9.9243e-06
5.65782e-09
9.92713e-06
3.37263e-08
4.25335e-08
9.92972e-06
1.04863e-05
-5.98633e-08
1.04984e-05
-7.07492e-08
1.04987e-05
-3.05824e-07
1.04615e-05
-5.52714e-07
1.04296e-05
-5.15477e-07
1.04347e-05
-3.66163e-07
1.04431e-05
-2.83825e-07
1.04415e-05
-3.10404e-07
1.04401e-05
-2.85773e-07
1.04352e-05
-2.58903e-07
1.04219e-05
-2.59954e-07
1.04094e-05
-2.5178e-07
1.04047e-05
-1.91331e-07
1.04012e-05
-1.24359e-07
1.03957e-05
-8.86556e-08
1.03926e-05
-6.57437e-08
1.03945e-05
-3.52559e-08
1.04001e-05
3.47951e-11
1.04042e-05
2.96438e-08
4.01018e-08
1.04066e-05
1.09888e-05
-5.85981e-08
1.09981e-05
-8.00537e-08
1.09982e-05
-3.05953e-07
1.09655e-05
-5.20063e-07
1.09324e-05
-4.82338e-07
1.09348e-05
-3.68592e-07
1.09433e-05
-2.92328e-07
1.09402e-05
-3.07237e-07
1.09361e-05
-2.81729e-07
1.09316e-05
-2.54382e-07
1.09199e-05
-2.48253e-07
1.09077e-05
-2.39565e-07
1.09024e-05
-1.86009e-07
1.08996e-05
-1.21648e-07
1.08951e-05
-8.40925e-08
1.08921e-05
-6.27589e-08
1.08932e-05
-3.6324e-08
1.08985e-05
-5.28774e-09
1.09037e-05
2.44045e-08
3.7392e-08
1.09064e-05
1.1515e-05
-5.82793e-08
1.1522e-05
-8.69865e-08
1.15213e-05
-3.05264e-07
1.14935e-05
-4.92239e-07
1.14601e-05
-4.48924e-07
1.14589e-05
-3.67442e-07
1.14674e-05
-3.00829e-07
1.14642e-05
-3.0403e-07
1.14575e-05
-2.75063e-07
1.14521e-05
-2.48948e-07
1.14417e-05
-2.37884e-07
1.14303e-05
-2.28126e-07
1.14245e-05
-1.80262e-07
1.14223e-05
-1.19364e-07
1.14185e-05
-8.03502e-08
1.14157e-05
-5.9921e-08
1.14161e-05
-3.67458e-08
1.14207e-05
-9.92054e-09
1.14267e-05
1.84231e-08
3.3972e-08
1.14301e-05
1.20663e-05
-5.87253e-08
1.20713e-05
-9.20361e-08
1.20692e-05
-3.03197e-07
1.20461e-05
-4.69104e-07
1.20138e-05
-4.16658e-07
1.20083e-05
-3.61866e-07
1.20159e-05
-3.08435e-07
1.20142e-05
-3.02356e-07
1.20056e-05
-2.66408e-07
1.19983e-05
-2.41655e-07
1.19887e-05
-2.28278e-07
1.19781e-05
-2.17588e-07
1.19722e-05
-1.74379e-07
1.19702e-05
-1.17335e-07
1.19671e-05
-7.72906e-08
1.19646e-05
-5.73294e-08
1.19646e-05
-3.675e-08
1.19682e-05
-1.35772e-08
1.19744e-05
1.22507e-08
2.95779e-08
1.19788e-05
1.26435e-05
-5.96754e-08
1.26473e-05
-9.57908e-08
1.26433e-05
-2.99174e-07
1.26244e-05
-4.50207e-07
1.25948e-05
-3.8712e-07
1.25845e-05
-3.51574e-07
1.25898e-05
-3.13715e-07
1.25905e-05
-3.02981e-07
1.25811e-05
-2.57031e-07
1.25716e-05
-2.32195e-07
1.2562e-05
-2.18646e-07
1.25523e-05
-2.07895e-07
1.25465e-05
-1.68595e-07
1.25447e-05
-1.15553e-07
1.25423e-05
-7.4855e-08
1.25399e-05
-5.49324e-08
1.25397e-05
-3.65127e-08
1.25424e-05
-1.63103e-08
1.25481e-05
6.50756e-09
2.42845e-08
1.25534e-05
1.32481e-05
-6.08073e-08
1.32512e-05
-9.89246e-08
1.32447e-05
-2.92691e-07
1.32294e-05
-4.34913e-07
1.32038e-05
-3.61491e-07
1.31893e-05
-3.37095e-07
1.31906e-05
-3.15007e-07
1.31931e-05
-3.05474e-07
1.31848e-05
-2.48777e-07
1.31736e-05
-2.20984e-07
1.31633e-05
-2.08268e-07
1.31541e-05
-1.98736e-07
1.31484e-05
-1.62947e-07
1.31469e-05
-1.1402e-07
1.31451e-05
-7.30808e-08
1.3143e-05
-5.27446e-08
1.31426e-05
-3.61806e-08
1.31446e-05
-1.83111e-08
1.31495e-05
1.59608e-09
1.85515e-08
1.31553e-05
1.38811e-05
-6.17365e-08
1.38843e-05
-1.02152e-07
1.38751e-05
-2.83484e-07
1.38627e-05
-4.22452e-07
1.38414e-05
-3.40251e-07
1.38239e-05
-3.19601e-07
1.38196e-05
-3.10736e-07
1.38224e-05
-3.0825e-07
1.38172e-05
-2.43559e-07
1.38056e-05
-2.09364e-07
1.37941e-05
-1.96733e-07
1.3785e-05
-1.89644e-07
1.37794e-05
-1.57376e-07
1.37781e-05
-1.12714e-07
1.3777e-05
-7.20099e-08
1.37751e-05
-5.08445e-08
1.37746e-05
-3.56634e-08
1.37762e-05
-1.99238e-08
1.37802e-05
-2.35257e-09
1.29936e-08
1.37857e-05
1.45441e-05
-6.21391e-08
1.45475e-05
-1.05616e-07
1.45358e-05
-2.7176e-07
1.45256e-05
-4.12214e-07
1.45083e-05
-3.22979e-07
1.44891e-05
-3.00401e-07
1.44791e-05
-3.00741e-07
1.44799e-05
-3.09024e-07
1.44786e-05
-2.42324e-07
1.44685e-05
-1.99254e-07
1.4456e-05
-1.84181e-07
1.44464e-05
-1.80029e-07
1.44407e-05
-1.517e-07
1.44394e-05
-1.11462e-07
1.44391e-05
-7.16843e-08
1.44377e-05
-4.94547e-08
1.4437e-05
-3.49103e-08
1.44384e-05
-2.1328e-08
1.44415e-05
-5.49624e-09
8.05609e-09
1.44465e-05
1.52385e-05
-6.17872e-08
1.52423e-05
-1.09395e-07
1.52296e-05
-2.59073e-07
1.52197e-05
-4.02256e-07
1.52048e-05
-3.0812e-07
1.51856e-05
-2.81202e-07
1.51716e-05
-2.8678e-07
1.51685e-05
-3.05847e-07
1.51701e-05
-2.43941e-07
1.51632e-05
-1.92334e-07
1.51505e-05
-1.71504e-07
1.514e-05
-1.6957e-07
1.51339e-05
-1.4559e-07
1.51325e-05
-1.10057e-07
1.51328e-05
-7.19446e-08
1.51321e-05
-4.87705e-08
1.51313e-05
-3.41098e-08
1.51323e-05
-2.2301e-08
1.5135e-05
-8.22697e-09
3.93225e-09
1.51391e-05
1.59661e-05
-6.05691e-08
1.59777e-05
-1.21029e-07
1.59609e-05
-2.42263e-07
1.59446e-05
-3.85957e-07
1.59325e-05
-2.95972e-07
1.59157e-05
-2.64456e-07
1.58994e-05
-2.70441e-07
1.58917e-05
-2.98162e-07
1.58933e-05
-2.45487e-07
1.58902e-05
-1.89263e-07
1.58787e-05
-1.60032e-07
1.58675e-05
-1.58382e-07
1.58607e-05
-1.38794e-07
1.58589e-05
-1.08227e-07
1.58595e-05
-7.2505e-08
1.58595e-05
-4.88121e-08
1.5859e-05
-3.3626e-08
1.58595e-05
-2.27889e-08
1.58619e-05
-1.06426e-08
4.76702e-10
1.58654e-05
1.67277e-05
-5.77098e-08
1.67279e-05
-1.2114e-07
1.67109e-05
-2.25262e-07
1.66979e-05
-3.73008e-07
1.66934e-05
-2.91441e-07
1.66806e-05
-2.51672e-07
1.66633e-05
-2.53177e-07
1.66517e-05
-2.86534e-07
1.66507e-05
-2.44533e-07
1.66508e-05
-1.89356e-07
1.66418e-05
-1.5102e-07
1.66305e-05
-1.47038e-07
1.66229e-05
-1.31192e-07
1.66204e-05
-1.05739e-07
1.66209e-05
-7.30234e-08
1.66215e-05
-4.93888e-08
1.66216e-05
-3.36907e-08
1.66218e-05
-2.30426e-08
1.66237e-05
-1.25652e-08
-2.54436e-09
1.66267e-05
1.75267e-05
-5.40492e-08
1.75333e-05
-1.27764e-07
1.75137e-05
-2.05625e-07
1.74927e-05
-3.52023e-07
1.74892e-05
-2.87985e-07
1.7481e-05
-2.43435e-07
1.74643e-05
-2.36461e-07
1.74499e-05
-2.72093e-07
1.74452e-05
-2.39889e-07
1.74465e-05
-1.90618e-07
1.74407e-05
-1.4522e-07
1.74301e-05
-1.36466e-07
1.74219e-05
-1.22947e-07
1.74185e-05
-1.02368e-07
1.74188e-05
-7.33049e-08
1.74196e-05
-5.02593e-08
1.74202e-05
-3.42119e-08
1.74206e-05
-2.35035e-08
1.7422e-05
-1.39275e-08
-5.21864e-09
1.74247e-05
1.8364e-05
-4.96816e-08
1.83668e-05
-1.30598e-07
1.83509e-05
-1.89674e-07
1.83282e-05
-3.29362e-07
1.83229e-05
-2.82682e-07
1.83184e-05