/*--------------------------------*- C++ -*----------------------------------*\
| =========                 |                                                 |
| \\      /  F ield         | OpenFOAM: The Open Source CFD Toolbox           |
|  \\    /   O peration     | Version:  v1906                                 |
|   \\  /    A nd           | Web:      www.OpenFOAM.com                      |
|    \\/     M anipulation  |                                                 |
\*---------------------------------------------------------------------------*/
FoamFile
{
    version     2.0;
    format      ascii;
    class       volScalarField;
    location    "5.4";
    object      p;
}
// * * * * * * * * * * * * * * * * * * * * * * * * * * * * * * * * * * * * * //

dimensions      [0 2 -2 0 0 0 0];


internalField   nonuniform List<scalar> 
9600
(
-2.21912e-11
-0.00101762
0.00172069
0.00541849
-0.00689021
-0.00445547
0.00230025
-0.00107088
-0.00143119
-0.000974817
-0.00271682
-0.00292914
-0.00417975
-0.00416887
-0.00486186
-0.00636981
-0.00694296
-0.00648612
-0.00698788
-0.00630565
4.31656e-06
-0.0010047
0.0017051
0.00536589
-0.00684207
-0.00443587
0.0022776
-0.00105377
-0.0014525
-0.000977917
-0.00269437
-0.00293121
-0.00417241
-0.00419465
-0.00485595
-0.00637529
-0.00692519
-0.00649555
-0.00696749
-0.00638163
1.04433e-05
-0.000989845
0.00167843
0.0052987
-0.00676931
-0.00441689
0.00226228
-0.00102587
-0.00147965
-0.000982559
-0.00267376
-0.00294548
-0.00416727
-0.00423402
-0.00484017
-0.00637905
-0.00689102
-0.00652237
-0.00694823
-0.00648897
1.65958e-05
-0.000975108
0.00164579
0.00521715
-0.00670708
-0.00437449
0.00225696
-0.000999979
-0.00151298
-0.00099354
-0.00265231
-0.00297386
-0.00416649
-0.00427327
-0.00482568
-0.00637003
-0.00686008
-0.00655831
-0.00694068
-0.00660797
2.30644e-05
-0.000960366
0.00160617
0.00511671
-0.00664939
-0.00429563
0.00225077
-0.000978014
-0.00155401
-0.00100966
-0.00262558
-0.00301428
-0.00416596
-0.00431303
-0.00481267
-0.00635199
-0.00683581
-0.00659259
-0.00694912
-0.00672742
3.02721e-05
-0.000946658
0.00156062
0.00499699
-0.00658063
-0.00418893
0.00223262
-0.000959879
-0.00160605
-0.00102822
-0.00259303
-0.0030622
-0.00416359
-0.0043548
-0.00479727
-0.00633165
-0.00681348
-0.00662143
-0.00697583
-0.00683649
3.81076e-05
-0.000934516
0.00151155
0.00486169
-0.00649331
-0.00407109
0.00219505
-0.000945554
-0.0016655
-0.00104841
-0.0025568
-0.00311169
-0.00415814
-0.00439696
-0.00477964
-0.00631124
-0.00679123
-0.00664724
-0.00701566
-0.00693016
4.61944e-05
-0.000924317
0.0014616
0.00471699
-0.00638519
-0.00395652
0.00213726
-0.000934391
-0.00172918
-0.00107041
-0.00251871
-0.00315856
-0.00414907
-0.00443878
-0.0047613
-0.00629013
-0.0067725
-0.00666937
-0.00706257
-0.00701398
5.41812e-05
-0.000914909
0.00141261
0.00456684
-0.00625674
-0.00385268
0.00206388
-0.000925675
-0.00179509
-0.00109423
-0.00247947
-0.00320182
-0.00413756
-0.00448043
-0.00474224
-0.00626815
-0.00676011
-0.00668517
-0.00711615
-0.00709605
6.19534e-05
-0.000905205
0.00136503
0.00441391
-0.0061131
-0.00376035
0.00198148
-0.000919251
-0.00186237
-0.00111964
-0.00243957
-0.00324258
-0.00412543
-0.00452134
-0.00472275
-0.00624541
-0.00675481
-0.00669461
-0.00717846
-0.00718038
6.96587e-05
-0.000894459
0.00131829
0.00425915
-0.00596283
-0.00367716
0.00189505
-0.000915241
-0.00193068
-0.00114639
-0.00239955
-0.00328255
-0.00411418
-0.00456065
-0.00470417
-0.00622119
-0.00675721
-0.00669968
-0.00724861
-0.00726841
7.75676e-05
-0.000882545
0.00127152
0.00410261
-0.00580945
-0.00360048
0.00180739
-0.000913713
-0.00199995
-0.00117433
-0.00235976
-0.00332323
-0.0041049
-0.00459766
-0.00468797
-0.00619426
-0.00676824
-0.0067022
-0.00732303
-0.00736247
8.59101e-05
-0.000869858
0.00122394
0.00394407
-0.00565551
-0.00352838
0.00171994
-0.000914625
-0.00207027
-0.00120338
-0.00232037
-0.00336577
-0.00409843
-0.00463167
-0.00467548
-0.00616347
-0.00678822
-0.00670402
-0.00739783
-0.00746528
9.48054e-05
-0.000857021
0.00117513
0.00378336
-0.00550234
-0.00345956
0.00163339
-0.000917866
-0.00214172
-0.00123349
-0.00228148
-0.00341083
-0.00409532
-0.004662
-0.00466775
-0.00612803
-0.00681674
-0.00670783
-0.00746943
-0.00757811
0.000104278
-0.000844631
0.00112491
0.00362048
-0.00535014
-0.00339314
0.00154801
-0.000923245
-0.00221441
-0.00126471
-0.002243
-0.00345845
-0.00409607
-0.00468809
-0.0046654
-0.00608797
-0.00685278
-0.00671671
-0.00753466
-0.00770043
0.000114294
-0.000833136
0.00107329
0.00345554
-0.0051987
-0.00332851
0.00146387
-0.000930525
-0.0022885
-0.00129719
-0.00220479
-0.00350815
-0.00410103
-0.00470943
-0.00466869
-0.00604426
-0.00689472
-0.00673337
-0.00759079
-0.00783044
0.000124789
-0.000822818
0.00102033
0.00328872
-0.00504775
-0.00326521
0.00138097
-0.00093944
-0.00236411
-0.00133102
-0.00216677
-0.00355916
-0.00411032
-0.00472573
-0.00467758
-0.00599823
-0.0069407
-0.00675992
-0.00763571
-0.00796557
0.000135682
-0.00081381
0.00096611
0.00312031
-0.00489716
-0.00320289
0.00129918
-0.000949599
-0.00244132
-0.0013664
-0.00212887
-0.00361063
-0.00412409
-0.00473709
-0.00469145
-0.00595106
-0.00698922
-0.00679787
-0.00766784
-0.00810234
0.000146882
-0.000806133
0.000910696
0.00295061
-0.00474695
-0.00314127
0.00121832
-0.000960525
-0.00252022
-0.0014036
-0.00209096
-0.00366187
-0.00414242
-0.00474379
-0.00470932
-0.00590382
-0.00703918
-0.00684795
-0.00768613
-0.00823605
0.000158287
-0.000799725
0.000854105
0.00278001
-0.00459735
-0.00308019
0.00113819
-0.000971793
-0.00260087
-0.00144293
-0.00205285
-0.0037124
-0.00416527
-0.0047462
-0.00473061
-0.00585756
-0.00708903
-0.00691064
-0.00769037
-0.00836089
0.000169782
-0.000794444
0.000796309
0.00260889
-0.00444874
-0.00301958
0.00105857
-0.000982999
-0.00268322
-0.00148492
-0.00201422
-0.00376186
-0.00419263
-0.00474461
-0.00475533
-0.00581268
-0.00713675
-0.00698724
-0.00768152
-0.00846982
0.000181205
-0.000790089
0.000737241
0.00243764
-0.00430162
-0.0029594
0.000979177
-0.000993732
-0.00276705
-0.00153032
-0.00197443
-0.00381023
-0.00422472
-0.00473889
-0.00478378
-0.00576956
-0.00718022
-0.00707963
-0.00766208
-0.00855466
0.000192362
-0.000786411
0.000676775
0.00226668
-0.00415653
-0.0028996
0.000899731
-0.00100369
-0.00285205
-0.00157999
-0.00193275
-0.0038576
-0.00426189
-0.00472847
-0.00481653
-0.00572952
-0.00721646
-0.00718872
-0.00763727
-0.0086071
0.000203026
-0.000783108
0.000614726
0.00209637
-0.00401405
-0.00284017
0.000819954
-0.00101271
-0.0029376
-0.00163502
-0.00188853
-0.00390359
-0.00430502
-0.00471287
-0.0048538
-0.00569472
-0.00724114
-0.00731353
-0.00761555
-0.00862007
0.00021291
-0.000779813
0.000550879
0.00192711
-0.00387468
-0.00278109
0.000739596
-0.00102076
-0.0030228
-0.00169687
-0.00184135
-0.00394717
-0.00435553
-0.00469152
-0.0048948
-0.00566828
-0.00724996
-0.00745037
-0.00760806
-0.00858985
0.000221699
-0.000776131
0.000484993
0.00175926
-0.0037389
-0.00272246
0.000658495
-0.00102794
-0.00310648
-0.0017669
-0.00179144
-0.0039871
-0.0044148
-0.00466387
-0.00493771
-0.00565442
-0.00724008
-0.00759174
-0.0076268
-0.00852057
0.000229037
-0.000771621
0.000416819
0.00159316
-0.00360707
-0.00266437
0.000576606
-0.00103456
-0.00318741
-0.00184596
-0.00173942
-0.00402189
-0.00448403
-0.00463016
-0.00497963
-0.00565742
-0.00721159
-0.00772705
-0.00768133
-0.00842704
0.000234504
-0.000765782
0.000346169
0.00142898
-0.00347943
-0.00260699
0.000494042
-0.00104115
-0.00326435
-0.00193456
-0.00168647
-0.00404943
-0.00456439
-0.00459179
-0.00501627
-0.00568063
-0.00716892
-0.00784403
-0.00777369
-0.00833087
0.000237642
-0.000758073
0.000272866
0.00126695
-0.00335621
-0.00255069
0.000411241
-0.00104831
-0.00333632
-0.00203313
-0.00163404
-0.00406704
-0.0046569
-0.00455136
-0.00504251
-0.00572619
-0.00712044
-0.00793056
-0.007895
-0.00825779
0.000237951
-0.000747943
0.000196784
0.00110727
-0.00323755
-0.00249613
0.000328971
-0.00105669
-0.00340281
-0.00214164
-0.00158369
-0.00407215
-0.00476213
-0.00451254
-0.00505325
-0.0057937
-0.00707628
-0.00797762
-0.00802735
-0.00823078
0.000234903
-0.00073487
0.000117951
0.000949982
-0.00312334
-0.00244408
0.00024806
-0.00106652
-0.00346352
-0.00225964
-0.00153759
-0.00406302
-0.00487988
-0.00447977
-0.0050434
-0.00587916
-0.00704734
-0.00798382
-0.00814995
-0.0082581
0.000227958
-0.000718289
3.64913e-05
0.000794903
-0.00301319
-0.00239553
0.000169197
-0.00107762
-0.00351861
-0.00238617
-0.00149803
-0.00403853
-0.00500908
-0.00445857
-0.00500884
-0.00597508
-0.00704404
-0.00795662
-0.00824149
-0.00832691
0.00021651
-0.000697669
-4.73015e-05
0.000641769
-0.00290661
-0.00235173
9.2652e-05
-0.0010895
-0.00356851
-0.00252014
-0.00146688
-0.00399749
-0.00514757
-0.00445557
-0.00494785
-0.00607145
-0.00707386
-0.00790973
-0.0082867
-0.0084104
0.000199995
-0.000672689
-0.000132886
0.000490211
-0.00280283
-0.00231384
1.78894e-05
-0.00110114
-0.00361353
-0.00266077
-0.00144588
-0.00393894
-0.00529246
-0.00447734
-0.00486116
-0.00615714
-0.00713962
-0.00785732
-0.00828221
-0.00848223
0.000177914
-0.000643261
-0.000219376
0.000339597
-0.00270087
-0.00228248
-5.61301e-05
-0.00111125
-0.00365341
-0.00280746
-0.00143737
-0.00386247
-0.00543996
-0.00452977
-0.00475196
-0.00622015
-0.00724065
-0.00781247
-0.00823287
-0.00852184
0.00014976
-0.000609498
-0.00030545
0.000189175
-0.00259992
-0.00225758
-0.000131086
-0.0011186
-0.00368704
-0.00296028
-0.0014443
-0.00376804
-0.00558422
-0.00461832
-0.00462784
-0.00624709
-0.00737283
-0.00778947
-0.00814573
-0.00851711
0.000115132
-0.000571948
-0.000389165
3.80434e-05
-0.00249992
-0.00223838
-0.000209353
-0.00112262
-0.00371285
-0.00311935
-0.00147026
-0.00365644
-0.00571683
-0.00474726
-0.00450214
-0.00622428
-0.00752473
-0.00780556
-0.00803138
-0.0084599
7.37673e-05
-0.000531726
-0.000467887
-0.000114671
-0.00240163
-0.00222315
-0.000293601
-0.00112359
-0.0037285
-0.00328373
-0.00151932
-0.00353014
-0.00582833
-0.00491701
-0.00439147
-0.00614251
-0.00767552
-0.00787609
-0.00790813
-0.00834343
2.55061e-05
-0.000490268
-0.000538402
-0.000269706
-0.002307
-0.00220914
-0.000386401
-0.00112298
-0.00373093
-0.00345132
-0.00159528
-0.00339365
-0.00590909
-0.00512268
-0.00431323
-0.00600351
-0.0078006
-0.00800445
-0.00780292
-0.00816858
-3.38776e-05
-0.000449284
-0.000597145
-0.000427721
-0.00221943
-0.0021924
-0.000489268
-0.00112329
-0.00371702
-0.00361882
-0.00170181
-0.00325356
-0.0059504
-0.00535446
-0.00428348
-0.00582056
-0.00787531
-0.00817686
-0.00774538
-0.0079531
-9.47858e-05
-0.000410884
-0.000640961
-0.000588459
-0.00214295
-0.00216918
-0.000601669
-0.00112817
-0.00368476
-0.00378201
-0.00184214
-0.00311874
-0.00594542
-0.00559854
-0.00431462
-0.0056141
-0.0078803
-0.00836746
-0.00775598
-0.00772853
-0.000161294
-0.000377167
-0.000668028
-0.000750561
-0.0020821
-0.00213709
-0.000721038
-0.00114246
-0.00363476
-0.0039353
-0.00201668
-0.00299944
-0.00589139
-0.00583916
-0.00441234
-0.00540684
-0.00780657
-0.00854846
-0.00783726
-0.00753108
-0.000232383
-0.000350371
-0.00067794
-0.00091098
-0.00204155
-0.00209543
-0.000842653
-0.00117161
-0.00357077
-0.00407114
-0.00222107
-0.00290663
-0.00579227
-0.00606034
-0.0045733
-0.00522179
-0.00765536
-0.00869322
-0.00797796
-0.00739062
-0.000306637
-0.000332558
-0.000671465
-0.00106495
-0.00202525
-0.00204631
-0.000960148
-0.00121924
-0.00349778
-0.00418229
-0.00244757
-0.00285025
-0.00565815
-0.00624709
-0.0047858
-0.00508058
-0.00743812
-0.00877702
-0.00816033
-0.00732466
-0.000382628
-0.000325372
-0.000651148
-0.00120661
-0.00203533
-0.00199402
-0.00106614
-0.00128632
-0.00342296
-0.0042642
-0.00268676
-0.00283633
-0.0055019
-0.00638873
-0.00503266
-0.00499975
-0.00717687
-0.00877885
-0.00835913
-0.00734127
-0.000458799
-0.0003304
-0.000620501
-0.00133002
-0.00207196
-0.00194494
-0.00115348
-0.00137046
-0.0033569
-0.00431752
-0.00292618
-0.00286429
-0.00533671
-0.00648164
-0.00529545
-0.00498478
-0.00689851
-0.00868908
-0.00854184
-0.00743972
-0.000533457
-0.000349008
-0.000583501
-0.0014298
-0.00213328
-0.00190806
-0.00121786
-0.00146569
-0.00331018
-0.00434754
-0.0031527
-0.00292835
-0.00517395
-0.00652804
-0.00555772
-0.00502993
-0.00662934
-0.00851659
-0.00867577
-0.00760416
-0.000604927
-0.000381937
-0.000545277
-0.00150085
-0.00221524
-0.00189426
-0.00126069
-0.00156157
-0.00328759
-0.00436166
-0.00335768
-0.00301991
-0.00502234
-0.00653168
-0.0058057
-0.00512586
-0.00638996
-0.00828324
-0.00873688
-0.0077996
-0.000671668
-0.000428926
-0.000511889
-0.00154021
-0.00231153
-0.00191279
-0.00128768
-0.00164552
-0.00328629
-0.00437093
-0.0035403
-0.00312821
-0.00488638
-0.00649568
-0.00602759
-0.00526441
-0.0061954
-0.00801333
-0.00871686
-0.00798399
-0.000732388
-0.000489354
-0.000489056
-0.00154858
-0.00241351
-0.00196841
-0.0013073
-0.00170785
-0.0032993
-0.00438551
-0.00370432
-0.00324365
-0.00476572
-0.00642501
-0.00621574
-0.00543627
-0.00605514
-0.00772794
-0.00862158
-0.00812299
-0.000786333
-0.000561685
-0.000481698
-0.0015286
-0.00250995
-0.00206187
-0.00133299
-0.00174477
-0.00331555
-0.00440922
-0.00385583
-0.00336214
-0.00465825
-0.00632565
-0.00636594
-0.00562859
-0.0059719
-0.00744522
-0.00846463
-0.0081992
-0.000833433
-0.00064249
-0.000493682
-0.00148596
-0.00258856
-0.0021888
-0.00138135
-0.00176031
-0.00332075
-0.00443818
-0.00400145
-0.00348444
-0.00456445
-0.00620193
-0.00647419
-0.00582818
-0.00594402
-0.00718128
-0.00826102
-0.00821005
-0.000874061
-0.000727546
-0.000527348
-0.00142981
-0.00263998
-0.00234189
-0.00146613
-0.00176275
-0.0033031
-0.00446545
-0.00414457
-0.00361243
-0.00448693
-0.00605869
-0.00653616
-0.00602263
-0.00596802
-0.00695012
-0.00802409
-0.00815997
-0.000908895
-0.000813059
-0.000583733
-0.00137015
-0.00265878
-0.00251018
-0.00159483
-0.0017647
-0.00325762
-0.0044801
-0.00428382
-0.00374836
-0.00442819
-0.00590385
-0.00655031
-0.00619737
-0.00603593
-0.00676466
-0.00776781
-0.0080544
-0.00093816
-0.000895276
-0.000662252
-0.00131794
-0.0026436
-0.0026787
-0.00176757
-0.00178283
-0.00318749
-0.00446956
-0.00441343
-0.00389373
-0.00439061
-0.00574471
-0.00652074
-0.00633927
-0.00613233
-0.00663406
-0.00751085
-0.00789821
-0.000963638
-0.000971107
-0.000760566
-0.00128393
-0.00259805
-0.0028301
-0.00197793
-0.00183346
-0.00310054
-0.0044274
-0.00452457
-0.00404586
-0.00437728
-0.00558675
-0.00645354
-0.00644284
-0.00623917
-0.00655749
-0.00727488
-0.00770118
-0.000987169
-0.0010386
-0.000874407
-0.00127591
-0.0025299
-0.00295051
-0.00221361
-0.00192626
-0.00301025
-0.00435418
-0.00460866
-0.00419808
-0.00439042
-0.00543739
-0.00635284
-0.0065069
-0.00634351
-0.00652455
-0.00707718
-0.00748278
-0.00101073
-0.00109809
-0.000997533
-0.00129635
-0.00245209
-0.00303302
-0.00245361
-0.00206113
-0.0029342
-0.00425364
-0.00466026
-0.00434299
-0.00442778
-0.00530578
-0.00622475
-0.00652797
-0.00643723
-0.00652287
-0.00692401
-0.00726734
-0.00103729
-0.00115154
-0.00112056
-0.00134362
-0.00237813
-0.00307764
-0.00267854
-0.00223129
-0.00288743
-0.00413528
-0.00467685
-0.00447411
-0.00448465
-0.0051981
-0.0060806
-0.00650268
-0.00650979
-0.00654225
-0.00681139
-0.00707416
-0.00106864
-0.00120004
-0.00124004
-0.00141427
-0.00231878
-0.0030892
-0.00287511
-0.00242545
-0.00287742
-0.00401159
-0.00465821
-0.00458512
-0.00455681
-0.00511595
-0.00593226
-0.00643522
-0.00654871
-0.00657236
-0.00673249
-0.00691013
-0.00110579
-0.00124566
-0.00135198
-0.00150308
-0.00227974
-0.00307655
-0.00303642
-0.00262828
-0.00290557
-0.00389546
-0.00460742
-0.00466848
-0.00463842
-0.00506027
-0.00578791
-0.00633609
-0.00654653
-0.00659905
-0.00668123
-0.00677289
-0.00114921
-0.00129084
-0.00145464
-0.00160409
-0.0022633
-0.00305103
-0.00316198
-0.00282557
-0.00296835
-0.00379798
-0.00453207
-0.00471831
-0.00471912
-0.00503115
-0.00565416
-0.00621476
-0.00650347
-0.0066072
-0.00665055
-0.00666047
-0.00119903
-0.00133779
-0.0015476
-0.00171162
-0.00227029
-0.00302153
-0.00325388
-0.00300753
-0.00305739
-0.00372546
-0.00444177
-0.00473291
-0.00478685
-0.00502474
-0.00553946
-0.00608059
-0.00642455
-0.00658514
-0.00662842
-0.00657502
-0.00125951
-0.00138786
-0.00163239
-0.00182102
-0.00229903
-0.00299535
-0.00331651
-0.00316826
-0.00316305
-0.00367979
-0.0043447
-0.00471416
-0.00483278
-0.00503102
-0.00544983
-0.00594657
-0.00631838
-0.00652679
-0.00659543
-0.00651199
-0.00132088
-0.00144241
-0.00171059
-0.00192867
-0.00234613
-0.00297831
-0.00335613
-0.0033036
-0.00327647
-0.00366122
-0.00424964
-0.00466669
-0.00485143
-0.00503587
-0.00538038
-0.00582341
-0.00619839
-0.00643686
-0.00653592
-0.00645389
-0.0013874
-0.00150215
-0.00178426
-0.00203229
-0.00240835
-0.0029744
-0.00337926
-0.00341131
-0.00338795
-0.00366643
-0.00416592
-0.00459788
-0.00483997
-0.00502934
-0.00531825
-0.00570953
-0.00607441
-0.0063272
-0.00644891
-0.00638447
-0.00145883
-0.00156839
-0.00185566
-0.00213005
-0.00248135
-0.00298583
-0.00339407
-0.00349367
-0.00348877
-0.0036874
-0.00409778
-0.00451637
-0.00479848
-0.0050067
-0.00525685
-0.00559702
-0.00594516
-0.0062037
-0.00633801
-0.00629306
-0.00153429
-0.00164038
-0.00192768
-0.00222292
-0.00256167
-0.00301168
-0.00340621
-0.00355515
-0.00357545
-0.00371627
-0.00404422
-0.00443031
-0.0047286
-0.0049592
-0.00519252
-0.00548479
-0.00580796
-0.00606817
-0.00620852
-0.00617803
-0.00161438
-0.00171895
-0.00200202
-0.00231102
-0.00264703
-0.00305188
-0.00342008
-0.00359922
-0.00364619
-0.00374792
-0.00400178
-0.004345
-0.00463762
-0.00487738
-0.0051106
-0.00536882
-0.00565943
-0.00591673
-0.00606265
-0.00604443
-0.0017059
-0.00180536
-0.00208017
-0.0023956
-0.00273363
-0.00310631
-0.00344316
-0.00363249
-0.00369866
-0.00377585
-0.00396567
-0.00425762
-0.00453384
-0.00476626
-0.00499759
-0.00523858
-0.00549532
-0.00574061
-0.00589112
-0.00588523
-0.00179247
-0.00189294
-0.00216502
-0.00248118
-0.00282045
-0.0031702
-0.00347866
-0.00366574
-0.0037382
-0.00379606
-0.00393279
-0.00416381
-0.00441296
-0.00462991
-0.00484709
-0.00507924
-0.00530868
-0.00553579
-0.00568906
-0.00569434
-0.00188586
-0.00198793
-0.00225469
-0.00256702
-0.00290871
-0.00324245
-0.00352606
-0.00370517
-0.00377463
-0.00381091
-0.00390192
-0.00406502
-0.00426579
-0.00445971
-0.00464974
-0.00486976
-0.00508382
-0.00529307
-0.00544958
-0.00546984
-0.00198807
-0.00209003
-0.00235001
-0.00265435
-0.00299667
-0.0033216
-0.00358648
-0.003756
-0.00382156
-0.00383353
-0.00387431
-0.0039624
-0.00408486
-0.00422816
-0.0043772
-0.00457355
-0.00478865
-0.00499758
-0.00516312
-0.00520528
-0.00209358
-0.00219316
-0.00245356
-0.00275112
-0.00308699
-0.00340337
-0.00365574
-0.00381947
-0.00388865
-0.00389823
-0.00389143
-0.0038789
-0.00387122
-0.00389501
-0.00394182
-0.00404977
-0.00422607
-0.00444375
-0.0046816
-0.00486121
-0.00220247
-0.00230479
-0.00256479
-0.00285509
-0.00318012
-0.00348373
-0.00372937
-0.00389236
-0.00396763
-0.00401914
-0.00406516
-0.00402462
-0.00387003
-0.00371209
-0.00359807
-0.00351852
-0.00343099
-0.00329208
-0.00310886
-0.00295751
-0.0023232
-0.00242582
-0.00268483
-0.00296703
-0.00327279
-0.00355642
-0.00379526
-0.00396641
-0.00399249
-0.0038765
-0.00372689
-0.00360128
-0.00351046
-0.00344115
-0.00335777
-0.00324896
-0.00311776
-0.00299697
-0.00292039
-0.00294762
-0.00245914
-0.00255455
-0.00281238
-0.00309864
-0.00339832
-0.00364297
-0.00375909
-0.00376517
-0.00370571
-0.00364917
-0.00361377
-0.00359459
-0.00358474
-0.00356122
-0.00347998
-0.00334136
-0.00314104
-0.00290564
-0.00266447
-0.00250079
-0.00261479
-0.00267697
-0.00286717
-0.00306592
-0.00328592
-0.00348223
-0.00362046
-0.00368292
-0.00368151
-0.00365224
-0.00361551
-0.00356004
-0.00347904
-0.00341086
-0.00336185
-0.00338197
-0.00351901
-0.00377712
-0.00411112
-0.00442812
-0.00281076
-0.00289048
-0.0029799
-0.00306751
-0.00322657
-0.00341863
-0.00359264
-0.00369327
-0.00372305
-0.00370602
-0.00365558
-0.00360171
-0.00351002
-0.00340062
-0.00326045
-0.00306296
-0.00282102
-0.00256401
-0.00235387
-0.00226972
-0.00293099
-0.00299784
-0.00305412
-0.0031036
-0.00323041
-0.00340449
-0.00358153
-0.00369013
-0.00372578
-0.00372053
-0.00366123
-0.00358951
-0.00348331
-0.00333838
-0.00317438
-0.0029892
-0.00281736
-0.00269463
-0.00266383
-0.00277412
-0.00546009
-0.00805926
-0.0133486
-0.0172172
-0.0173771
-0.0156452
-0.0137771
-0.0121842
-0.0109359
-0.0100828
-0.00957953
-0.00929687
-0.00909112
-0.00881585
-0.00832574
-0.00767601
-0.00712795
-0.0067658
-0.00644947
-0.00612332
-0.00579348
-0.00542856
-0.0050304
-0.00461257
-0.00416645
-0.00369058
-0.00321951
-0.00279192
-0.00239943
-0.00201252
-0.00162902
-0.00124829
-0.000886802
-0.000556853
-0.000239734
6.2505e-05
0.000304842
0.000504818
0.000736194
0.00104802
0.00139668
0.00175632
0.00213468
0.00253392
0.00293555
0.00332012
0.00372634
0.00420888
0.00471601
0.00512338
0.00540406
0.00562711
0.00590493
0.0063263
0.00688367
0.00747473
0.00800566
0.00848058
0.00893012
0.00936048
0.00978249
0.0102482
0.0107639
0.0113045
0.0118203
0.0123688
0.0129596
0.0135375
0.0140969
0.0146846
0.0152906
0.0158811
0.0165047
0.0171521
0.0178379
0.0185172
0.0192152
0.0199207
0.0206565
0.0213752
0.0221138
0.022847
0.0236244
0.0244462
0.0252487
0.0260585
0.0268338
0.0276847
0.0285217
0.0294059
0.0303032
0.0311886
0.0321239
0.0330551
0.0340066
0.0350171
0.0359985
0.0370272
0.0380507
0.0389765
-0.00567219
-0.0081297
-0.0132428
-0.0170752
-0.0173
-0.0156092
-0.0137539
-0.0121668
-0.010922
-0.0100711
-0.0095696
-0.00928868
-0.00908477
-0.00881123
-0.00832229
-0.00767285
-0.00712483
-0.00676302
-0.00644701
-0.00612109
-0.00579151
-0.00542678
-0.00502871
-0.00461098
-0.00416494
-0.00368912
-0.00321806
-0.00279051
-0.0023981
-0.00201124
-0.00162778
-0.00124708
-0.000885608
-0.000555712
-0.000238645
6.35993e-05
0.000305935
0.000505832
0.000737093
0.00104887
0.00139753
0.00175714
0.00213545
0.00253464
0.00293624
0.00332076
0.0037269
0.00420939
0.00471655
0.00512397
0.00540463
0.0056276
0.00590531
0.00632662
0.006884
0.00747509
0.00800601
0.00848091
0.00893045
0.00936079
0.00978277
0.0102485
0.0107642
0.0113048
0.0118205
0.012369
0.0129598
0.0135377
0.0140971
0.0146848
0.0152908
0.0158813
0.0165049
0.0171523
0.0178381
0.0185174
0.0192153
0.0199209
0.0206566
0.0213753
0.022114
0.0228472
0.0236246
0.0244463
0.0252488
0.0260586
0.0268339
0.0276848
0.0285218
0.029406
0.0303033
0.0311887
0.032124
0.0330552
0.0340067
0.0350172
0.0359986
0.0370273
0.0380509
0.0389766
-0.00599406
-0.0082577
-0.013058
-0.0168092
-0.0171615
-0.0155597
-0.0137302
-0.012149
-0.0109074
-0.0100592
-0.00955933
-0.00927921
-0.00907617
-0.00880423
-0.00831706
-0.00766883
-0.00712156
-0.00676031
-0.00644457
-0.00611884
-0.00578962
-0.00542516
-0.00502724
-0.0046096
-0.00416361
-0.00368779
-0.00321673
-0.00278924
-0.00239693
-0.00201013
-0.0016267
-0.001246
-0.00088453
-0.000554685
-0.000237671
6.4575e-05
0.000306885
0.000506683
0.000737826
0.00104956
0.00139824
0.00175785
0.00213614
0.00253529
0.00293686
0.00332132
0.00372737
0.00420984
0.00471709
0.00512457
0.00540518
0.00562799
0.00590555
0.00632684
0.00688428
0.00747544
0.00800636
0.00848122
0.00893075
0.00936107
0.009783
0.0102487
0.0107644
0.011305
0.0118207
0.0123692
0.01296
0.0135379
0.0140973
0.014685
0.015291
0.0158815
0.016505
0.0171524
0.0178382
0.0185175
0.0192155
0.019921
0.0206568
0.0213755
0.0221141
0.0228473
0.0236247
0.0244464
0.0252489
0.0260588
0.026834
0.0276849
0.0285219
0.029406
0.0303034
0.0311888
0.0321241
0.0330552
0.0340068
0.0350172
0.0359986
0.0370274
0.038051
0.0389768
-0.00631558
-0.00837495
-0.0128094
-0.0164553
-0.0169616
-0.0154872
-0.0136962
-0.0121236
-0.0108877
-0.0100447
-0.00954779
-0.00926768
-0.00906334
-0.00879148
-0.00830682
-0.0076619
-0.0071169
-0.00675647
-0.00644083
-0.00611541
-0.00578691
-0.00542312
-0.00502556
-0.00460806
-0.00416212
-0.00368636
-0.00321535
-0.00278795
-0.00239577
-0.00200907
-0.00162568
-0.00124493
-0.00088338
-0.000553575
-0.000236658
6.55517e-05
0.000307842
0.000507563
0.000738565
0.00105021
0.00139891
0.00175857
0.00213688
0.00253599
0.00293751
0.00332191
0.00372788
0.00421034
0.0047177
0.00512526
0.0054058
0.00562839
0.00590574
0.00632701
0.00688458
0.00747585
0.00800675
0.00848156
0.00893108
0.00936137
0.00978323
0.0102489
0.0107646
0.0113052
0.0118209
0.0123694
0.0129602
0.0135381
0.0140975
0.0146851
0.0152912
0.0158817
0.0165052
0.0171526
0.0178384
0.0185177
0.0192156
0.0199211
0.0206569
0.0213756
0.0221142
0.0228474
0.0236248
0.0244466
0.025249
0.0260589
0.0268341
0.027685
0.028522
0.0294061
0.0303035
0.0311889
0.0321242
0.0330553
0.0340069
0.0350173
0.0359987
0.0370275
0.0380512
0.0389771
-0.00661355
-0.0084717
-0.0125385
-0.0160734
-0.0167364
-0.0154035
-0.0136566
-0.0120925
-0.0108627
-0.0100269
-0.0095344
-0.00925375
-0.00904553
-0.00877148
-0.00828992
-0.00765112
-0.00711039
-0.00675084
-0.0064347
-0.00610948
-0.00578222
-0.00541987
-0.00502321
-0.00460601
-0.00416018
-0.00368465
-0.00321388
-0.00278665
-0.00239464
-0.00200813
-0.00162482
-0.00124391
-0.000882121
-0.000552285
-0.00023555
6.65408e-05
0.000308875
0.000508628
0.000739449
0.00105088
0.00139958
0.00175939
0.00213776
0.00253678
0.00293822
0.00332259
0.00372852
0.00421097
0.00471842
0.00512607
0.00540655
0.00562884
0.00590591
0.00632719
0.00688494
0.00747634
0.0080072
0.00848195
0.00893146
0.00936171
0.00978347
0.0102491
0.0107648
0.0113055
0.0118212
0.0123695
0.0129604
0.0135383
0.0140977
0.0146853
0.0152914
0.0158818
0.0165053
0.0171527
0.0178385
0.0185178
0.0192158
0.0199213
0.0206571
0.0213758
0.0221144
0.0228475
0.0236249
0.0244467
0.0252492
0.026059
0.0268342
0.0276851
0.0285221
0.0294062
0.0303036
0.031189
0.0321243
0.0330554
0.0340069
0.0350174
0.0359988
0.0370276
0.0380514
0.0389776
-0.00688206
-0.00856908
-0.0122784
-0.0156882
-0.0164991
-0.0153143
-0.0136157
-0.0120588
-0.0108344
-0.0100065
-0.00951938
-0.00923795
-0.00902393
-0.00874558
-0.00826724
-0.00763689
-0.00710227
-0.00674356
-0.00642603
-0.00610047
-0.00577467
-0.00541455
-0.00501954
-0.00460301
-0.00415748
-0.00368247
-0.00321226
-0.00278534
-0.0023936
-0.00200748
-0.0016244
-0.00124324
-0.000880902
-0.00055085
-0.00023439
6.74632e-05
0.000310002
0.00051004
0.000740648
0.00105164
0.00140027
0.00176036
0.00213883
0.00253765
0.00293894
0.00332335
0.00372935
0.00421176
0.00471927
0.00512705
0.00540748
0.00562941
0.00590612
0.00632741
0.0068854
0.00747694
0.00800774
0.00848241
0.00893192
0.00936212
0.00978377
0.0102494
0.0107651
0.0113058
0.0118214
0.0123698
0.0129607
0.0135386
0.0140979
0.0146855
0.0152916
0.015882
0.0165055
0.0171529
0.0178387
0.018518
0.0192159
0.0199214
0.0206572
0.0213759
0.0221145
0.0228477
0.023625
0.0244468
0.0252493
0.0260592
0.0268343
0.0276852
0.0285222
0.0294063
0.0303037
0.0311891
0.0321244
0.0330555
0.034007
0.0350175
0.0359989
0.0370277
0.0380516
0.0389781
-0.00712692
-0.00868246
-0.0120407
-0.0153028
-0.0162481
-0.0152181
-0.0135736
-0.0120237
-0.0108032
-0.00998353
-0.00950259
-0.00922069
-0.00900017
-0.00871637
-0.00824112
-0.00762052
-0.00709322
-0.00673526
-0.00641548
-0.00608879
-0.00576424
-0.00540678
-0.00501404
-0.00459862
-0.00415375
-0.00367967
-0.00321035
-0.00278388
-0.00239255
-0.00200713
-0.00162459
-0.00124318
-0.000879993
-0.000549446
-0.000233333
6.81487e-05
0.000311154
0.000511912
0.000742353
0.00105264
0.00140111
0.00176165
0.00214025
0.00253865
0.00293961
0.00332413
0.00373031
0.00421268
0.00472021
0.00512823
0.00540869
0.00563015
0.00590639
0.00632771
0.00688597
0.00747765
0.00800837
0.00848297
0.00893249
0.00936262
0.00978413
0.0102497
0.0107655
0.0113062
0.0118217
0.0123701
0.012961
0.0135389
0.0140981
0.0146857
0.0152918
0.0158822
0.0165056
0.017153
0.0178389
0.0185182
0.0192161
0.0199216
0.0206574
0.0213761
0.0221147
0.0228478
0.0236251
0.024447
0.0252495
0.0260593
0.0268345
0.0276853
0.0285224
0.0294064
0.0303039
0.0311892
0.0321245
0.0330556
0.0340071
0.0350175
0.035999
0.0370277
0.0380518
0.0389788
-0.00735337
-0.00880994
-0.0118214
-0.0149136
-0.0159809
-0.0151134
-0.0135307
-0.011988
-0.0107697
-0.00995774
-0.00948377
-0.00920212
-0.00897516
-0.00868547
-0.00821314
-0.00760282
-0.00708349
-0.00672642
-0.00640395
-0.00607547
-0.0057517
-0.00539684
-0.00500662
-0.00459267
-0.00414887
-0.0036762
-0.00320809
-0.00278216
-0.00239134
-0.00200692
-0.0016253
-0.00124384
-0.000879618
-0.000548316
-0.000232594
6.83748e-05
0.000312135
0.000514166
0.000744621
0.001054
0.00140227
0.00176346
0.00214225
0.00253995
0.0029403
0.0033249
0.00373131
0.00421353
0.00472107
0.00512954
0.00541021
0.00563117
0.00590682
0.00632814
0.00688667
0.00747845
0.00800908
0.00848364
0.0089332
0.00936324
0.00978462
0.0102502
0.010766
0.0113066
0.0118221
0.0123704
0.0129614
0.0135392
0.0140984
0.014686
0.0152921
0.0158824
0.0165058
0.0171532
0.0178391
0.0185184
0.0192163
0.0199218
0.0206576
0.0213763
0.0221148
0.022848
0.0236252
0.0244472
0.0252497
0.0260595
0.0268346
0.0276855
0.0285225
0.0294066
0.030304
0.0311893
0.0321246
0.0330557
0.0340071
0.0350176
0.0359991
0.0370278
0.0380519
0.0389797
-0.00755844
-0.00894061
-0.0116179
-0.0145228
-0.015698
-0.0149989
-0.0134864
-0.011952
-0.0107338
-0.00992891
-0.00946275
-0.00918233
-0.00894928
-0.00865348
-0.00818381
-0.0075839
-0.007073
-0.00671709
-0.0063919
-0.00606135
-0.00573795
-0.00538539
-0.0049976
-0.00458528
-0.00414292
-0.00367209
-0.00320549
-0.00278016
-0.00238986
-0.00200665
-0.00162631
-0.00124508
-0.000879826
-0.000547635
-0.000232338
6.79843e-05
0.000312721
0.000516541
0.000747271
0.00105569
0.00140384
0.00176596
0.00214503
0.00254181
0.00294125
0.0033258
0.00373233
0.00421409
0.00472151
0.00513072
0.00541196
0.00563249
0.00590752
0.00632885
0.00688758
0.00747933
0.00800981
0.00848438
0.00893404
0.00936401
0.00978525
0.0102508
0.0107666
0.0113072
0.0118226
0.0123709
0.0129619
0.0135396
0.0140988
0.0146864
0.0152924
0.0158826
0.0165061
0.0171534
0.0178393
0.0185186
0.0192165
0.0199219
0.0206578
0.0213765
0.022115
0.0228481
0.0236254
0.0244474
0.0252499
0.0260597
0.0268347
0.0276856
0.0285227
0.0294067
0.0303042
0.0311894
0.0321247
0.0330559
0.0340072
0.0350176
0.0359993
0.0370278
0.038052
0.0389807
-0.0077357
-0.00906771
-0.0114342
-0.0141355
-0.0153995
-0.0148721
-0.0134395
-0.0119158
-0.0106957
-0.00989686
-0.00943931
-0.00916129
-0.00892263
-0.00862048
-0.00815312
-0.00756371
-0.00706166
-0.00670726
-0.00637944
-0.00604675
-0.00572354