/*--------------------------------*- C++ -*----------------------------------*\
| =========                 |                                                 |
| \\      /  F ield         | OpenFOAM: The Open Source CFD Toolbox           |
|  \\    /   O peration     | Version:  v1812                                 |
|   \\  /    A nd           | Web:      www.OpenFOAM.com                      |
|    \\/     M anipulation  |                                                 |
\*---------------------------------------------------------------------------*/
FoamFile
{
    version     2.0;
    format      ascii;
    class       volScalarField;
    location    "7.3";
    object      p;
}
// * * * * * * * * * * * * * * * * * * * * * * * * * * * * * * * * * * * * * //

dimensions      [0 2 -2 0 0 0 0];


internalField   nonuniform List<scalar> 
9600
(
4.11625e-11
-0.000286851
-0.000270908
-0.000773569
0.000678783
-7.94128e-06
0.000305981
-0.00249416
-0.00049181
0.000535633
0.00201383
0.00119942
0.00438244
0.00267496
0.00442304
0.00333096
0.00231008
0.0012941
0.000509709
0.000598048
-6.78596e-06
-0.000282918
-0.000268201
-0.000773072
0.000681491
-2.36977e-05
0.000301866
-0.00249436
-0.000498827
0.00054016
0.00202918
0.00118289
0.00440274
0.00263745
0.00442788
0.00323705
0.00231989
0.00118741
0.000531242
0.000388458
-1.40524e-05
-0.000278078
-0.000265206
-0.000773045
0.000679615
-4.29536e-05
0.000296234
-0.00249059
-0.000504462
0.000544494
0.00203908
0.00115785
0.00442579
0.0025754
0.00442709
0.00312609
0.00232648
0.00106596
0.000555972
0.000122268
-2.12951e-05
-0.000273114
-0.000262407
-0.00077447
0.000675906
-6.35349e-05
0.000290693
-0.0024793
-0.000509789
0.000547604
0.00204535
0.00112496
0.00443417
0.00248595
0.00440674
0.00301172
0.0023113
0.0009748
0.000555519
-0.000100167
-2.88824e-05
-0.000267807
-0.000259405
-0.000776479
0.000673972
-8.64121e-05
0.000287363
-0.00245935
-0.00051503
0.000550502
0.00204865
0.00108613
0.00443189
0.00237419
0.00438037
0.00289102
0.00229657
0.000904909
0.000524072
-0.000247173
-3.68425e-05
-0.000261953
-0.000255833
-0.000777813
0.000673959
-0.000112504
0.000287877
-0.00243034
-0.000520031
0.000553601
0.00204808
0.00104599
0.00442588
0.00225077
0.00435627
0.00277234
0.00229367
0.00084353
0.000475317
-0.000348157
-4.50994e-05
-0.000255553
-0.000251439
-0.000777623
0.000675502
-0.000142141
0.000293007
-0.00239206
-0.000524597
0.00055689
0.0020434
0.00100849
0.00441942
0.00212301
0.00433361
0.00266303
0.00228578
0.000794856
0.000407601
-0.000427793
-5.36064e-05
-0.000248669
-0.000246118
-0.000775714
0.000678899
-0.000175087
0.000302991
-0.00234433
-0.00052868
0.000560427
0.00203461
0.000975969
0.00441275
0.001994
0.00431049
0.00256244
0.00226064
0.000763389
0.000309635
-0.000495191
-6.24335e-05
-0.000241365
-0.00023989
-0.000772575
0.00068436
-0.00021041
0.000317604
-0.00228724
-0.000532394
0.000564397
0.00202178
0.000948765
0.0044047
0.0018655
0.004284
0.00247135
0.00221602
0.000748595
0.000179923
-0.000551315
-7.15982e-05
-0.000233689
-0.000232882
-0.000769312
0.000691723
-0.000246673
0.000336056
-0.00222152
-0.000535924
0.000569041
0.00200503
0.000926162
0.00439409
0.00173908
0.00425007
0.00239312
0.00214896
0.00074846
2.34069e-05
-0.000603309
-8.11352e-05
-0.000225672
-0.000225293
-0.000766913
0.000700624
-0.000282343
0.000357043
-0.00214882
-0.00053948
0.000574541
0.00198452
0.000907606
0.00437955
0.00161657
0.00420454
0.00233059
0.00205497
0.00076028
-0.000153855
-0.000662623
-9.10641e-05
-0.000217314
-0.00021735
-0.000765714
0.000710597
-0.000316465
0.000378988
-0.00207146
-0.000543315
0.000580978
0.00196026
0.000893239
0.00435913
0.00150076
0.00414369
0.00228523
0.00193179
0.000779687
-0.000344145
-0.00073999
-0.00010139
-0.000208595
-0.000209243
-0.000765438
0.000721121
-0.000348772
0.000400385
-0.00199181
-0.000547692
0.000588415
0.00193204
0.000883847
0.00433019
0.00139551
0.00406452
0.00225731
0.00178056
0.000800143
-0.000538235
-0.000842606
-0.000112135
-0.00019949
-0.000201062
-0.000765538
0.000731662
-0.000379378
0.000420089
-0.0019117
-0.000552888
0.000597058
0.00189964
0.000880365
0.00428992
0.00130464
0.00396499
0.00224615
0.00160507
0.000813741
-0.000726519
-0.000973405
-0.000123321
-0.000189974
-0.00019281
-0.000765533
0.000741754
-0.000408486
0.000437404
-0.00183207
-0.000559215
0.000607279
0.00186288
0.000883119
0.00423636
0.00123066
0.00384409
0.00224992
0.00141068
0.000812868
-0.000900579
-0.00113195
-0.000134953
-0.000180036
-0.000184448
-0.000765183
0.000751031
-0.000436221
0.00045197
-0.0017531
-0.00056706
0.000619495
0.00182171
0.00089151
0.00416886
0.00117428
0.00370182
0.00226563
0.00120362
0.000790119
-0.00105311
-0.00131384
-0.000147025
-0.000169697
-0.0001759
-0.000764487
0.000759214
-0.000462552
0.000463595
-0.00167449
-0.00057685
0.000634045
0.0017761
0.00090423
0.0040877
0.00113434
0.00353888
0.00228954
0.000990811
0.000738868
-0.00117843
-0.00151258
-0.000159525
-0.000159006
-0.000167054
-0.000763612
0.000766127
-0.000487243
0.0004721
-0.00159578
-0.000588983
0.000651167
0.00172595
0.000919787
0.00399389
0.00110815
0.00335662
0.0023171
0.000778667
0.000654884
-0.00127346
-0.00172178
-0.000172437
-0.00014803
-0.000157795
-0.000762798
0.000771695
-0.000509918
0.000477248
-0.00151654
-0.000603874
0.000670959
0.00167126
0.000936638
0.00388894
0.00109185
0.00315761
0.0023432
0.000571762
0.00053722
-0.00133771
-0.00193474
-0.000185731
-0.000136868
-0.000148014
-0.000762273
0.000775876
-0.000530192
0.000478733
-0.00143638
-0.000621931
0.000693317
0.00161219
0.000952846
0.00377476
0.00108147
0.00294494
0.00236304
0.000374341
0.000387414
-0.0013742
-0.00214424
-0.000199352
-0.00012566
-0.000137608
-0.000762495
0.000778611
-0.000547724
0.000476165
-0.00135492
-0.000643429
0.000717929
0.0015493
0.000966088
0.00365351
0.00107374
0.00272138
0.00237266
0.000190672
0.000207015
-0.00138892
-0.0023414
-0.000213219
-0.000114568
-0.000126489
-0.00076325
0.000779786
-0.000562092
0.000469122
-0.00127192
-0.000668555
0.000744333
0.00148368
0.000973834
0.00352722
0.00106661
0.00248919
0.00236791
2.3826e-05
-2.16934e-06
-0.00138873
-0.00251636
-0.000227244
-0.000103769
-0.000114566
-0.000764383
0.000779201
-0.000572795
0.000457187
-0.00118732
-0.000697412
0.000771838
0.00141709
0.00097346
0.00339797
0.00105871
0.00225002
0.00234494
-0.000124285
-0.000236826
-0.00138095
-0.00266012
-0.000241332
-9.34725e-05
-0.000101758
-0.000765994
0.000776573
-0.000579335
0.000439984
-0.00110119
-0.000729877
0.000799265
0.00135168
0.000962409
0.00326719
0.0010491
0.00200554
0.00230184
-0.000252177
-0.000493692
-0.0013738
-0.0027646
-0.000255348
-8.38984e-05
-8.80411e-05
-0.000767982
0.00077158
-0.000581287
0.000417228
-0.00101374
-0.000765567
0.00082506
0.00128978
0.000938554
0.00313533
0.00103799
0.00175708
0.00223763
-0.000358122
-0.000770455
-0.00137646
-0.00282136
-0.000269136
-7.5276e-05
-7.33986e-05
-0.000770268
0.000763817
-0.000578244
0.000388696
-0.000925317
-0.000803755
0.000847329
0.0012337
0.00090086
0.00300288
0.00102658
0.00150512
0.00214952
-0.00044084
-0.00106201
-0.00139939
-0.00282472
-0.000282543
-6.78713e-05
-5.78602e-05
-0.000772621
0.000752797
-0.000569742
0.000354301
-0.000836389
-0.000843359
0.00086371
0.00118569
0.000849379
0.00286883
0.00101624
0.00125074
0.00203345
-0.00049934
-0.00135893
-0.00145474
-0.002777
-0.000295401
-6.19356e-05
-4.15433e-05
-0.000774647
0.000738014
-0.000555371
0.000314267
-0.000747846
-0.000883206
0.000871705
0.00114759
0.000785117
0.00273167
0.00100343
0.000995722
0.00188651
-0.000533819
-0.00165023
-0.00155336
-0.00268775
-0.00030751
-5.76779e-05
-2.46192e-05
-0.000776001
0.00071892
-0.000534808
0.000269066
-0.000660973
-0.000922
0.00086902
0.00112024
0.000710063
0.00258919
0.00099857
0.000742565
0.00170535
-0.000546885
-0.00192309
-0.00170151
-0.00257324
-0.00031869
-5.52516e-05
-7.33354e-06
-0.000776288
0.000694983
-0.000508125
0.000219411
-0.000576959
-0.000958112
0.000853617
0.0011035
0.000626935
0.00243917
0.00100093
0.000495209
0.00148683
-0.000544388
-0.00216264
-0.00189873
-0.0024572
-0.000328795
-5.47881e-05
9.99064e-06
-0.000775062
0.000665813
-0.000475568
0.000166214
-0.000497251
-0.000989802
0.000823505
0.00109646
0.000539343
0.00228988
0.00100801
0.00025952
0.00123143
-0.000536801
-0.00235617
-0.00213519
-0.00236766
-0.000337649
-5.63536e-05
2.69099e-05
-0.00077198
0.000631265
-0.000437429
0.000110376
-0.000423686
-0.00101543
0.00077748
0.00109719
0.000450737
0.00210842
0.00101666
4.24071e-05
0.00094257
-0.000537484
-0.00249579
-0.0023951
-0.00232973
-0.000345104
-5.9897e-05
4.29603e-05
-0.000766808
0.000591258
-0.000394322
5.3077e-05
-0.000358005
-0.00103351
0.000715468
0.00110243
0.000364727
0.00190092
0.00102197
-0.000149222
0.000626382
-0.000559478
-0.00258
-0.00265994
-0.00235852
-0.000351066
-6.53354e-05
5.7713e-05
-0.000759318
0.00054573
-0.000347071
-4.12827e-06
-0.000301875
-0.00104316
0.0006379
0.00110839
0.000285338
0.00167406
0.00101717
-0.000309476
0.000292416
-0.000614694
-0.00261562
-0.00290821
-0.00245588
-0.000355452
-7.25165e-05
7.07466e-05
-0.000749441
0.000494846
-0.000296587
-5.9822e-05
-0.000256754
-0.00104404
0.000545782
0.00111046
0.000216105
0.00143109
0.00099434
-0.000435162
-4.74463e-05
-0.000711748
-0.00261536
-0.0031187
-0.00261097
-0.000358235
-8.12899e-05
8.17592e-05
-0.000737124
0.000438848
-0.000244063
-0.000121518
-0.000223839
-0.00103635
0.00044102
0.00110334
0.000159434
0.00117617
0.00094592
-0.000527225
-0.000380374
-0.000852538
-0.00259577
-0.00327797
-0.00280272
-0.000359456
-9.15618e-05
9.04879e-05
-0.000722184
0.00037803
-0.00019071
-0.00016887
-0.000204124
-0.00102099
0.000326114
0.00108261
0.000116506
0.000914324
0.000865966
-0.000590602
-0.00069409
-0.00103275
-0.00257573
-0.00338404
-0.00300408
-0.000359065
-0.000103207
9.6639e-05
-0.000704482
0.000312778
-0.000138141
-0.000209145
-0.000198016
-0.000999549
0.000204329
0.00104442
8.66109e-05
0.000651659
0.000750785
-0.000633018
-0.00097803
-0.00124371
-0.00257151
-0.00344542
-0.00318883
-0.000356995
-0.000116155
9.9995e-05
-0.000683845
0.000243652
-8.83002e-05
-0.000241169
-0.000205133
-0.000974415
7.94971e-05
0.000985771
6.67964e-05
0.000395453
0.000599082
-0.000664327
-0.00122475
-0.00147502
-0.00259214
-0.00347601
-0.00334142
-0.000353212
-0.000130348
0.0001003
-0.000660088
0.000171336
-4.31466e-05
-0.000263743
-0.000224338
-0.000948524
-4.55884e-05
0.000904751
5.25682e-05
0.000153334
0.000413459
-0.000695805
-0.00143061
-0.00171558
-0.00264034
-0.00348991
-0.00345992
-0.000347581
-0.000145609
9.73407e-05
-0.000633127
9.66887e-05
-5.10843e-06
-0.000276115
-0.000253331
-0.000924904
-0.000169033
0.000800704
3.86534e-05
-6.90981e-05
0.000199711
-0.000739684
-0.0015968
-0.00195247
-0.00271609
-0.00349828
-0.00354938
-0.000336683
-0.000161699
9.50331e-05
-0.000602865
2.12013e-05
2.31835e-05
-0.000278331
-0.000288984
-0.000906159
-0.000289393
0.000674751
1.99928e-05
-0.000268629
-3.51892e-05
-0.000805086
-0.00172813
-0.00217437
-0.0028176
-0.00350951
-0.00361387
-0.000328304
-0.000178169
8.5126e-05
-0.000569107
-5.2893e-05
3.97723e-05
-0.000271821
-0.000327884
-0.000893785
-0.000406044
0.000528597
-8.36162e-06
-0.000443379
-0.000281879
-0.000896081
-0.00183221
-0.00237331
-0.0029396
-0.00353178
-0.00365831
-0.000319133
-0.00019405
6.98624e-05
-0.00053329
-0.000122876
4.36844e-05
-0.000260317
-0.000367538
-0.000888335
-0.000518362
0.000364632
-5.19368e-05
-0.000593436
-0.000529299
-0.00101331
-0.00191946
-0.00254476
-0.0030725
-0.00357222
-0.00369362
-0.000309712
-0.000208317
4.97257e-05
-0.000497829
-0.000186327
3.48233e-05
-0.000247911
-0.000407124
-0.000890424
-0.000625529
0.000186673
-0.000116092
-0.000721508
-0.000766505
-0.00115351
-0.0020002
-0.00268973
-0.00320687
-0.00363122
-0.00373073
-0.000300489
-0.000220408
2.45824e-05
-0.000465399
-0.000241936
1.50213e-05
-0.000239042
-0.000447091
-0.000900561
-0.000727665
-4.22366e-07
-0.000202224
-0.00083213
-0.000983966
-0.00130967
-0.00208269
-0.00281238
-0.00333656
-0.00370336
-0.00377547
-0.000291852
-0.000230125
-3.79089e-06
-0.000438376
-0.00028989
-1.25988e-05
-0.000235714
-0.000488566
-0.000918883
-0.000824866
-0.000191422
-0.000308983
-0.000917383
-0.00117854
-0.00147427
-0.00217078
-0.00291715
-0.00345887
-0.00378388
-0.00382767
-0.000284072
-0.000237557
-3.37177e-05
-0.000418675
-0.00033158
-4.54386e-05
-0.000237701
-0.000532761
-0.000946511
-0.000916751
-0.000381054
-0.000435705
-0.0010126
-0.00135194
-0.00164127
-0.0022658
-0.00300714
-0.00357121
-0.00387174
-0.00388546
-0.000277218
-0.000243257
-6.31449e-05
-0.000406802
-0.000370176
-8.22977e-05
-0.000245976
-0.000580098
-0.000985036
-0.00100439
-0.000564095
-0.000578007
-0.00111058
-0.00150629
-0.00180631
-0.00236913
-0.00308531
-0.00366819
-0.00396573
-0.00395122
-0.000271082
-0.00024816
-9.03995e-05
-0.000402353
-0.000409536
-0.000123586
-0.000258559
-0.000628573
-0.00103456
-0.00109021
-0.000736844
-0.00072967
-0.00121433
-0.00164663
-0.00196571
-0.00247994
-0.00315884
-0.00374763
-0.00405837
-0.00402746
-0.00026548
-0.00025303
-0.000115726
-0.000403936
-0.000452337
-0.000170467
-0.000303279
-0.000677145
-0.00109321
-0.0011768
-0.00089765
-0.000885252
-0.00132368
-0.0017785
-0.00211797
-0.00259494
-0.00323518
-0.00381505
-0.00413968
-0.00411075
-0.000260161
-0.000258522
-0.000139282
-0.000409339
-0.000499765
-0.000224563
-0.000317538
-0.000722893
-0.00115728
-0.00126686
-0.00104804
-0.00103754
-0.00143661
-0.00190288
-0.00226431
-0.00271254
-0.0033146
-0.00387704
-0.00420622
-0.00419336
-0.000254587
-0.0002652
-0.000161903
-0.000415925
-0.000551548
-0.000289976
-0.000339217
-0.000762906
-0.00122273
-0.00136167
-0.0011917
-0.00118507
-0.00154981
-0.00201871
-0.00240437
-0.00283323
-0.00339512
-0.00393775
-0.00426333
-0.00426729
-0.000248247
-0.000273394
-0.000185142
-0.000422119
-0.000606199
-0.000369878
-0.000372678
-0.000794751
-0.00128499
-0.00145957
-0.00133308
-0.00132808
-0.00166019
-0.00212537
-0.00253427
-0.00295574
-0.00347874
-0.00399872
-0.00431741
-0.00432847
-0.000241003
-0.000281948
-0.000211519
-0.000428784
-0.000661395
-0.000465429
-0.000423338
-0.000820191
-0.00133644
-0.00155676
-0.00147579
-0.00146913
-0.00176709
-0.00222244
-0.00265032
-0.00307532
-0.00356815
-0.00406041
-0.00437164
-0.00438093
-0.000233989
-0.000291017
-0.000239773
-0.000435956
-0.000714632
-0.000576238
-0.000494411
-0.000841642
-0.00137154
-0.00164934
-0.00162052
-0.00161288
-0.00187237
-0.00230964
-0.00275095
-0.00318651
-0.00366168
-0.00412472
-0.00442725
-0.00443255
-0.000224788
-0.000303959
-0.000272096
-0.000447626
-0.000763496
-0.000695628
-0.000584637
-0.000864551
-0.00139203
-0.0017303
-0.00176273
-0.00176117
-0.00198022
-0.00238889
-0.00283574
-0.00328395
-0.00375346
-0.00419257
-0.00448333
-0.004488
-0.000211931
-0.000302632
-0.000326586
-0.000476299
-0.000805081
-0.000813087
-0.000693633
-0.000897005
-0.00140109
-0.00179394
-0.00189773
-0.00191371
-0.00209563
-0.00246627
-0.00290706
-0.00336405
-0.00383644
-0.00426162
-0.00453823
-0.00454685
-0.000205017
-0.000318064
-0.000373153
-0.00050779
-0.000837264
-0.000923075
-0.000821882
-0.000949054
-0.00140367
-0.00183833
-0.00201907
-0.0020678
-0.00222088
-0.00254749
-0.00296953
-0.00342643
-0.00390306
-0.00432739
-0.00459322
-0.00460535
-0.000201802
-0.000322111
-0.000424367
-0.000549522
-0.000864401
-0.00101919
-0.000962341
-0.00102645
-0.0014092
-0.00186283
-0.00211999
-0.00221675
-0.00235559
-0.00263749
-0.00302917
-0.00347492
-0.00394942
-0.00438227
-0.00464812
-0.00466098
-0.000203037
-0.000333689
-0.000477003
-0.000602063
-0.000890988
-0.00109741
-0.00110367
-0.00112976
-0.00142901
-0.00187201
-0.00219566
-0.00235099
-0.00249418
-0.00273865
-0.00309219
-0.00351721
-0.00397916
-0.00441807
-0.00469723
-0.00471307
-0.000211238
-0.000346543
-0.000526665
-0.000662254
-0.00092295
-0.00115882
-0.00123493
-0.00125398
-0.0014717
-0.00187534
-0.0022451
-0.00246342
-0.00262775
-0.00284899
-0.0031631
-0.00355972
-0.00400045
-0.00443268
-0.00473138
-0.00476091
-0.000225777
-0.000365544
-0.000573834
-0.0007283
-0.000964504
-0.00120838
-0.00134833
-0.0013887
-0.00154058
-0.00188382
-0.0022718
-0.0025503
-0.00274819
-0.00296176
-0.00324174
-0.00360371
-0.00402109
-0.00443393
-0.00474398
-0.00479875
-0.000245971
-0.000385727
-0.000621577
-0.000799266
-0.00101657
-0.00125317
-0.00144188
-0.00152026
-0.00163318
-0.00190732
-0.00228223
-0.00260911
-0.00284971
-0.00306833
-0.00332594
-0.00365122
-0.00404249
-0.0044319
-0.0047369
-0.00481852
-0.000273423
-0.000416392
-0.000666772
-0.00086978
-0.00107851
-0.00129955
-0.00151809
-0.00163944
-0.00174058
-0.00195159
-0.00228801
-0.00264027
-0.00292716
-0.00316303
-0.00340987
-0.00370272
-0.00406236
-0.00443072
-0.00471902
-0.00481639
-0.000306792
-0.000448223
-0.00071392
-0.000940958
-0.00114959
-0.00135194
-0.00158188
-0.00174161
-0.00185093
-0.00201484
-0.00230018
-0.00265048
-0.00297491
-0.00323832
-0.00348555
-0.00375647
-0.0040827
-0.00442945
-0.00469896
-0.0047966
-0.000347688
-0.000493444
-0.000761862
-0.0010071
-0.00122478
-0.00141263
-0.00164038
-0.00182606
-0.0019544
-0.00209093
-0.00232365
-0.00265085
-0.00299331
-0.00328555
-0.00354448
-0.00380477
-0.00410184
-0.00442431
-0.00467919
-0.00476829
-0.000394002
-0.000540528
-0.000816384
-0.00107546
-0.00130323
-0.0014808
-0.0016981
-0.00189585
-0.00204433
-0.00217062
-0.00235676
-0.00264851
-0.00299119
-0.00330394
-0.00357794
-0.00383621
-0.00411348
-0.00441126
-0.00465237
-0.00473393
-0.000446851
-0.000594726
-0.000876326
-0.00114332
-0.00138178
-0.0015554
-0.00175917
-0.00195694
-0.00212006
-0.00224565
-0.00239568
-0.00264517
-0.00297293
-0.00329282
-0.00357993
-0.00384257
-0.00410707
-0.00438429
-0.00461371
-0.00469137
-0.000510224
-0.000663798
-0.000939917
-0.00120622
-0.00145777
-0.00163457
-0.0018262
-0.00201605
-0.00218258
-0.00230919
-0.0024353
-0.00264122
-0.00293993
-0.00325522
-0.00354925
-0.00381896
-0.00407611
-0.00433602
-0.0045532
-0.00462964
-0.000577972
-0.000728679
-0.00101303
-0.00128377
-0.00153773
-0.00171508
-0.00189411
-0.0020734
-0.00223957
-0.00236441
-0.00246981
-0.00262948
-0.00288422
-0.00318139
-0.0034741
-0.00375208
-0.00401043
-0.00426096
-0.00447178
-0.00455457
-0.000654669
-0.000806614
-0.00109344
-0.0013622
-0.00161766
-0.0018007
-0.00196885
-0.0021275
-0.00228624
-0.0024134
-0.00250884
-0.00262441
-0.00281558
-0.0030621
-0.00332398
-0.00359075
-0.00384734
-0.00409463
-0.00430761
-0.00440774
-0.000743917
-0.000896649
-0.00117861
-0.00143681
-0.00169204
-0.00188835
-0.00205941
-0.0022012
-0.0023321
-0.0024427
-0.00253047
-0.00262551
-0.00277494
-0.00297285
-0.00319568
-0.0034303
-0.0036441
-0.00385172
-0.00405529
-0.00416888
-0.000839257
-0.000994973
-0.0012759
-0.00152786
-0.00177216
-0.00195825
-0.00213222
-0.00228906
-0.00242219
-0.00248983
-0.002495
-0.00248058
-0.00253044
-0.00265258
-0.00282709
-0.0030737
-0.00335184
-0.00361805
-0.00385564
-0.00402984
-0.00094385
-0.0011036
-0.00138965
-0.00163474
-0.00187031
-0.00204596
-0.00219467
-0.00235832
-0.0025518
-0.0027487
-0.00284323
-0.00273792
-0.00257359
-0.00249494
-0.00246926
-0.00245337
-0.00242834
-0.00236967
-0.00226513
-0.00218519
-0.00106938
-0.00120571
-0.00146535
-0.00169155
-0.0019298
-0.00215716
-0.00235505
-0.00244969
-0.0024285
-0.00234008
-0.00228916
-0.00230046
-0.0023309
-0.00237849
-0.00240963
-0.00242856
-0.00246682
-0.00246882
-0.00245149
-0.00247603
-0.00127292
-0.0014457
-0.00162663
-0.00174136
-0.00188289
-0.00199545
-0.00213085
-0.00228554
-0.00242798
-0.0025534
-0.00263535
-0.00262916
-0.00259769
-0.00254124
-0.0024459
-0.00227729
-0.00205006
-0.00182748
-0.00166233
-0.00163331
-0.00132547
-0.00142162
-0.0016172
-0.00175921
-0.00189282
-0.00201249
-0.00215455
-0.00228494
-0.00235739
-0.00234931
-0.00230484
-0.00226066
-0.00224185
-0.00228692
-0.00240089
-0.00259792
-0.00287481
-0.0032266
-0.00360196
-0.00392422
-0.00151393
-0.00165581
-0.00177643
-0.00180621
-0.00186519
-0.00193871
-0.00206997
-0.00225055
-0.00240365
-0.00247791
-0.00250587
-0.00250347
-0.00246059
-0.002398
-0.0023148
-0.002189
-0.00201767
-0.00184545
-0.00172639
-0.00173236
-0.00161287
-0.00174061
-0.00181405
-0.00179524
-0.00182322
-0.00190321
-0.00207085
-0.00227381
-0.00242141
-0.00243906
-0.0023954
-0.00233121
-0.00224473
-0.00216098
-0.00209806
-0.00204213
-0.00200223
-0.00199574
-0.00207161
-0.00226733
0.00154922
0.000481698
-0.00587312
-0.0112845
-0.0124664
-0.0111804
-0.0094378
-0.00793999
-0.00692389
-0.00649239
-0.00640508
-0.00623861
-0.0058403
-0.00539929
-0.00510763
-0.00498333
-0.00496428
-0.00497898
-0.00498591
-0.00500703
-0.00505546
-0.00507725
-0.00499884
-0.00479749
-0.00455204
-0.00438821
-0.00431707
-0.0042563
-0.00419429
-0.00413758
-0.00405
-0.00395076
-0.00391382
-0.00394961
-0.0039565
-0.00386506
-0.00374044
-0.00362656
-0.0034469
-0.00323182
-0.00308612
-0.00298054
-0.0028433
-0.0027055
-0.00259269
-0.00248284
-0.00235578
-0.00222658
-0.00208017
-0.00192541
-0.00178394
-0.00166174
-0.0015353
-0.00139818
-0.00126754
-0.00114187
-0.000951195
-0.000718839
-0.000515559
-0.000320543
-0.000124672
5.44707e-05
0.000203852
0.000383537
0.000587513
0.000786469
0.000972854
0.00118035
0.00137738
0.00160733
0.00186417
0.00211756
0.00233858
0.00251768
0.00271706
0.00294555
0.00321112
0.00348503
0.0037329
0.00399585
0.00424652
0.00451161
0.00476056
0.00502829
0.00529556
0.00557276
0.00585891
0.00613188
0.00645443
0.00676431
0.00710208
0.00742594
0.00778448
0.00811703
0.00854757
0.00893639
0.00939666
0.00989877
0.0105028
0.0113699
0.00110974
0.000376354
-0.00576468
-0.011161
-0.0123974
-0.0111443
-0.00941491
-0.0079233
-0.00691055
-0.00648136
-0.00639634
-0.00623176
-0.00583447
-0.00539378
-0.00510215
-0.00497794
-0.00495919
-0.00497437
-0.00498176
-0.00500331
-0.00505213
-0.0050743
-0.00499621
-0.00479508
-0.00454972
-0.00438601
-0.0043151
-0.00425453
-0.00419264
-0.00413612
-0.00404868
-0.00394948
-0.00391257
-0.0039485
-0.00395558
-0.00386423
-0.00373961
-0.00362582
-0.00344625
-0.00323115
-0.00308546
-0.00297996
-0.00284276
-0.00270496
-0.00259217
-0.00248236
-0.00235531
-0.00222614
-0.00207975
-0.00192499
-0.00178352
-0.00166133
-0.00153492
-0.0013978
-0.00126717
-0.00114153
-0.000950896
-0.00071853
-0.000515246
-0.000320246
-0.00012438
5.47637e-05
0.000204132
0.000383795
0.000587769
0.000786724
0.000973097
0.00118059
0.00137761
0.00160753
0.00186437
0.00211777
0.00233878
0.00251787
0.00271724
0.00294571
0.00321127
0.00348518
0.00373305
0.00399599
0.00424665
0.00451173
0.00476069
0.00502841
0.00529568
0.00557287
0.00585902
0.00613198
0.00645454
0.00676441
0.00710218
0.00742603
0.00778457
0.00811712
0.00854765
0.00893647
0.00939674
0.00989888
0.010503
0.0113702
0.000645334
0.000321792
-0.00549269
-0.0108974
-0.0122691
-0.0110912
-0.00938663
-0.00790431
-0.00689701
-0.0064708
-0.00638653
-0.0062225
-0.00582686
-0.00538826
-0.00509805
-0.00497414
-0.00495507
-0.00497007
-0.00497768
-0.00499981
-0.00504924
-0.0050718
-0.00499385
-0.00479274
-0.00454741
-0.0043839
-0.0043133
-0.0042529
-0.00419112
-0.00413477
-0.00404745
-0.00394826
-0.0039114
-0.00394752
-0.00395481
-0.00386351
-0.00373889
-0.0036252
-0.00344567
-0.00323049
-0.00308484
-0.00297945
-0.00284227
-0.00270447
-0.00259172
-0.00248194
-0.00235491
-0.00222576
-0.00207939
-0.00192461
-0.00178314
-0.00166098
-0.00153459
-0.00139748
-0.00126686
-0.00114127
-0.000950653
-0.000718253
-0.000514969
-0.000319984
-0.000124119
5.50245e-05
0.000204366
0.000384009
0.000587993
0.000786948
0.000973304
0.00118079
0.00137779
0.0016077
0.00186454
0.00211795
0.00233897
0.00251803
0.00271738
0.00294584
0.0032114
0.00348532
0.00373317
0.00399611
0.00424677
0.00451185
0.00476079
0.00502851
0.00529578
0.00557297
0.00585912
0.00613207
0.00645462
0.0067645
0.00710226
0.00742611
0.00778465
0.00811718
0.00854772
0.00893654
0.00939679
0.00989895
0.010503
0.0113707
0.000231777
0.000280894
-0.00515221
-0.0105552
-0.012094
-0.0110185
-0.00934725
-0.00787608
-0.00687802
-0.00645837
-0.00637457
-0.00620895
-0.00581478
-0.00538062
-0.00509441
-0.00497188
-0.00495191
-0.00496559
-0.00497292
-0.00499594
-0.0050463
-0.00506913
-0.00499094
-0.00478966
-0.00454451
-0.00438145
-0.00431127
-0.00425101
-0.00418927
-0.00413308
-0.00404593
-0.00394683
-0.00391006
-0.00394638
-0.0039539
-0.00386269
-0.00373809
-0.0036245
-0.00344497
-0.00322973
-0.00308416
-0.0029789
-0.00284173
-0.00270394
-0.00259124
-0.00248151
-0.00235448
-0.00222537
-0.00207903
-0.00192423
-0.00178275
-0.00166061
-0.00153425
-0.00139715
-0.00126654
-0.00114101
-0.000950411
-0.000717964
-0.000514683
-0.000319712
-0.000123845
5.52916e-05
0.000204595
0.000384219
0.00058822
0.000787176
0.000973512
0.001181
0.00137798
0.00160786
0.00186472
0.00211815
0.00233918
0.00251819
0.00271751
0.00294597
0.00321153
0.00348546
0.00373331
0.00399623
0.00424689
0.00451196
0.0047609
0.00502861
0.00529588
0.00557306
0.00585922
0.00613215
0.00645471
0.00676458
0.00710235
0.00742619
0.00778473
0.00811725
0.00854779
0.0089366
0.00939682
0.009899
0.010503
0.0113713
-0.000173009
0.000188457
-0.00480695
-0.0101818
-0.0118981
-0.0109366
-0.00930016
-0.00783907
-0.00685276
-0.00644327
-0.00636013
-0.0061908
-0.00579747
-0.00536953
-0.00509008
-0.00497069
-0.00494974
-0.00496097
-0.00496741
-0.00499172
-0.0050434
-0.00506615
-0.00498701
-0.00478524
-0.00454053
-0.00437833
-0.00430876
-0.00424861
-0.00418676
-0.00413066
-0.00404381
-0.00394498
-0.00390832
-0.00394477
-0.00395257
-0.00386159
-0.00373708
-0.00362353
-0.00344401
-0.00322878
-0.00308333
-0.00297819
-0.00284107
-0.00270333
-0.00259071
-0.002481
-0.00235399
-0.00222493
-0.00207863
-0.0019238
-0.00178232
-0.0016602
-0.00153388
-0.00139681
-0.0012662
-0.00114072
-0.000950141
-0.000717646
-0.000514371
-0.000319409
-0.000123545
5.55761e-05
0.000204836
0.000384444
0.000588464
0.00078742
0.000973736
0.00118122
0.00137819
0.00160804
0.00186492
0.00211838
0.00233942
0.00251837
0.00271765
0.00294612
0.00321168
0.00348562
0.00373345
0.00399637
0.00424702
0.00451209
0.00476102
0.00502872
0.00529599
0.00557316
0.00585932
0.00613224
0.00645481
0.00676468
0.00710244
0.00742628
0.00778482
0.00811731
0.00854786
0.00893666
0.00939683
0.00989901
0.0105029
0.0113722
-0.000586976
3.08069e-05
-0.00446574
-0.00978136
-0.0116838
-0.0108482
-0.0092491
-0.00779687
-0.00682279
-0.00642557
-0.00634397
-0.00617018
-0.00577704
-0.00535587
-0.00508451
-0.00496953
-0.00494785
-0.00495613
-0.00496148
-0.00498765
-0.00504105
-0.0050632
-0.00498206
-0.00477925
-0.00453519
-0.00437427
-0.00430558
-0.00424559
-0.00418342
-0.00412723
-0.00404088
-0.0039426
-0.00390599
-0.00394237
-0.00395052
-0.00386005
-0.00373572
-0.00362214
-0.00344265
-0.00322758
-0.00308229
-0.00297723
-0.00284019
-0.0027026
-0.00259008
-0.00248039
-0.00235338
-0.00222441
-0.00207816
-0.00192332
-0.00178181
-0.00165972
-0.00153347
-0.00139644
-0.00126584
-0.00114039
-0.000949824
-0.000717297
-0.000514026
-0.000319063
-0.000123214
5.58766e-05
0.000205092
0.000384688
0.000588723
0.000787677
0.000973977
0.00118146
0.00137841
0.00160823
0.00186514
0.00211864
0.00233968
0.00251856
0.00271781
0.00294628
0.00321184
0.00348581
0.00373362
0.00399653
0.00424716
0.00451223
0.00476116
0.00502884
0.00529611
0.00557327
0.00585944
0.00613233
0.0064549
0.00676478
0.00710253
0.00742636
0.00778491
0.00811738
0.00854793
0.00893673
0.00939681
0.00989897
0.0105026
0.0113733
-0.000996426
-0.000174916
-0.0041216
-0.00934987
-0.0114502
-0.0107557
-0.00919778
-0.00775287
-0.00678972
-0.0064055
-0.00632658
-0.00614864
-0.00575554
-0.00534109
-0.00507799
-0.00496769
-0.00494543
-0.00495081
-0.00495544
-0.00498428
-0.00503983
-0.00506077
-0.00497646
-0.00477188
-0.00452852
-0.00436913
-0.0043015
-0.00424178
-0.00417914
-0.0041227
-0.00403712
-0.00393977
-0.00390305
-0.00393892
-0.00394742
-0.00385783
-0.00373384
-0.00362011
-0.00344076
-0.00322608
-0.00308097
-0.0029759
-0.00283901
-0.00270169
-0.0025893
-0.00247961
-0.00235262
-0.00222376
-0.00207761
-0.00192275
-0.00178118
-0.00165911
-0.00153298
-0.00139605
-0.00126545
-0.00114
-0.00094945
-0.000716916
-0.000513635
-0.000318655
-0.000122845
5.61968e-05
0.000205373
0.000384959
0.000588996
0.000787943
0.000974235
0.00118173
0.00137865
0.00160844
0.00186538
0.00211893
0.00233998
0.00251877
0.00271798
0.00294646
0.00321203
0.00348602
0.00373382
0.00399672
0.00424733
0.00451239
0.00476131
0.00502897
0.00529625
0.00557339
0.00585956
0.00613242
0.00645501
0.00676488
0.00710264
0.00742646
0.00778501
0.00811745
0.008548
0.0089368
0.00939675
0.00989886
0.0105023
0.0113746
-0.00137904
-0.000415749
-0.00378066
-0.00889416
-0.0112001
-0.0106616
-0.00914828
-0.0077083
-0.00675394
-0.00638299
-0.00630802
-0.00612654
-0.00573348
-0.00532565
-0.00507075
-0.0049651
-0.00494231
-0.00494504
-0.00494956
-0.00498197
-0.00504007
-0.00505931
-0.00497072
-0.00476359
-0.00452082
-0.00436301
-0.00429645
-0.00423704
-0.00417382
-0.00411704
-0.00403261
-0.00393669
-0.00389971
-0.00393449
-0.00394318
-0.0038548
-0.00373123
-0.00361721
-0.00343818
-0.00322428
-0.00307936
-0.00297415
-0.00283746
-0.00270052
-0.0025883
-0.0024786
-0.00235166
-0.00222297
-0.00207695
-0.00192205
-0.00178036
-0.00165828
-0.00153234
-0.00139559
-0.00126499
-0.00113951
-0.000949015
-0.000716511
-0.000513188
-0.000318163
-0.00012242
5.65499e-05
0.0002057
0.000385275
0.000589286
0.000788216
0.000974506
0.00118201
0.00137891
0.00160867
0.00186565
0.00211925
0.00234031
0.002519
0.00271818
0.00294667
0.00321226
0.00348626
0.00373406
0.00399694
0.00424753
0.00451258
0.0047615
0.00502913
0.00529641
0.00557352
0.00585969
0.00613253
0.00645513
0.006765
0.00710275
0.00742655
0.00778511
0.00811753
0.00854807
0.00893689
0.00939664
0.00989867
0.0105018
0.0113761
-0.00171892
-0.00068859
-0.00346053
-0.00842353
-0.0109332
-0.0105641
-0.00909955
-0.0076628
-0.00671529
-0.00635787
-0.00628817
-0.00610383
-0.00571074
-0.00530946
-0.00506291
-0.00496208
-0.0049389
-0.00493924
-0.00494414
-0.00498088
-0.00504188
-0.00505905
-0.00496525
-0.00475481
-0.00451239
-0.00435616
-0.0042906
-0.0042314
-0.00416744
-0.00411029
-0.00402744
-0.00393351
-0.00389628
-0.00392944
-0.00393809
-0.00385106
-0.00372785
-0.00361329
-0.00343478
-0.0032221
-0.00307749
-0.00297203
-0.00283557
-0.00269908
-0.002587