/*--------------------------------*- C++ -*----------------------------------*\
| =========                 |                                                 |
| \\      /  F ield         | OpenFOAM: The Open Source CFD Toolbox           |
|  \\    /   O peration     | Version:  v1812                                 |
|   \\  /    A nd           | Web:      www.OpenFOAM.com                      |
|    \\/     M anipulation  |                                                 |
\*---------------------------------------------------------------------------*/
FoamFile
{
    version     2.0;
    format      ascii;
    class       volVectorField;
    location    "7.3";
    object      U;
}
// * * * * * * * * * * * * * * * * * * * * * * * * * * * * * * * * * * * * * //

dimensions      [0 1 -1 0 0 0 0];


internalField   nonuniform List<vector> 
9600
(
(0.942042 -0.00135244 0)
(1.00208 -0.00115244 0)
(0.98862 -0.00563837 0)
(1.02581 0.000754886 0)
(0.994504 0.0226678 0)
(1.00829 -0.00429165 0)
(0.91967 0.012897 0)
(0.991892 -0.020039 0)
(0.920282 -0.025449 0)
(0.969807 -0.0189316 0)
(1.00114 -0.0110864 0)
(1.02979 -0.0275128 0)
(0.98056 0.0253445 0)
(1.09775 -0.0171212 0)
(0.922847 0.0379606 0)
(1.12503 0.00558129 0)
(0.877503 0.0365387 0)
(1.12 0.010674 0)
(0.835424 0.0236338 0)
(1.10716 0.0126134 0)
(0.948515 -0.00098207 0)
(0.999637 -0.00147665 0)
(0.991632 -0.00587601 0)
(1.02449 0.000710467 0)
(0.996269 0.0225849 0)
(1.00569 -0.00340148 0)
(0.928847 0.0129209 0)
(0.982633 -0.0199054 0)
(0.932482 -0.0251836 0)
(0.96058 -0.0200877 0)
(1.00017 -0.0123483 0)
(1.01986 -0.0269439 0)
(0.987046 0.0238692 0)
(1.0807 -0.015274 0)
(0.940723 0.0367825 0)
(1.08878 0.00781042 0)
(0.922415 0.036388 0)
(1.04982 0.0119572 0)
(0.928423 0.0254563 0)
(0.989616 0.0118801 0)
(0.959713 -0.000663212 0)
(0.995441 -0.00177127 0)
(0.995967 -0.00609563 0)
(1.02149 0.000698454 0)
(0.999383 0.0227293 0)
(1.00437 -0.00265339 0)
(0.940834 0.0130112 0)
(0.980867 -0.0198274 0)
(0.947103 -0.0250019 0)
(0.955171 -0.02096 0)
(0.99776 -0.0132103 0)
(1.01142 -0.0266348 0)
(0.995328 0.0223456 0)
(1.06249 -0.0141115 0)
(0.967046 0.0357742 0)
(1.0561 0.00869883 0)
(0.96726 0.0360903 0)
(1.01857 0.0127459 0)
(0.980178 0.0252479 0)
(0.989112 0.0127481 0)
(0.972882 -0.000406491 0)
(0.991434 -0.00198957 0)
(0.999786 -0.00631341 0)
(1.01719 0.000714361 0)
(1.00224 0.0228879 0)
(1.00392 -0.00203351 0)
(0.953664 0.0131414 0)
(0.982273 -0.0197605 0)
(0.95775 -0.0247451 0)
(0.954219 -0.021553 0)
(0.993825 -0.0140473 0)
(1.00493 -0.0266038 0)
(1.00152 0.0212713 0)
(1.04684 -0.0134292 0)
(0.989076 0.035563 0)
(1.03736 0.00889624 0)
(0.994964 0.0365678 0)
(1.01639 0.0128357 0)
(1.00236 0.0250695 0)
(1.00948 0.0134639 0)
(0.984985 -0.000200254 0)
(0.98965 -0.00214805 0)
(1.00215 -0.00652425 0)
(1.01191 0.00072801 0)
(1.00323 0.0229515 0)
(1.0036 -0.00149532 0)
(0.965565 0.0132379 0)
(0.987002 -0.0196314 0)
(0.965626 -0.0244301 0)
(0.956433 -0.021962 0)
(0.989874 -0.0148762 0)
(0.998986 -0.0266338 0)
(1.00345 0.0202913 0)
(1.0365 -0.012795 0)
(1.00084 0.035313 0)
(1.02945 0.0094222 0)
(1.00866 0.0365665 0)
(1.02188 0.0132795 0)
(1.01465 0.0248407 0)
(1.0219 0.0142639 0)
(0.993922 -5.4831e-05 0)
(0.990572 -0.00224798 0)
(1.00318 -0.00669339 0)
(1.00571 0.000754945 0)
(1.002 0.0229568 0)
(1.0029 -0.0010583 0)
(0.976659 0.0132615 0)
(0.992944 -0.0194276 0)
(0.971546 -0.0240713 0)
(0.959842 -0.0222384 0)
(0.986964 -0.0155843 0)
(0.992833 -0.0267258 0)
(1.00201 0.0193078 0)
(1.02912 -0.0123306 0)
(1.00526 0.0348504 0)
(1.02581 0.00990974 0)
(1.0157 0.0357913 0)
(1.0267 0.0138731 0)
(1.02319 0.0240102 0)
(1.02875 0.0149827 0)
(0.999204 2.94996e-05 0)
(0.993082 -0.00230022 0)
(1.00332 -0.00678811 0)
(0.99895 0.000814356 0)
(0.99974 0.0229136 0)
(1.00204 -0.000750018 0)
(0.987419 0.0131924 0)
(0.99925 -0.0191311 0)
(0.976609 -0.0236645 0)
(0.963679 -0.0223938 0)
(0.985341 -0.0161558 0)
(0.986965 -0.026809 0)
(0.998784 0.0182571 0)
(1.0227 -0.0119567 0)
(1.00633 0.0342112 0)
(1.02413 0.0103143 0)
(1.02052 0.0347613 0)
(1.03061 0.0145372 0)
(1.02958 0.0229018 0)
(1.03347 0.0159431 0)
(1.00162 6.67776e-05 0)
(0.995705 -0.00232212 0)
(1.00275 -0.00679565 0)
(0.992493 0.000893736 0)
(0.998339 0.0228029 0)
(1.00163 -0.000581735 0)
(0.998013 0.0130255 0)
(1.00531 -0.018736 0)
(0.981338 -0.0232094 0)
(0.96782 -0.0224479 0)
(0.984812 -0.01659 0)
(0.98191 -0.0268407 0)
(0.995142 0.0171449 0)
(1.01665 -0.0116379 0)
(1.00652 0.0333558 0)
(1.0234 0.0106896 0)
(1.02471 0.0335794 0)
(1.03396 0.0152204 0)
(1.03426 0.0218318 0)
(1.03678 0.0170458 0)
(1.00237 7.52369e-05 0)
(0.997624 -0.00232425 0)
(1.00153 -0.0067239 0)
(0.987308 0.000960034 0)
(0.999222 0.0226151 0)
(1.0021 -0.000539005 0)
(1.00788 0.0127682 0)
(1.01071 -0.0182328 0)
(0.98593 -0.0227184 0)
(0.972268 -0.0224086 0)
(0.985052 -0.0168913 0)
(0.977738 -0.0268011 0)
(0.991974 0.0159924 0)
(1.01129 -0.0113715 0)
(1.00685 0.0322576 0)
(1.02324 0.011042 0)
(1.02841 0.0321663 0)
(1.03673 0.0159572 0)
(1.03734 0.0207783 0)
(1.03856 0.0181451 0)
(1.00243 6.87639e-05 0)
(0.998774 -0.00230815 0)
(0.999856 -0.00659078 0)
(0.983921 0.000975729 0)
(1.00238 0.0223515 0)
(1.00348 -0.000586471 0)
(1.01593 0.01244 0)
(1.01506 -0.017627 0)
(0.990311 -0.0222118 0)
(0.976816 -0.0222787 0)
(0.985768 -0.0170527 0)
(0.974202 -0.0266878 0)
(0.989691 0.0147854 0)
(1.00672 -0.0111464 0)
(1.00753 0.0309115 0)
(1.02333 0.0113724 0)
(1.03121 0.030562 0)
(1.0385 0.016789 0)
(1.03872 0.0197721 0)
(1.03859 0.0192199 0)
(1.00234 5.54941e-05 0)
(0.999403 -0.00227386 0)
(0.99817 -0.00641679 0)
(0.982293 0.000916665 0)
(1.00641 0.0220186 0)
(1.00539 -0.000677242 0)
(1.02109 0.0120641 0)
(1.0181 -0.0169436 0)
(0.99426 -0.0217084 0)
(0.981021 -0.0220614 0)
(0.986745 -0.0170637 0)
(0.971183 -0.0265027 0)
(0.988158 0.0135116 0)
(1.0026 -0.0109468 0)
(1.00808 0.0293229 0)
(1.02307 0.011699 0)
(1.03246 0.0288473 0)
(1.0386 0.0177102 0)
(1.03813 0.0188998 0)
(1.03672 0.0202304 0)
(1.00229 3.8574e-05 0)
(0.999721 -0.00222329 0)
(0.996892 -0.00621977 0)
(0.982037 0.000786279 0)
(1.00952 0.0216292 0)
(1.00738 -0.00076873 0)
(1.02299 0.0116602 0)
(1.01977 -0.0162223 0)
(0.997552 -0.021224 0)
(0.984399 -0.0217636 0)
(0.98781 -0.0169306 0)
(0.968948 -0.0262384 0)
(0.986798 0.0121882 0)
(0.998433 -0.010752 0)
(1.00748 0.0275207 0)
(1.02154 0.0120514 0)
(1.03138 0.0270964 0)
(1.03638 0.0186813 0)
(1.03535 0.0182145 0)
(1.03296 0.0211141 0)
(1.00232 1.9115e-05 0)
(0.999844 -0.00216034 0)
(0.996204 -0.00601293 0)
(0.982669 0.000608188 0)
(1.01066 0.0211981 0)
(1.00906 -0.000834307 0)
(1.02219 0.0112431 0)
(1.02027 -0.015506 0)
(1.00009 -0.0207632 0)
(0.986697 -0.0213973 0)
(0.988797 -0.0166907 0)
(0.967931 -0.0258736 0)
(0.985004 0.010849 0)
(0.994094 -0.010507 0)
(1.00482 0.0255513 0)
(1.01797 0.0124579 0)
(1.02752 0.0253639 0)
(1.03159 0.0196543 0)
(1.03045 0.0177485 0)
(1.02765 0.021804 0)
(1.0024 -2.34406e-06 0)
(0.99985 -0.00208903 0)
(0.996028 -0.00580603 0)
(0.983743 0.000414574 0)
(1.00995 0.0207388 0)
(1.01019 -0.000865908 0)
(1.01982 0.010822 0)
(1.01995 -0.0148258 0)
(1.00195 -0.020322 0)
(0.988022 -0.0209736 0)
(0.989574 -0.0164005 0)
(0.968278 -0.0253889 0)
(0.982608 0.00954267 0)
(0.989896 -0.0101679 0)
(1.00002 0.0235005 0)
(1.01233 0.0129105 0)
(1.02123 0.0236884 0)
(1.02471 0.0205505 0)
(1.02406 0.0174832 0)
(1.02142 0.022231 0)
(1.00246 -2.50539e-05 0)
(0.999814 -0.0020146 0)
(0.996179 -0.00560418 0)
(0.984915 0.000234858 0)
(1.00817 0.0202609 0)
(1.01071 -0.000868334 0)
(1.01702 0.0103985 0)
(1.01916 -0.0141926 0)
(1.00328 -0.0198973 0)
(0.988727 -0.0204986 0)
(0.990097 -0.0161093 0)
(0.969637 -0.0247777 0)
(0.979947 0.00831858 0)
(0.986287 -0.00971038 0)
(0.993975 0.0214627 0)
(1.00546 0.0133831 0)
(1.01369 0.0221151 0)
(1.01684 0.0212925 0)
(1.01716 0.0173981 0)
(1.01511 0.022363 0)
(1.0025 -4.81889e-05 0)
(0.999783 -0.00194209 0)
(0.996482 -0.00540646 0)
(0.985975 8.2295e-05 0)
(1.00614 0.0197718 0)
(1.01073 -0.000849448 0)
(1.01448 0.00996988 0)
(1.01819 -0.013602 0)
(1.00419 -0.0194912 0)
(0.989166 -0.0199703 0)
(0.990417 -0.0158489 0)
(0.971411 -0.0240438 0)
(0.977516 0.00719565 0)
(0.983504 -0.00911059 0)
(0.987967 0.0195099 0)
(0.998516 0.0138626 0)
(1.00628 0.0206515 0)
(1.00921 0.0218297 0)
(1.0107 0.0174779 0)
(1.00944 0.022197 0)
(1.00248 -7.18533e-05 0)
(0.999773 -0.00187316 0)
(0.996816 -0.00520951 0)
(0.98685 -4.24914e-05 0)
(1.00435 0.0192783 0)
(1.01042 -0.000817043 0)
(1.01246 0.00953187 0)
(1.0172 -0.0130435 0)
(1.0048 -0.0191052 0)
(0.989529 -0.019395 0)
(0.990626 -0.0156255 0)
(0.973133 -0.0232045 0)
(0.975628 0.0061706 0)
(0.981511 -0.00837302 0)
(0.982943 0.0176758 0)
(0.992401 0.0143392 0)
(0.999971 0.0193146 0)
(1.00268 0.022121 0)
(1.00526 0.017664 0)
(1.00483 0.0217715 0)
(1.00243 -9.54732e-05 0)
(0.999777 -0.00180909 0)
(0.997112 -0.00500984 0)
(0.987555 -0.000144636 0)
(1.00296 0.0187839 0)
(1.00997 -0.000775426 0)
(1.01094 0.00908063 0)
(1.01624 -0.0125032 0)
(1.00515 -0.0187412 0)
(0.989858 -0.0187792 0)
(0.990788 -0.0154302 0)
(0.97461 -0.0222784 0)
(0.974346 0.00522579 0)
(0.980153 -0.00753694 0)
(0.979268 0.0159902 0)
(0.987532 0.0147677 0)
(0.995132 0.0181299 0)
(0.997598 0.022178 0)
(1.00105 0.0179112 0)
(1.00138 0.0211643 0)
(1.00234 -0.000118666 0)
(0.999788 -0.0017499 0)
(0.997335 -0.00480584 0)
(0.988139 -0.000229462 0)
(1.00197 0.018287 0)
(1.00952 -0.000725108 0)
(1.00982 0.00861228 0)
(1.01534 -0.0119703 0)
(1.00531 -0.0183995 0)
(0.990136 -0.018125 0)
(0.990919 -0.0152526 0)
(0.975842 -0.0212838 0)
(0.973599 0.00435634 0)
(0.979297 -0.00663892 0)
(0.9769 0.0144633 0)
(0.983952 0.0151136 0)
(0.991727 0.0171128 0)
(0.99396 0.0220243 0)
(0.997984 0.0181681 0)
(0.998995 0.0204483 0)
(1.00224 -0.000141014 0)
(0.999801 -0.00169651 0)
(0.99748 -0.0045943 0)
(0.988647 -0.000303288 0)
(1.00129 0.0177844 0)
(1.00911 -0.00066738 0)
(1.00899 0.00813045 0)
(1.0145 -0.0114363 0)
(1.00534 -0.0180749 0)
(0.990355 -0.0174421 0)
(0.991009 -0.0150797 0)
(0.976892 -0.0202468 0)
(0.97328 0.00356867 0)
(0.978847 -0.00572185 0)
(0.975623 0.0130938 0)
(0.981524 0.0153727 0)
(0.989523 0.0162401 0)
(0.991565 0.0216563 0)
(0.995866 0.0184043 0)
(0.997468 0.0196897 0)
(1.00212 -0.000161849 0)
(0.99981 -0.00164967 0)
(0.99756 -0.00437316 0)
(0.989108 -0.000372547 0)
(1.00085 0.0172766 0)
(1.00876 -0.000602235 0)
(1.00837 0.00763704 0)
(1.0137 -0.0108928 0)
(1.00527 -0.0177642 0)
(0.990525 -0.0167388 0)
(0.991049 -0.0149001 0)
(0.977819 -0.0191974 0)
(0.973285 0.00286402 0)
(0.978726 -0.00481745 0)
(0.97518 0.0118603 0)
(0.980036 0.0155378 0)
(0.988239 0.0154992 0)
(0.990158 0.0211115 0)
(0.994477 0.0186187 0)
(0.996579 0.0189432 0)
(1.00201 -0.000180422 0)
(0.999811 -0.00160956 0)
(0.997602 -0.00414288 0)
(0.989542 -0.000440227 0)
(1.00056 0.0167605 0)
(1.00845 -0.000525539 0)
(1.00789 0.00712747 0)
(1.01294 -0.0103345 0)
(1.00513 -0.0174634 0)
(0.990663 -0.0160164 0)
(0.991039 -0.0147083 0)
(0.978669 -0.0181653 0)
(0.973521 0.00224224 0)
(0.978852 -0.00395469 0)
(0.975329 0.0107354 0)
(0.979266 0.0156071 0)
(0.987602 0.0148947 0)
(0.989481 0.0204344 0)
(0.993609 0.0187929 0)
(0.996119 0.0182545 0)
(1.00192 -0.000197263 0)
(0.999793 -0.00157467 0)
(0.997627 -0.00390327 0)
(0.989958 -0.000509137 0)
(1.00036 0.0162328 0)
(1.00816 -0.00043552 0)
(1.0075 0.00660319 0)
(1.01222 -0.0097599 0)
(1.00495 -0.0171665 0)
(0.990786 -0.0152833 0)
(0.990994 -0.0144921 0)
(0.979478 -0.0171687 0)
(0.973913 0.00170573 0)
(0.979154 -0.003163 0)
(0.97587 0.00973027 0)
(0.979005 0.0155698 0)
(0.987383 0.0144149 0)
(0.989311 0.0196596 0)
(0.99309 0.0189048 0)
(0.995913 0.0176525 0)
(1.00185 -0.000211875 0)
(0.999752 -0.0015457 0)
(0.997657 -0.00365416 0)
(0.990368 -0.000578406 0)
(1.00022 0.0156932 0)
(1.00788 -0.000331272 0)
(1.00717 0.00606588 0)
(1.01154 -0.00917108 0)
(1.00475 -0.0168683 0)
(0.990909 -0.0145517 0)
(0.99093 -0.0142334 0)
(0.980267 -0.0162302 0)
(0.974413 0.00126323 0)
(0.979567 -0.00243038 0)
(0.976656 0.00883746 0)
(0.979089 0.0154347 0)
(0.98741 0.0140217 0)
(0.989469 0.0188064 0)
(0.992796 0.0189483 0)
(0.995836 0.017155 0)
(1.00181 -0.00022328 0)
(0.999684 -0.00152455 0)
(0.997701 -0.00339806 0)
(0.990778 -0.000647089 0)
(1.00009 0.0151398 0)
(1.00759 -0.000213662 0)
(1.00687 0.00551783 0)
(1.01088 -0.00857243 0)
(1.00455 -0.0165594 0)
(0.991041 -0.0138327 0)
(0.990862 -0.0139257 0)
(0.981048 -0.015356 0)
(0.974994 0.000902003 0)
(0.980039 -0.00177064 0)
(0.977587 0.00802561 0)
(0.97939 0.0152154 0)
(0.987562 0.0137003 0)
(0.989833 0.0178964 0)
(0.992648 0.0189125 0)
(0.995793 0.0167751 0)
(1.00179 -0.000231756 0)
(0.99959 -0.00150955 0)
(0.997762 -0.00313509 0)
(0.991193 -0.000715423 0)
(0.999967 0.0145753 0)
(1.00729 -8.01797e-05 0)
(1.0066 0.00495994 0)
(1.01026 -0.00796324 0)
(1.00436 -0.0162354 0)
(0.991191 -0.0131379 0)
(0.990804 -0.0135526 0)
(0.98182 -0.0145538 0)
(0.975636 0.000603474 0)
(0.980527 -0.00117734 0)
(0.978599 0.0072732 0)
(0.979826 0.0149121 0)
(0.987761 0.0134808 0)
(0.990311 0.0169591 0)
(0.992602 0.0187544 0)
(0.995726 0.0165335 0)
(1.0018 -0.00023687 0)
(0.999475 -0.00150038 0)
(0.997838 -0.00286698 0)
(0.991613 -0.000775709 0)
(0.99984 0.0139949 0)
(1.00699 7.28705e-05 0)
(1.00634 0.00439704 0)
(1.00965 -0.0073487 0)
(1.0042 -0.0158905 0)
(0.991363 -0.0124722 0)
(0.990765 -0.0131067 0)
(0.982581 -0.0138273 0)
(0.976331 0.000366042 0)
(0.981 -0.000625953 0)
(0.979646 0.00658857 0)
(0.980346 0.0145299 0)
(0.98796 0.013344 0)
(0.990835 0.0160181 0)
(0.992645 0.0184436 0)
(0.995612 0.0164241 0)
(1.00181 -0.000238753 0)
(0.999349 -0.00149732 0)
(0.997919 -0.00259848 0)
(0.992036 -0.000827636 0)
(0.99971 0.0133959 0)
(1.00668 0.00024097 0)
(1.00609 0.00382427 0)
(1.00905 -0.00674525 0)
(1.00407 -0.0155118 0)
(0.991558 -0.011846 0)
(0.990747 -0.0125828 0)
(0.983328 -0.0131642 0)
(0.977073 0.000170017 0)
(0.981439 -0.000121075 0)
(0.980698 0.00596715 0)
(0.98092 0.0140702 0)
(0.988134 0.0132562 0)
(0.99136 0.0151139 0)
(0.992774 0.0179673 0)
(0.995449 0.016393 0)
(1.00182 -0.000235786 0)
(0.999223 -0.00150112 0)
(0.997998 -0.0023319 0)
(0.992458 -0.000868542 0)
(0.999584 0.0127799 0)
(1.00638 0.000422775 0)
(1.00586 0.00325001 0)
(1.00846 -0.00615723 0)
(1.00396 -0.0150952 0)
(0.991776 -0.011267 0)
(0.990752 -0.0119945 0)
(0.984061 -0.0125465 0)
(0.97786 -2.90213e-06 0)
(0.981844 0.000363627 0)
(0.981733 0.00539236 0)
(0.981539 0.0135428 0)
(0.988278 0.013217 0)
(0.991853 0.0142837 0)
(0.992989 0.0173263 0)
(0.995254 0.0163857 0)
(1.00182 -0.00022966 0)
(0.999107 -0.00150727 0)
(0.99807 -0.00207233 0)
(0.992876 -0.000893508 0)
(0.999468 0.0121454 0)
(1.00606 0.000616867 0)
(1.00562 0.00269272 0)
(1.00786 -0.00559142 0)
(1.00386 -0.0146333 0)
(0.992014 -0.0107448 0)
(0.990775 -0.0113419 0)
(0.984781 -0.0119567 0)
(0.978689 -0.000165054 0)
(0.982218 0.000835268 0)
(0.982737 0.00489051 0)
(0.98221 0.0129351 0)
(0.988395 0.0131981 0)
(0.992287 0.0135652 0)
(0.993287 0.0165355 0)
(0.995061 0.0163226 0)
(1.00181 -0.000220341 0)
(0.999009 -0.00151587 0)
(0.998132 -0.00181869 0)
(0.993288 -0.000899614 0)
(0.999371 0.0114968 0)
(1.00575 0.000815827 0)
(1.0054 0.00214442 0)
(1.00726 -0.0050558 0)
(1.00375 -0.014121 0)
(0.992274 -0.0102782 0)
(0.990813 -0.0106273 0)
(0.985487 -0.011389 0)
(0.979561 -0.000323818 0)
(0.982583 0.00129532 0)
(0.983698 0.00446931 0)
(0.982938 0.0122408 0)
(0.988505 0.0131407 0)
(0.992649 0.0129879 0)
(0.993653 0.0156442 0)
(0.99491 0.0161302 0)
(1.00179 -0.000205922 0)
(0.998934 -0.00152719 0)
(0.998183 -0.00157715 0)
(0.993693 -0.000885843 0)
(0.999299 0.0108372 0)
(1.00542 0.00101389 0)
(1.00518 0.00161784 0)
(1.00665 -0.00455356 0)
(1.00364 -0.0135555 0)
(0.992556 -0.00986556 0)
(0.990862 -0.00988292 0)
(0.986181 -0.0108136 0)
(0.980477 -0.000482989 0)
(0.982949 0.00174453 0)
(0.984605 0.00414043 0)
(0.983729 0.0114845 0)
(0.988632 0.0130301 0)
(0.992934 0.0125435 0)
(0.994063 0.0147175 0)
(0.994839 0.0157844 0)
(1.00175 -0.000189303 0)
(0.998882 -0.00153735 0)
(0.998227 -0.00134998 0)
(0.99409 -0.000854162 0)
(0.999253 0.0101657 0)
(1.00508 0.00121263 0)
(1.00496 0.00112858 0)
(1.00605 -0.0040936 0)
(1.00351 -0.0129339 0)
(0.99286 -0.00950094 0)
(0.990924 -0.00912345 0)
(0.986858 -0.010216 0)
(0.981433 -0.000657257 0)
(0.983338 0.0021613 0)
(0.985451 0.00392717 0)
(0.984579 0.0106835 0)
(0.988802 0.0128424 0)
(0.993144 0.012207 0)
(0.994493 0.013828 0)
(0.994874 0.0152751 0)
(1.00171 -0.000169781 0)
(0.998851 -0.00154547 0)
(0.998265 -0.00113697 0)
(0.994478 -0.000804818 0)
(0.999235 0.00948974 0)
(1.00473 0.00140612 0)
(1.00474 0.000676473 0)
(1.00545 -0.00368222 0)
(1.00335 -0.0122631 0)
(0.993185 -0.00917242 0)
(0.991001 -0.00836318 0)
(0.987512 -0.00959034 0)
(0.982427 -0.000843541 0)
(0.983762 0.00252697 0)
(0.986232 0.00382394 0)
(0.985477 0.00986386 0)
(0.989035 0.0125514 0)
(0.993294 0.0119541 0)
(0.994912 0.0130338 0)
(0.995022 0.0146072 0)
(1.00166 -0.000147238 0)
(0.998837 -0.00155027 0)
(0.998301 -0.000940894 0)
(0.994855 -0.000741388 0)
(0.999242 0.00881586 0)
(1.00437 0.00158712 0)
(1.00452 0.000272251 0)
(1.00488 -0.00332383 0)
(1.00316 -0.0115499 0)
(0.99353 -0.00887291 0)
(0.991099 -0.00762303 0)
(0.988136 -0.00891488 0)
(0.98345 -0.00103391 0)
(0.984232 0.00282761 0)
(0.986946 0.00382846 0)
(0.986403 0.00906372 0)
(0.989352 0.0121539 0)
(0.993408 0.0117411 0)
(0.995291 0.012355 0)
(0.995271 0.0138254 0)
(1.0016 -0.000123723 0)
(0.998836 -0.00154919 0)
(0.998338 -0.00075835 0)
(0.995219 -0.000668061 0)
(0.99927 0.00814366 0)
(1.00401 0.00175442 0)
(1.00431 -8.12183e-05 0)
(1.00433 -0.00302056 0)
(1.00296 -0.0107986 0)
(0.99389 -0.00858809 0)
(0.991225 -0.00691932 0)
(0.988723 -0.0081954 0)
(0.984491 -0.00121834 0)
(0.984757 0.0030529 0)
(0.987597 0.00391269 0)
(0.987332 0.00832635 0)
(0.989753 0.0116587 0)
(0.993507 0.0115166 0)
(0.995612 0.0117992 0)
(0.995593 0.0130106 0)
(1.00154 -9.92634e-05 0)
(0.998845 -0.00154239 0)
(0.998377 -0.000591012 0)
(0.995569 -0.000582082 0)
(0.999316 0.00747777 0)
(1.00364 0.00190636 0)
(1.00409 -0.000383675 0)
(1.00381 -0.00277074 0)
(1.00273 -0.0100182 0)
(0.994261 -0.0083058 0)
(0.991386 -0.00625767 0)
(0.989271 -0.00744875 0)
(0.985537 -0.00137912 0)
(0.98534 0.0031922 0)
(0.98819 0.00405391 0)
(0.988243 0.00767626 0)
(0.990236 0.0110861 0)
(0.993621 0.0112581 0)
(0.995873 0.0113565 0)
(0.995947 0.0122477 0)
(1.00148 -7.23898e-05 0)
(0.998862 -0.00153253 0)
(0.99842 -0.000438046 0)
(0.995901 -0.000490512 0)
(0.999377 0.00682126 0)
(1.00327 0.00203669 0)
(1.00387 -0.000620856 0)
(1.00333 -0.00256682 0)
(1.0025 -0.00922398 0)
(0.99464 -0.00800644 0)
(0.991586 -0.00566402 0)
(0.98978 -0.00667102 0)
(0.986576 -0.00150119 0)
(0.985983 0.00324684 0)
(0.988739 0.00422407 0)
(0.989114 0.00713365 0)
(0.990786 0.0104627 0)
(0.993769 0.0109494 0)
(0.996083 0.0109767 0)
(0.996293 0.0115884 0)
(1.00141 -4.60341e-05 0)
(0.998885 -0.00151769 0)
(0.998469 -0.000297263 0)
(0.996215 -0.00039263 0)
(0.999452 0.00618082 0)
(1.0029 0.00213877 0)
(1.00365 -0.000797465 0)
(1.00289 -0.00240957 0)
(1.00225 -0.00842847 0)
(0.995018 -0.00768176 0)
(0.991832 -0.00513697 0)
(0.990253 -0.00588253 0)
(0.987592 -0.0015661 0)
(0.986686 0.00320939 0)
(0.989256 0.00440275 0)
(0.989932 0.00668836 0)
(0.991386 0.00981995 0)
(0.993965 0.0105945 0)
(0.996263 0.0106107 0)
(0.996609 0.0110325 0)
(1.00135 -1.90996e-05 0)
(0.998912 -0.00149783 0)
(0.998524 -0.000171649 0)
(0.996509 -0.000289042 0)
(0.999537 0.00556055 0)
(1.00255 0.00221567 0)
(1.00342 -0.000908631 0)
(1.0025 -0.00229615 0)
(1.00201 -0.00765412 0)
(0.995393 -0.00733107 0)
(0.992124 -0.00466605 0)
(0.990697 -0.00510011 0)
(0.988572 -0.00155144 0)
(0.987447 0.00309321 0)
(0.989758 0.00455601 0)
(0.990687 0.00634723 0)
(0.992022 0.00917955 0)
(0.994211 0.0101928 0)
(0.996431 0.0102424 0)
(0.996893 0.0105416 0)
(1.00129 6.37952e-06 0)
(0.998944 -0.0014695 0)
(0.998585 -6.41575e-05 0)
(0.996782 -0.000179105 0)
(0.999633 0.00496149 0)
(1.0022 0.00225874 0)
(1.00319 -0.000950124 0)
(1.00214 -0.00221027 0)
(1.00176 -0.00691132 0)
(0.995758 -0.00694472 0)
(0.992465 -0.00425198 0)
(0.991122 -0.00434515 0)
(0.989503 -0.00146757 0)
(0.988252 0.00292737 0)
(0.990264 0.00465368 0)
(0.991376 0.00610519 0)
(0.992671 0.00856967 0)
(0.994511 0.00974463 0)
(0.9966 0.00988029 0)
(0.997151 0.0100844 0)
(1.00123 2.92597e-05 0)
(0.99898 -0.00142988 0)
(0.998653 2.48946e-05 0)
(0.997035 -5.66643e-05 0)
(0.999736 0.00439012 0)
(1.00188 0.00226323 0)
(1.00295 -0.000930458 0)
(1.00182 -0.00213256 0)
(1.00153 -0.00620427 0)
(0.996111 -0.00651929 0)
(0.992849 -0.00387985 0)
(0.991537 -0.00363095 0)
(0.990379 -0.00131506 0)
(0.989094 0.0027328 0)
(0.99079 0.00469238 0)
(0.992007 0.00591813 0)
(0.993313 0.00800777 0)
(0.994863 0.00925915 0)
(0.996781 0.00951912 0)
(0.99739 0.00965214 0)
(1.00117 5.10799e-05 0)
(0.999018 -0.00137853 0)
(0.998728 8.66104e-05 0)
(0.997266 7.82253e-05 0)
(0.999842 0.00385561 0)
(1.00158 0.00222291 0)
(1.0027 -0.000867725 0)
(1.00153 -0.00204446 0)
(1.00131 -0.00554051 0)
(0.996448 -0.00606271 0)
(0.993275 -0.00354362 0)
(0.991952 -0.00296124 0)
(0.991194 -0.00109808 0)
(0.989956 0.00253813 0)
(0.991344 0.00465672 0)
(0.992588 0.00576433 0)
(0.993936 0.00750261 0)
(0.995263 0.00874533 0)
(0.996985 0.00913129 0)
(0.997608 0.00924847 0)
(1.0011 6.79123e-05 0)
(0.999057 -0.00130761 0)
(0.998811 0.000115297 0)
(0.997477 0.000220122 0)
(0.999948 0.00336514 0)
(1.00131 0.00213828 0)
(1.00246 -0.000772227 0)
(1.00127 -0.00194105 0)
(1.00111 -0.00491972 0)
(0.996768 -0.00558118 0)
(0.993734 -0.00324387 0)
(0.992372 -0.00235932 0)
(0.991948 -0.000824118 0)
(0.990819 0.00235258 0)
(0.991931 0.00455666 0)
(0.993137 0.00562134 0)
(0.994528 0.00706136 0)
(0.995695 0.00823198 0)
(0.997225 0.00871106 0)
(0.997826 0.00886309 0)
(1.00104 8.16752e-05 0)
(0.999097 -0.00122164 0)
(0.998899 0.000120077 0)
(0.997669 0.00035614 0)
(1.00005 0.00293541 0)
(1.00106 0.00201933 0)
(1.00221 -0.000653359 0)
(1.00104 -0.00182123 0)
(1.00093 -0.00433624 0)
(0.997069 -0.00507035 0)
(0.994221 -0.00296184 0)
(0.992811 -0.00182883 0)
(0.992643 -0.000503091 0)
(0.991669 0.00220358 0)
(0.992551 0.00439922 0)
(0.993666 0.00546262 0)
(0.995089 0.00666995 0)
(0.996147 0.00773761 0)
(0.997503 0.00827079 0)
(0.998056 0.00846533 0)
(1.00099 9.19358e-05 0)
(0.999134 -0.00112521 0)
(0.998993 0.000113138 0)
(0.997845 0.000477675 0)
(1.00014 0.00257403 0)
(1.00085 0.00188454 0)
(1.00198 -0.000534602 0)
(1.00084 -0.00167999 0)
(1.00078 -0.00378356 0)
(0.997352 -0.00454151 0)
(0.994724 -0.00267249 0)
(0.993272 -0.00137098 0)
(0.993287 -0.000179179 0)
(0.992484 0.00210761 0)
(0.993192 0.00419734 0)
(0.994189 0.00528633 0)
(0.995621 0.00631429 0)
(0.996608 0.00726594 0)
(0.997811 0.00782469 0)
(0.998306 0.00804897 0)
(1.00093 9.9503e-05 0)
(0.999169 -0.00102198 0)
(0.999091 0.00010283 0)
(0.998007 0.000571351 0)
(1.00022 0.0022767 0)
(1.00065 0.00174751 0)
(1.00176 -0.000416752 0)
(1.00066 -0.00152472 0)
(1.00064 -0.00326405 0)
(0.997616 -0.0040068 0)
(0.995236 -0.0023893 0)
(0.993751 -0.000989571 0)
(0.993889 0.000133948 0)
(0.99326 0.00205011 0)
(0.993845 0.00399063 0)
(0.994712 0.00509054 0)
(0.996126 0.00598779 0)
(0.997071 0.0068187 0)
(0.998144 0.00738635 0)
(0.998573 0.0076343 0)
(1.00087 0.000104913 0)
(0.999201 -0.000916975 0)
(0.99919 9.50313e-05 0)
(0.998158 0.000630255 0)
(1.0003 0.00203688 0)
(1.00048 0.00161452 0)
(1.00155 -0.000295652 0)
(1.00051 -0.00136598 0)
(1.00053 -0.00278367 0)
(0.997862 -0.00346782 0)
(0.995745 -0.00210556 0)
(0.994255 -0.000676759 0)
(0.994461 0.000419159 0)
(0.99399 0.00202733 0)
(0.994499 0.00378689 0)
(0.995236 0.00488421 0)
(0.996607 0.00569058 0)
(0.997529 0.00639581 0)
(0.998498 0.00694549 0)
(0.998855 0.00723444 0)
(1.00082 0.000110362 0)
(0.99923 -0.000816785 0)
(0.999289 0.00010133 0)
(0.998301 0.00065512 0)
(1.00036 0.00183232 0)
(1.00033 0.00150835 0)
(1.00135 -0.000163563 0)
(1.00038 -0.00120366 0)
(1.00046 -0.00234549 0)
(0.998093 -0.00293624 0)
(0.996241 -0.00180924 0)
(0.994772 -0.000415747 0)
(0.995011 0.000659326 0)
(0.994676 0.00202689 0)
(0.995147 0.00359108 0)
(0.995765 0.00466716 0)
(0.997064 0.00541401 0)
(0.997969 0.00600912 0)
(0.998873 0.00649741 0)
(0.999156 0.0068363 0)
(1.00076 0.000116984 0)
(0.999258 -0.000725534 0)
(0.999384 0.000120325 0)
(0.998434 0.000662025 0)
(1.00042 0.00165307 0)
(1.0002 0.00142964 0)
(1.00117 -1.99762e-05 0)
(1.00027 -0.00102174 0)
(1.00041 -0.00195179 0)
(0.998314 -0.00242836 0)
(0.996717 -0.00150657 0)
(0.995297 -0.000196449 0)
(0.995544 0.000849906 0)
(0.995319 0.00203504 0)
(0.995778 0.00341696 0)
(0.996299 0.00443772 0)
(0.99751 0.00514297 0)
(0.998384 0.00567536 0)
(0.999253 0.00607742 0)
(0.999482 0.00642827 0)
(1.00071 0.000123994 0)
(0.999285 -0.000639643 0)
(0.999476 0.000146525 0)
(0.998559 0.000657467 0)
(1.00049 0.00148498 0)
(1.00009 0.00136701 0)
(1.001 0.000127469 0)
(1.00018 -0.000817089 0)
(1.00039 -0.00159499 0)
(0.998528 -0.00195779 0)
(0.997169 -0.00118797 0)
(0.995816 -4.46837e-06 0)
(0.996064 0.000999274 0)
(0.99593 0.00203633 0)
(0.996389 0.00325188 0)
(0.99683 0.00420959 0)
(0.997955 0.00486566 0)
(0.998782 0.00536664 0)
(0.999619 0.00570195 0)
(0.999825 0.00600947 0)
(1.00066 0.000132617 0)
(0.999312 -0.000565267 0)
(0.999564 0.000178771 0)
(0.998673 0.000654327 0)
(1.00055 0.00132167 0)
(1.00001 0.00130623 0)
(1.00085 0.000286513 0)
(1.0001 -0.000599407 0)
(1.00039 -0.001269 0)
(0.998742 -0.00153699 0)
(0.997597 -0.000873152 0)
(0.996323 0.000182878 0)
(0.996568 0.00112962 0)
(0.996504 0.00204057 0)
(0.996978 0.0030902 0)
(0.997354 0.00399429 0)
(0.998395 0.00459806 0)
(0.999174 0.00505692 0)
(0.999964 0.0053624 0)
(1.00017 0.00560822 0)
(1.00062 0.000144588 0)
(0.99934 -0.00050228 0)
(0.999651 0.000212522 0)
(0.998776 0.000658567 0)
(1.00061 0.00116249 0)
(0.999959 0.00124357 0)
(1.00072 0.000462263 0)
(1.00003 -0.000357552 0)
(1.00041 -0.000964342 0)
(0.998956 -0.00116456 0)
(0.998006 -0.000576516 0)
(0.996816 0.000368999 0)
(0.997057 0.00123602 0)
(0.997044 0.00204425 0)
(0.997543 0.00293505 0)
(0.997872 0.00377392 0)
(0.998824 0.00434185 0)
(0.999558 0.00475104 0)
(1.0003 0.00504087 0)
(1.0005 0.00525232 0)
(1.00057 0.00015452 0)
(0.999368 -0.000448929 0)
(0.999737 0.00024087 0)
(0.998866 0.000679611 0)
(1.00067 0.0010213 0)
(0.999939 0.00117188 0)
(1.00062 0.000635067 0)
(0.99996 -9.3214e-05 0)
(1.00043 -0.000669283 0)
(0.999169 -0.000830078 0)
(0.998398 -0.000301175 0)
(0.99729 0.000558359 0)
(0.997526 0.00133758 0)
(0.99755 0.0020486 0)
(0.998077 0.00279922 0)
(0.998383 0.0035422 0)
(0.999248 0.00408431 0)
(0.999936 0.00445806 0)
(1.00063 0.00471506 0)
(1.00082 0.00492606 0)
(1.00053 0.000173975 0)
(0.999399 -0.000388785 0)
(0.999828 0.00024403 0)
(0.998948 0.00069508 0)
(1.00072 0.00090729 0)
(0.999953 0.00108567 0)
(1.00055 0.000798604 0)
(0.999904 0.000184129 0)
(1.00046 -0.000376388 0)
(0.99938 -0.000543273 0)
(0.998782 -6.46327e-05 0)
(0.997751 0.000724423 0)
(0.997975 0.00143298 0)
(0.998024 0.00205501 0)
(0.998573 0.00268422 0)
(0.998875 0.00332546 0)
(0.999669 0.00382481 0)
(1.0003 0.00418854 0)
(1.00096 0.00439768 0)
(1.00112 0.00461925 0)
(1.00049 0.000168843 0)
(0.999425 -0.000320547 0)
(0.999917 0.000273084 0)
(0.999025 0.000743411 0)
(1.00078 0.000830683 0)
(1 0.00100565 0)
(1.00053 0.000934134 0)
(0.999861 0.000452112 0)
(1.00048 -8.86224e-05 0)
(0.999583 -0.000274437 0)
(0.999157 0.000139678 0)
(0.998202 0.000866826 0)
(0.998409 0.00151757 0)
(0.998469 0.00206498 0)
(0.999037 0.00257698 0)
(0.999346 0.0031263 0)
(1.00009 0.00355698 0)
(1.00066 0.00391594 0)
(1.00129 0.00408948 0)
(1.00142 0.00430191 0)
(1.00046 0.000197885 0)
(0.999462 -0.00031486 0)
(1.00002 0.000227788 0)
(0.999096 0.00080377 0)
(1.00081 0.000835601 0)
(1.00007 0.000952389 0)
(1.00055 0.00102637 0)
(0.999838 0.000692809 0)
(1.0005 0.000183897 0)
(0.999778 -2.25027e-05 0)
(0.999521 0.000308216 0)
(0.998647 0.000977386 0)
(0.998832 0.00157992 0)
(0.998885 0.00207846 0)
(0.999463 0.00249214 0)
(0.999785 0.00295433 0)
(1.0005 0.00330756 0)
(1.00102 0.00364538 0)
(1.0016 0.00380262 0)
(1.00173 0.00398201 0)
(1.00043 0.000199902 0)
(0.99948 -0.000230478 0)
(1.00013 0.000233856 0)
(0.999199 0.000863314 0)
(1.00086 0.000865728 0)
(1.00016 0.00088247 0)
(1.00061 0.0010464 0)
(0.99984 0.000899678 0)
(1.00052 0.000448972 0)
(0.999953 0.000212681 0)
(0.999868 0.000453984 0)
(0.999084 0.00105161 0)
(0.999253 0.00161426 0)
(0.999287 0.00207837 0)
(0.999861 0.00241946 0)
(1.00019 0.00280291 0)
(1.00089 0.00307725 0)
(1.00138 0.00337223 0)
(1.00191 0.00352315 0)
(1.00203 0.00366947 0)
(1.0004 0.00019558 0)
(0.999515 -0.000113293 0)
(1.00024 0.00027386 0)
(0.999285 0.000895373 0)
(1.00088 0.000899292 0)
(1.00024 0.000832227 0)
(1.00071 0.00102068 0)
(0.999885 0.00105914 0)
(1.00055 0.000706129 0)
(1.00011 0.000442994 0)
(1.00019 0.000586205 0)
(0.999512 0.00109666 0)
(0.99967 0.00161679 0)
(0.999674 0.00206007 0)
(1.00023 0.00234542 0)
(1.00056 0.00266751 0)
(1.00124 0.0028688 0)
(1.00172 0.00310476 0)
(1.00221 0.00324368 0)
(1.00232 0.00337923 0)
(1.00038 0.000214535 0)
(0.999527 -3.11285e-05 0)
(1.00035 0.000281238 0)
(0.999392 0.000906971 0)
(1.0009 0.000966302 0)
(1.00031 0.000835676 0)
(1.00084 0.00097747 0)
(0.999971 0.00115862 0)
(1.00059 0.000934832 0)
(1.00024 0.000675244 0)
(1.00048 0.000717167 0)
(0.999919 0.00113215 0)
(1.00009 0.00158895 0)
(1.00006 0.00202315 0)
(1.00058 0.0022686 0)
(1.00091 0.00254319 0)
(1.00156 0.00268964 0)
(1.00204 0.00286348 0)
(1.00251 0.00296508 0)
(1.0026 0.00310721 0)
(1.00036 0.000210145 0)
(0.999549 7.55508e-05 0)
(1.00044 0.000326307 0)
(0.999498 0.000915927 0)
(1.00091 0.00103075 0)
(1.00037 0.000882842 0)
(1.00098 0.00093998 0)
(1.00011 0.00120398 0)
(1.00065 0.0011187 0)
(1.00036 0.000903193 0)
(1.00074 0.000855638 0)
(1.0003 0.00116388 0)
(1.00049 0.00154277 0)
(1.00044 0.00194845 0)
(1.00092 0.00217744 0)
(1.00123 0.00241249 0)
(1.00185 0.00252511 0)
(1.00232 0.00265559 0)
(1.0028 0.00269277 0)
(1.00287 0.0028411 0)
(1.00034 0.00020593 0)
(0.999557 0.00017312 0)
(1.00053 0.000381427 0)
(0.999614 0.000909752 0)
(1.00094 0.00107893 0)
(1.00041 0.000964412 0)
(1.00111 0.000928186 0)
(1.00027 0.00120448 0)
(1.00075 0.0012437 0)