/*--------------------------------*- C++ -*----------------------------------*\
| =========                 |                                                 |
| \\      /  F ield         | OpenFOAM: The Open Source CFD Toolbox           |
|  \\    /   O peration     | Version:  v1812                                 |
|   \\  /    A nd           | Web:      www.OpenFOAM.com                      |
|    \\/     M anipulation  |                                                 |
\*---------------------------------------------------------------------------*/
FoamFile
{
    version     2.0;
    format      ascii;
    class       volScalarField;
    location    "10.2";
    object      p;
}
// * * * * * * * * * * * * * * * * * * * * * * * * * * * * * * * * * * * * * //

dimensions      [0 2 -2 0 0 0 0];


internalField   nonuniform List<scalar> 
9600
(
-4.66609e-11
-1.38447e-06
-0.000394321
-0.0013232
-0.000402885
-0.000270451
1.27895e-05
-0.00230191
-0.000406679
0.000300658
0.00383065
0.00186078
0.00374502
0.000898027
-0.000194285
0.000180186
-0.00284165
-0.00418237
-0.00554031
-0.00605602
-6.22932e-06
1.47069e-07
-0.000393463
-0.00131962
-0.000397981
-0.000277018
7.98391e-06
-0.00230385
-0.000413962
0.000293346
0.00384108
0.0018404
0.00378293
0.000872484
-0.00017495
7.95315e-05
-0.00281312
-0.00423418
-0.00551437
-0.00610554
-1.29096e-05
3.11837e-06
-0.00039263
-0.00131552
-0.000394294
-0.000289316
-1.48211e-06
-0.00230229
-0.000419566
0.000290056
0.00383551
0.00180837
0.0038225
0.000823109
-0.000147536
-3.21303e-05
-0.00276221
-0.00430443
-0.005471
-0.00617809
-1.95094e-05
6.14015e-06
-0.000392287
-0.00131249
-0.000392103
-0.000302581
-8.60899e-06
-0.00229366
-0.000422918
0.000286898
0.00381737
0.00175879
0.00384594
0.0007454
-0.000125334
-0.000149514
-0.00272508
-0.00435197
-0.00544105
-0.00625461
-2.64079e-05
9.37733e-06
-0.00039226
-0.00131
-0.000388347
-0.000315917
-1.1605e-05
-0.00227865
-0.000424037
0.000284382
0.00378922
0.00169754
0.00385732
0.00064534
-0.000101179
-0.000272553
-0.00269481
-0.00437251
-0.00544191
-0.00629652
-3.37331e-05
1.306e-05
-0.000392136
-0.00130655
-0.00038209
-0.000330078
-1.0835e-05
-0.00225778
-0.000422725
0.000282093
0.00375344
0.00163209
0.00386023
0.000534009
-7.06184e-05
-0.000394196
-0.00265594
-0.0043812
-0.00546266
-0.00629803
-4.15121e-05
1.73988e-05
-0.000391492
-0.00130087
-0.000373578
-0.000345171
-6.00138e-06
-0.00223123
-0.000418953
0.000279773
0.00371233
0.0015681
0.00385549
0.000421125
-3.67675e-05
-0.000504294
-0.00261673
-0.00438257
-0.00549371
-0.00628154
-4.97465e-05
2.25222e-05
-0.00039011
-0.00129231
-0.000362681
-0.000360858
3.36626e-06
-0.00219871
-0.000412668
0.000277457
0.00366698
0.00150845
0.00384371
0.000311875
-3.83194e-06
-0.00060002
-0.00259098
-0.00437217
-0.00553991
-0.00626248
-5.8425e-05
2.83912e-05
-0.000387948
-0.00128073
-0.000349174
-0.000377046
1.73562e-05
-0.00215954
-0.000403825
0.000275406
0.00361734
0.00145369
0.00382583
0.000208696
2.34978e-05
-0.000682566
-0.00258276
-0.00434777
-0.00560622
-0.00624476
-6.75336e-05
3.48502e-05
-0.000385072
-0.00126666
-0.000333217
-0.000393877
3.5505e-05
-0.00211315
-0.000392618
0.000273961
0.00356285
0.00140337
0.00380297
0.000112577
3.98019e-05
-0.00075128
-0.0025939
-0.00431091
-0.00568976
-0.00623195
-7.70624e-05
4.17422e-05
-0.000381567
-0.00125102
-0.000315334
-0.000411429
5.6726e-05
-0.00205981
-0.000379608
0.000273233
0.00350314
0.00135717
0.00379208
2.42095e-05
4.0949e-05
-0.000804663
-0.00262859
-0.00426392
-0.005784
-0.00623192
-8.70082e-05
4.8982e-05
-0.000377493
-0.00123473
-0.000296177
-0.000429514
7.94201e-05
-0.00200094
-0.000365769
0.000273219
0.00343828
0.00131487
0.00375693
-5.43163e-05
2.44192e-05
-0.000842129
-0.00268928
-0.00421045
-0.00588097
-0.00625257
-9.73722e-05
5.65556e-05
-0.000372929
-0.00121836
-0.000276298
-0.000447748
0.000101821
-0.00193869
-0.000352291
0.000273933
0.00336886
0.00127655
0.00371063
-0.000119909
-1.1548e-05
-0.000862965
-0.00277392
-0.00415628
-0.00597131
-0.00629815
-0.000108148
6.44896e-05
-0.000368001
-0.00120211
-0.000256078
-0.00046569
0.000122531
-0.00187518
-0.000340233
0.000275494
0.00329565
0.00124263
0.0036496
-0.000170089
-6.75416e-05
-0.000865965
-0.00287636
-0.00410854
-0.00604564
-0.00636788
-0.000119314
7.2811e-05
-0.000362775
-0.00118594
-0.000235755
-0.000482934
0.000140793
-0.00181186
-0.000330354
0.000278295
0.003219
0.00121316
0.00357148
-0.000203566
-0.000143094
-0.000850767
-0.00298761
-0.00407457
-0.00609621
-0.00645687
-0.000130856
8.1521e-05
-0.000357225
-0.00116978
-0.000215429
-0.000499205
0.000156317
-0.00174928
-0.00032316
0.000282912
0.00313876
0.00118773
0.00347573
-0.000220316
-0.000237165
-0.000819259
-0.00309819
-0.00406057
-0.0061177
-0.00655776
-0.000142761
9.05922e-05
-0.00035125
-0.00115362
-0.000195112
-0.000514345
0.000169059
-0.00168728
-0.000319036
0.000289921
0.00305422
0.001166
0.00336308
-0.000222109
-0.000348234
-0.000775875
-0.0032003
-0.00407125
-0.00610741
-0.0066622
-0.000155014
9.99698e-05
-0.000344703
-0.00113759
-0.000174764
-0.000528224
0.000179057
-0.00162539
-0.000318354
0.000299726
0.00296439
0.00114769
0.00323483
-0.000212251
-0.000474777
-0.00072673
-0.00328789
-0.00410972
-0.00606611
-0.00676143
-0.00016758
0.000109563
-0.000337434
-0.00112187
-0.00015432
-0.000540701
0.000186292
-0.00156304
-0.000321501
0.000312418
0.00286857
0.00113213
0.00309247
-0.000194736
-0.000617662
-0.000678209
-0.00335681
-0.00417646
-0.00599865
-0.00684716
-0.0001804
0.00011924
-0.000329289
-0.00110661
-0.000133736
-0.000551613
0.000190584
-0.00149966
-0.000328822
0.000327852
0.00276634
0.00111861
0.00293782
-0.000173007
-0.000760672
-0.000637159
-0.00340453
-0.0042691
-0.00591276
-0.00691165
-0.000193407
0.000128848
-0.000320117
-0.00109194
-0.000112995
-0.00056076
0.000191634
-0.00143477
-0.000340647
0.000345823
0.00265758
0.00110615
0.00277304
-0.000149647
-0.000906634
-0.0006108
-0.00342923
-0.00438348
-0.00581798
-0.00694734
-0.000206516
0.000138207
-0.00030976
-0.00107799
-9.21705e-05
-0.000567857
0.000189158
-0.00136805
-0.000357294
0.000365943
0.00254286
0.00109297
0.00260074
-0.00012774
-0.00105245
-0.000603888
-0.00343014
-0.00451446
-0.00572434
-0.00694774
-0.000219613
0.000147118
-0.000298077
-0.0010648
-7.14224e-05
-0.000572527
0.000182859
-0.00129931
-0.000378923
0.000387488
0.00242338
0.00107691
0.00242393
-0.000109907
-0.00119572
-0.000618697
-0.00340828
-0.00465647
-0.00564036
-0.00690825
-0.00023257
0.00015537
-0.000284978
-0.00105236
-5.09302e-05
-0.000574367
0.000172381
-0.00122854
-0.000405438
0.000409472
0.00230081
0.00105583
0.00224508
-9.78131e-05
-0.00133382
-0.000656592
-0.00336652
-0.00480358
-0.00557265
-0.0068271
-0.00024524
0.000162721
-0.000270368
-0.00104061
-3.09716e-05
-0.000572932
0.000157382
-0.00115589
-0.000436409
0.000430505
0.00217723
0.001028
0.00206589
-9.28618e-05
-0.0014643
-0.000718599
-0.00330852
-0.00494843
-0.00552685
-0.00670607
-0.000257435
0.000168905
-0.00025416
-0.00102944
-1.19992e-05
-0.000567709
0.000137706
-0.00108174
-0.00047125
0.000448915
0.00205497
0.000992131
0.00188771
-9.56464e-05
-0.00158656
-0.000804532
-0.0032373
-0.00508396
-0.00550803
-0.00654981
-0.000268986
0.000173681
-0.000236334
-0.00101862
5.43034e-06
-0.000558195
0.000113384
-0.00100673
-0.000509154
0.000462946
0.00193637
0.00094737
0.00171151
-0.000106103
-0.00170092
-0.000912793
-0.00315624
-0.00520389
-0.00552013
-0.00636656
-0.000279717
0.000176821
-0.000216957
-0.00100784
2.0744e-05
-0.000543974
8.45408e-05
-0.000931664
-0.000548909
0.000470633
0.00182347
0.000893602
0.00153747
-0.000123682
-0.00180705
-0.00104223
-0.00307053
-0.00529989
-0.00556421
-0.00616966
-0.000289408
0.000178084
-0.000196165
-0.000996757
3.33469e-05
-0.000524647
5.15927e-05
-0.000857579
-0.000589366
0.000470126
0.00171779
0.000831357
0.00136451
-0.000147585
-0.00190385
-0.0011919
-0.00298563
-0.00536292
-0.00563849
-0.00597651
-0.000297882
0.000177279
-0.000174093
-0.000985029
4.26085e-05
-0.000499897
1.5294e-05
-0.000785871
-0.000629307
0.000459895
0.00161992
0.000762196
0.00119106
-0.000177269
-0.00199039
-0.00135994
-0.00290687
-0.00538665
-0.0057372
-0.00580561
-0.00030497
0.000174325
-0.000151014
-0.000972267
4.79978e-05
-0.000469717
-2.35287e-05
-0.0007179
-0.000667088
0.000438498
0.00152949
0.000688557
0.00101594
-0.000213141
-0.00206585
-0.00154278
-0.00284101
-0.00536782
-0.00584863
-0.00567438
-0.000310465
0.000169234
-0.000127362
-0.000958101
4.91778e-05
-0.000434332
-6.40074e-05
-0.000654981
-0.000701227
0.000404999
0.0014453
0.000613044
0.00083796
-0.00025618
-0.00212847
-0.0017356
-0.00279514
-0.00530736
-0.00595749
-0.00559519
-0.00031424
0.00016207
-0.000103471
-0.00094221
4.59258e-05
-0.000394217
-0.000105062
-0.000598517
-0.000730815
0.000359354
0.00136542
0.000538137
0.000656531
-0.000307765
-0.00217663
-0.00193329
-0.00277472
-0.0052105
-0.006048
-0.00557215
-0.000316206
0.000152885
-7.96778e-05
-0.000924209
3.79964e-05
-0.000350084
-0.000145332
-0.000549746
-0.000755333
0.000302204
0.00128757
0.00046553
0.000472147
-0.000369942
-0.00220961
-0.00212948
-0.00278367
-0.00508651
-0.00610533
-0.00559953
-0.000316253
0.000141602
-5.63879e-05
-0.0009038
2.52337e-05
-0.000302686
-0.000183441
-0.000509648
-0.000774255
0.000234553
0.00120912
0.000396415
0.000285786
-0.00044476
-0.00222798
-0.00231711
-0.00282318
-0.00494863
-0.0061174
-0.00566016
-0.000314367
0.000128761
-3.38882e-05
-0.000880869
7.7316e-06
-0.000252944
-0.000218279
-0.000479048
-0.000787327
0.000157813
0.00112726
0.000332099
9.90607e-05
-0.000533549
-0.0022337
-0.00249042
-0.00289006
-0.0048108
-0.00608092
-0.0057307
-0.000310546
0.000114575
-1.24843e-05
-0.000855128
-1.4411e-05
-0.00020206
-0.000248402
-0.000458842
-0.000795457
7.42469e-05
0.00103946
0.000272908
-8.50616e-05
-0.000637874
-0.00223006
-0.00264399
-0.00297805
-0.0046849
-0.00600295
-0.00578787
-0.000304711
9.90563e-05
7.44004e-06
-0.000826132
-4.10376e-05
-0.0001516
-0.00027197
-0.000449411
-0.000800449
-1.35244e-05
0.000943848
0.000217883
-0.00026346
-0.000758291
-0.00222148
-0.00277326
-0.00307982
-0.00457838
-0.00589508
-0.00581441
-0.000296743
8.221e-05
2.54862e-05
-0.000793396
-7.17564e-05
-0.000103303
-0.000287649
-0.000450238
-0.000804529
-0.000103531
0.000839761
0.000165228
-0.000433357
-0.000892874
-0.00221396
-0.00287697
-0.00318775
-0.00449297
-0.00576993
-0.00580533
-0.000286514
6.41739e-05
4.12057e-05
-0.000756416
-0.000106005
-5.89554e-05
-0.000294747
-0.000460057
-0.000809896
-0.000194832
0.000726648
0.000112906
-0.00059158
-0.00103977
-0.00221306
-0.0029547
-0.00329543
-0.00442744
-0.00563697
-0.00576504
-0.00027398
4.52081e-05
5.41639e-05
-0.000714977
-0.000142825
-2.07875e-05
-0.000293239
-0.000476576
-0.000818196
-0.000286984
0.000604065
5.93733e-05
-0.000735584
-0.00119704
-0.00222259
-0.0030073
-0.00339596
-0.00438005
-0.00550248
-0.00569989
-0.000259086
2.57192e-05
6.36285e-05
-0.000669141
-0.000180436
9.11184e-06
-0.000284137
-0.00049638
-0.000830136
-0.000379934
0.0004718
2.86433e-06
-0.000863422
-0.00135998
-0.0022468
-0.00303927
-0.00348155
-0.00434804
-0.00537266
-0.00561584
-0.000241834
6.39153e-06
6.87965e-05
-0.000619354
-0.00021646
2.94066e-05
-0.000269395
-0.000516273
-0.000845126
-0.000474077
0.000329369
-5.89113e-05
-0.000973708
-0.001522
-0.00228979
-0.00305685
-0.00354719
-0.00432714
-0.0052524
-0.00551938
-0.000223463
-1.17274e-05
6.93273e-05
-0.000566787
-0.000248226
3.95962e-05
-0.000252367
-0.00053465
-0.000862249
-0.000568454
0.000176907
-0.000129525
-0.00106616
-0.00167576
-0.00235126
-0.00306774
-0.00359258
-0.00431143
-0.00514329
-0.00541725
-0.000204041
-2.75317e-05
6.51325e-05
-0.00051335
-0.00027338
3.97571e-05
-0.000236463
-0.000551903
-0.000880823
-0.000660753
1.61729e-05
-0.00021292
-0.00114236
-0.0018141
-0.00242633
-0.00307956
-0.0036209
-0.00429562
-0.00504408
-0.00531361
-0.000184199
-3.99849e-05
5.66386e-05
-0.000461734
-0.000290459
3.15278e-05
-0.000224354
-0.000567983
-0.000900555
-0.000749095
-0.000149481
-0.000310502
-0.0012058
-0.00193215
-0.0025072
-0.00309561
-0.00363698
-0.00427739
-0.00495254
-0.0052098
-0.000164528
-4.85151e-05
4.50828e-05
-0.000415268
-0.000299391
1.8931e-05
-0.000217858
-0.000584829
-0.000922321
-0.000832188
-0.000315626
-0.000421308
-0.0012613
-0.00202851
-0.00258622
-0.00311605
-0.003644
-0.00425596
-0.00486867
-0.00510614
-0.000145367
-5.28977e-05
3.21126e-05
-0.000376499
-0.000301476
5.73151e-06
-0.000216735
-0.000605847
-0.000948117
-0.000908611
-0.000476469
-0.000542464
-0.00131487
-0.00210439
-0.00265945
-0.0031409
-0.00364355
-0.00422964
-0.00479397
-0.00500552
-0.000126828
-5.34553e-05
1.96598e-05
-0.000346578
-0.000300911
-6.13239e-06
-0.000218609
-0.000633106
-0.000979961
-0.000978454
-0.000626319
-0.000669827
-0.00137115
-0.00216269
-0.00272333
-0.00316903
-0.00363941
-0.00419597
-0.0047255
-0.00491381
-0.000108802
-5.11383e-05
9.39434e-06
-0.000325257
-0.000302348
-1.66119e-05
-0.000219997
-0.000663853
-0.00101953
-0.00104394
-0.000762002
-0.000798533
-0.00143221
-0.00220919
-0.00277486
-0.00319692
-0.00363587
-0.00415585
-0.00465541
-0.00483281
-9.10902e-05
-4.69252e-05
2.36621e-06
-0.000310728
-0.000309912
-2.71071e-05
-0.000219109
-0.000696776
-0.00106756
-0.00110761
-0.000882021
-0.000922156
-0.00149719
-0.00224914
-0.0028149
-0.00322162
-0.00363413
-0.00411519
-0.00457916
-0.00475549
-7.31795e-05
-4.1818e-05
-1.28837e-06
-0.000300524
-0.000325801
-4.07038e-05
-0.000215305
-0.000729037
-0.00112206
-0.00117279
-0.000988323
-0.00103516
-0.00156221
-0.00228323
-0.00284819
-0.0032425
-0.00363081
-0.00407736
-0.00449891
-0.00467265
-5.4954e-05
-3.60041e-05
-1.09156e-06
-0.000291976
-0.000351271
-6.36401e-05
-0.000209954
-0.000754046
-0.00117805
-0.00124385
-0.00108578
-0.00113529
-0.00162242
-0.00231146
-0.00287568
-0.00326162
-0.00362451
-0.00404072
-0.00442016
-0.00458072
-3.53106e-05
-3.17874e-05
1.69299e-06
-0.000280995
-0.000385071
-0.000100722
-0.000207003
-0.000766
-0.00123101
-0.00131976
-0.00117897
-0.00122341
-0.00167363
-0.00233218
-0.00289428
-0.00328071
-0.00361931
-0.00400414
-0.00434751
-0.0044835
-1.19916e-05
-2.8002e-05
-2.56135e-07
-0.000268417
-0.000421304
-0.000153384
-0.000210674
-0.000763915
-0.00127346
-0.00139646
-0.0012735
-0.00130314
-0.0017142
-0.00234274
-0.00290201
-0.00329545
-0.00361809
-0.00396868
-0.00427968
-0.00438699
9.75827e-06
-1.63417e-05
5.17397e-07
-0.000255335
-0.000462065
-0.000228801
-0.000232486
-0.000751403
-0.00129635
-0.00146987
-0.00137164
-0.00138065
-0.00174569
-0.00234173
-0.00289782
-0.0033017
-0.00361895
-0.00393758
-0.00421554
-0.00429613
3.24922e-05
-3.23512e-05
2.35733e-06
-0.000213337
-0.000493023
-0.000324368
-0.000273328
-0.000727466
-0.0012948
-0.00153016
-0.00146962
-0.00146141
-0.00177306
-0.00232881
-0.00287935
-0.00329556
-0.00361625
-0.00391149
-0.00415632
-0.00421365
6.64012e-05
9.8692e-07
-1.92899e-05
-0.000245548
-0.000535114
-0.000424877
-0.000325777
-0.000698471
-0.00127219
-0.00157117
-0.00156393
-0.00154833
-0.00180297
-0.00230731
-0.00284511
-0.00327321
-0.00360448
-0.00388756
-0.00410226
-0.00413802
9.2722e-05
-7.21152e-06
-3.67744e-05
-0.000214884
-0.000549381
-0.000521845
-0.000401687
-0.000681998
-0.00123004
-0.00158901
-0.00164735
-0.00163933
-0.0018409
-0.00228419
-0.00279759
-0.00323335
-0.00357749
-0.00386067
-0.00405377
-0.00406726
0.000120457
1.74134e-05
-6.36134e-05
-0.000222242
-0.000552893
-0.000607725
-0.000500059
-0.000686595
-0.00117911
-0.00158174
-0.00171259
-0.00172938
-0.00188891
-0.00226679
-0.00274287
-0.00317784
-0.00353245
-0.00382295
-0.00400802
-0.00400149
0.000146407
1.07157e-05
-9.50421e-05
-0.00023401
-0.000544906
-0.000672123
-0.000605649
-0.000715999
-0.00113306
-0.00155117
-0.00175039
-0.00180648
-0.00194416
-0.0022608
-0.00268712
-0.00311008
-0.00347031
-0.00376736
-0.0039577
-0.00394141
0.000161623
3.92294e-05
-0.000116914
-0.000251635
-0.000540995
-0.000719156
-0.000708947
-0.000770686
-0.00109873
-0.00150281
-0.00175987
-0.00186682
-0.00199965
-0.00226749
-0.00263919
-0.00303606
-0.00339595
-0.00369454
-0.00389344
-0.00388239
0.000163239
1.53321e-05
-0.000119422
-0.000266572
-0.000540694
-0.000748574
-0.000798197
-0.000843254
-0.00108538
-0.00144843
-0.0017405
-0.00190016
-0.00204455
-0.00227988
-0.00260186
-0.0029609
-0.00331324
-0.00360915
-0.00381017
-0.00381323
0.000181584
5.38203e-05
-0.000163569
-0.000315245
-0.000547434
-0.000758672
-0.000863375
-0.000917075
-0.00109379
-0.00139806
-0.00169684
-0.00190465
-0.00207426
-0.00229008
-0.00257388
-0.00289242
-0.00322586
-0.00351689
-0.00371177
-0.00372782
0.000181658
2.47074e-05
-0.000184199
-0.000348427
-0.000560786
-0.000765217
-0.000909301
-0.000984441
-0.0011191
-0.00136052
-0.00163973
-0.00187896
-0.00208207
-0.00229205
-0.00254741
-0.00283003
-0.00313518
-0.00342056
-0.00360684
-0.00362649
0.000175776
3.74885e-05
-0.000201738
-0.000386527
-0.000586941
-0.000774927
-0.000939397
-0.00103803
-0.00115155
-0.00133717
-0.0015806
-0.00182827
-0.00206233
-0.00228044
-0.0025163
-0.00277096
-0.00304326
-0.00331554
-0.00349742
-0.00351235
0.000162867
1.3554e-05
-0.000220144
-0.000417815
-0.000616584
-0.000787937
-0.000957991
-0.00107533
-0.00118263
-0.00132461
-0.0015233
-0.00176115
-0.00201263
-0.00224679
-0.00247633
-0.00271047
-0.00295397
-0.0032052
-0.00338334
-0.00339199
0.000146253
1.55368e-06
-0.00024584
-0.000455184
-0.000650235
-0.000804965
-0.000969681
-0.0010959
-0.00120456
-0.0013195
-0.00147156
-0.00168405
-0.0019382
-0.00218385
-0.00241653
-0.0026405
-0.00286265
-0.00308922
-0.00325966
-0.0032663
0.000123352
-2.20957e-05
-0.00027533
-0.000489108
-0.000684002
-0.000827914
-0.000981679
-0.00110544
-0.00121291
-0.0013123
-0.00142511
-0.00160093
-0.00184394
-0.00209154
-0.00232642
-0.00255088
-0.00276466
-0.00297079
-0.0031283
-0.00313546
8.57437e-05
-6.44858e-05
-0.000303314
-0.000511385
-0.000714942
-0.000856205
-0.000996261
-0.0011092
-0.0012086
-0.0012939
-0.00137942
-0.00151682
-0.00173454
-0.00197379
-0.00220143
-0.00242068
-0.00262799
-0.00282239
-0.0029715
-0.00298198
4.8129e-05
-9.45223e-05
-0.000345335
-0.000556754
-0.000752514
-0.000884308
-0.00100896
-0.00111026
-0.00119753
-0.0012632
-0.00132325
-0.00142425
-0.00160813
-0.00183733
-0.00206336
-0.00227842
-0.00247681
-0.00265981
-0.0028012
-0.00281809
-1.13423e-06
-0.000144977
-0.000394173
-0.000599905
-0.0007893
-0.000913296
-0.00101993
-0.00110663
-0.00118834
-0.00123653
-0.00126125
-0.0013128
-0.00143583
-0.00161617
-0.00181601
-0.00202892
-0.0022372
-0.00242029
-0.00255545
-0.0025774
-6.48615e-05
-0.00020724
-0.000445446
-0.000638992
-0.000824673
-0.00095224
-0.00104485
-0.00110075
-0.00116275
-0.00121475
-0.00123627
-0.00125806
-0.00133332
-0.00146334
-0.00161732
-0.00178105
-0.0019556
-0.00212361
-0.00226018
-0.00229637
-0.000136076
-0.000277206
-0.000511859
-0.000693771
-0.00086029
-0.000980958
-0.00107803
-0.00112385
-0.00112385
-0.00109602
-0.00105411
-0.00101165
-0.001025
-0.00109907
-0.00120852
-0.00134688
-0.00150206
-0.00168106
-0.00185234
-0.00196448
-0.000218446
-0.000362709
-0.00060055
-0.000770132
-0.000909007
-0.000983219
-0.00107377
-0.00120275
-0.00134594
-0.00138717
-0.00126851
-0.00104416
-0.000877444
-0.00083667
-0.000842204
-0.000833917
-0.000752503
-0.000574267
-0.000357449
-0.000181774
-0.000317181
-0.000446384
-0.000665152
-0.000832047
-0.000984424
-0.00105322
-0.00103365
-0.00096521
-0.000898563
-0.000866028
-0.000858867
-0.000840134
-0.00077909
-0.00070941
-0.000620326
-0.000506415
-0.000398456
-0.000295778
-0.00019138
-0.000149826
-0.000495116
-0.00065046
-0.000780216
-0.000804196
-0.000824193
-0.000844912
-0.000915632
-0.0010053
-0.00108577
-0.00110207
-0.00105595
-0.00095325
-0.00084477
-0.000726466
-0.000578636
-0.00038128
-0.000136095
0.000135617
0.000378081
0.000507504
-0.000508715
-0.000585196
-0.000729617
-0.000797452
-0.000847767
-0.000882505
-0.000914742
-0.00091391
-0.000850632
-0.000755376
-0.000678319
-0.000586069
-0.000491705
-0.000430098
-0.000423061
-0.000493097
-0.000657451
-0.000917041
-0.00122138
-0.00149413
-0.00068062
-0.000801536
-0.000870737
-0.000820973
-0.000771877
-0.000754019
-0.000809171
-0.000900149
-0.000959251
-0.000924821
-0.000852518
-0.00075232
-0.000613197
-0.000467058
-0.000311093
-0.000119265
0.000115819
0.000361797
0.000554518
0.000623385
-0.000755078
-0.000853913
-0.000877014
-0.00077589
-0.000712041
-0.000728651
-0.000813071
-0.000895074
-0.000904304
-0.000797578
-0.00065046
-0.000507723
-0.000349329
-0.000180874
-2.32043e-05
0.000136414
0.000293515
0.000414452
0.000446557
0.00033465
-0.00714778
-0.0066286
-0.0104282
-0.0145735
-0.0151969
-0.0134267
-0.0112116
-0.00926788
-0.00776889
-0.00679551
-0.00624343
-0.00580986
-0.00523683
-0.00453266
-0.00391292
-0.00351052
-0.00324439
-0.00300485
-0.0027729
-0.00254016
-0.0023163
-0.00210301
-0.00184323
-0.00147534
-0.00102221
-0.00058322
-0.000229647
7.02966e-05
0.000350345
0.000621572
0.000930972
0.00128373
0.00160733
0.00187205
0.00215117
0.00250627
0.00288697
0.00323878
0.00362233
0.00404956
0.00444745
0.00481316
0.00520059
0.00559954
0.00598818
0.00637306
0.00676474
0.00715407
0.00757678
0.00803674
0.00850091
0.00894281
0.00938061
0.00982955
0.0102792
0.010716
0.0112113
0.0117611
0.0122952
0.0128289
0.0133894
0.0139542
0.0144834
0.0150241
0.0155927
0.0161681
0.0167286
0.0173134
0.0178986
0.0185239
0.0191863
0.0198766
0.0205583
0.0211934
0.0218261
0.0224845
0.0232027
0.023949
0.0246777
0.0254253
0.0261756
0.0269476
0.027707
0.0284957
0.0292942
0.0301168
0.0309539
0.0317933
0.0326847
0.0335825
0.034516
0.035453
0.0364226
0.037365
0.03843
0.0394357
0.0405497
0.0416873
0.0427709
0.0441832
-0.00722554
-0.00669714
-0.010318
-0.0144394
-0.0151236
-0.0133904
-0.0111897
-0.00925257
-0.00775665
-0.00678477
-0.00623406
-0.00580213
-0.00523043
-0.0045269
-0.00390737
-0.00350524
-0.00323951
-0.00300036
-0.00276885
-0.00253655
-0.00231303
-0.00210008
-0.00184063
-0.001473
-0.00102002
-0.000581114
-0.000227691
7.20781e-05
0.000351991
0.000623034
0.000932257
0.00128495
0.00160853
0.00187313
0.00215209
0.0025071
0.00288779
0.00323952
0.00362298
0.0040502
0.00444808
0.00481373
0.00520112
0.00560007
0.00598869
0.00637355
0.00676521
0.00715451
0.00757719
0.00803714
0.00850133
0.00894322
0.009381
0.00982993
0.0102796
0.0107163
0.0112116
0.0117614
0.0122955
0.0128292
0.0133897
0.0139545
0.0144837
0.0150243
0.015593
0.0161684
0.0167289
0.0173136
0.0178988
0.0185242
0.0191865
0.0198768
0.0205585
0.0211936
0.0218263
0.0224846
0.0232028
0.0239491
0.0246778
0.0254254
0.0261757
0.0269477
0.0277071
0.0284959
0.0292943
0.0301169
0.0309541
0.0317934
0.0326848
0.0335826
0.0345161
0.0354531
0.0364227
0.0373651
0.0384301
0.0394358
0.0405498
0.0416874
0.042771
0.0441835
-0.0074483
-0.00680227
-0.0100775
-0.0141594
-0.0149852
-0.0133342
-0.0111592
-0.00923208
-0.00774274
-0.00677509
-0.00622586
-0.00579389
-0.00522258
-0.00452033
-0.0039022
-0.00350095
-0.00323545
-0.00299624
-0.00276491
-0.00253306
-0.00231005
-0.00209755
-0.00183837
-0.00147082
-0.00101786
-0.000579055
-0.000225858
7.37101e-05
0.000353502
0.000624374
0.00093345
0.00128611
0.00160965
0.0018741
0.00215289
0.00250785
0.00288854
0.00324018
0.00362356
0.00405081
0.00444867
0.00481423
0.0052016
0.00560054
0.00598914
0.00637397
0.00676563
0.00715489
0.00757753
0.00803749
0.0085017
0.00894359
0.00938133
0.00983025
0.0102799
0.0107166
0.0112118
0.0117616
0.0122958
0.0128294
0.01339
0.0139548
0.0144839
0.0150246
0.0155932
0.0161686
0.0167291
0.0173138
0.017899
0.0185243
0.0191867
0.0198769
0.0205587
0.0211938
0.0218265
0.0224848
0.0232029
0.0239493
0.024678
0.0254256
0.0261758
0.0269478
0.0277072
0.028496
0.0292944
0.030117
0.0309542
0.0317935
0.0326849
0.0335827
0.0345162
0.0354532
0.0364228
0.0373651
0.0384301
0.0394358
0.0405499
0.0416875
0.0427711
0.0441838
-0.00766836
-0.00686927
-0.00975174
-0.0137833
-0.0147873
-0.0132524
-0.0111138
-0.00920026
-0.00772137
-0.00676262
-0.0062171
-0.00578414
-0.00521188
-0.00451151
-0.0038965
-0.00349716
-0.00323172
-0.00299177
-0.00276017
-0.0025289
-0.00230686
-0.00209494
-0.00183577
-0.00146799
-0.00101503
-0.000576539
-0.00022377
7.5561e-05
0.000355295
0.000626031
0.000934925
0.00128747
0.00161093
0.00187523
0.00215386
0.00250874
0.00288941
0.00324093
0.00362424
0.00405151
0.00444932
0.00481478
0.00520211
0.00560104
0.00598961
0.00637441
0.00676606
0.00715527
0.00757786
0.00803785
0.00850209
0.00894397
0.00938168
0.00983058
0.0102802
0.0107169
0.0112121
0.0117619
0.0122961
0.0128297
0.0133902
0.013955
0.0144842
0.0150248
0.0155934
0.0161688
0.0167293
0.017314
0.0178992
0.0185245
0.0191869
0.0198771
0.0205589
0.021194
0.0218266
0.0224849
0.0232031
0.0239494
0.0246781
0.0254257
0.026176
0.026948
0.0277074
0.0284961
0.0292945
0.0301171
0.0309543
0.0317936
0.032685
0.0335828
0.0345163
0.0354533
0.0364229
0.0373652
0.0384302
0.0394359
0.0405499
0.0416876
0.0427711
0.0441844
-0.00784502
-0.00693847
-0.00941461
-0.0133739
-0.0145644
-0.0131601
-0.0110606
-0.00915895
-0.00769163
-0.00674556
-0.00620644
-0.0057721
-0.00519773
-0.00449992
-0.0038899
-0.00349363
-0.00322814
-0.00298662
-0.00275414
-0.00252373
-0.00230337
-0.00209227
-0.0018326
-0.00146402
-0.00101098
-0.000573142
-0.000221137
7.78904e-05
0.000357714
0.00062843
0.000937031
0.00128925
0.00161255
0.00187678
0.00215526
0.00250997
0.00289052
0.00324194
0.00362518
0.00405241
0.00445013
0.00481547
0.00520275
0.00560163
0.00599013
0.00637491
0.00676656
0.00715569
0.00757821
0.00803823
0.00850252
0.0089444
0.00938207
0.00983093
0.0102805
0.0107172
0.0112123
0.0117623
0.0122964
0.01283
0.0133905
0.0139553
0.0144844
0.015025
0.0155937
0.0161691
0.0167295
0.0173143
0.0178994
0.0185247
0.019187
0.0198773
0.0205591
0.0211942
0.0218268
0.022485
0.0232032
0.0239496
0.0246783
0.0254258
0.0261761
0.0269481
0.0277075
0.0284962
0.0292946
0.0301172
0.0309544
0.0317937
0.0326851
0.0335829
0.0345164
0.0354534
0.036423
0.0373653
0.0384303
0.039436
0.0405499
0.0416877
0.0427712
0.0441852
-0.00800403
-0.007048
-0.00908921
-0.0129421
-0.0143217
-0.0130617
-0.0110043
-0.00911233
-0.00765579
-0.006724
-0.00619314
-0.00575793
-0.00518136
-0.00448677
-0.00388289
-0.00349021
-0.00322437
-0.00298053
-0.00274667
-0.00251748
-0.00229974
-0.0020898
-0.00182905
-0.00145887
-0.00100552
-0.000568643
-0.00021776
8.08795e-05
0.000361024
0.000631951
0.000940087
0.00129158
0.00161461
0.00187896
0.00215735
0.00251171
0.00289201
0.00324335
0.00362653
0.00405362
0.00445116
0.00481641
0.00520361
0.00560237
0.00599075
0.00637549
0.00676714
0.0071562
0.00757862
0.00803866
0.00850302
0.00894491
0.0093825
0.0098313
0.0102809
0.0107175
0.0112127
0.0117626
0.0122967
0.0128303
0.0133908
0.0139557
0.0144847
0.0150253
0.0155939
0.0161694
0.0167298
0.0173145
0.0178996
0.0185249
0.0191872
0.0198776
0.0205594
0.0211944
0.0218269
0.0224852
0.0232033
0.0239498
0.0246784
0.025426
0.0261762
0.0269482
0.0277076
0.0284963
0.0292947
0.0301173
0.0309545
0.0317938
0.0326852
0.033583
0.0345165
0.0354534
0.0364231
0.0373653
0.0384304
0.0394361
0.0405499
0.0416878
0.0427712
0.0441862
-0.00815557
-0.00719252
-0.00877204
-0.0124836
-0.0140556
-0.0129568
-0.0109472
-0.00906366
-0.00761635
-0.00669896
-0.0061774
-0.00574217
-0.00516393
-0.00447322
-0.00387603
-0.00348694
-0.00322022
-0.00297343
-0.00273786
-0.00251037
-0.00229618
-0.00208777
-0.00182542
-0.00145284
-0.000998854
-0.000563101
-0.000213582
8.4639e-05
0.000365407
0.000636878
0.00094435
0.00129455
0.00161717
0.00188191
0.00216033
0.0025141
0.00289399
0.00324534
0.00362843
0.00405519
0.0044525
0.0048177
0.0052048
0.00560333
0.00599153
0.00637622
0.00676787
0.00715682
0.00757912
0.00803914
0.00850361
0.00894555
0.00938303
0.00983169
0.0102813
0.0107179
0.011213
0.011763
0.012297
0.0128307
0.0133912
0.013956
0.014485
0.0150256
0.0155942
0.0161696
0.01673
0.0173148
0.0178998
0.0185251
0.0191875
0.0198778
0.0205597
0.0211947
0.0218271
0.0224853
0.0232035
0.02395
0.0246786
0.0254262
0.0261764
0.0269484
0.0277078
0.0284964
0.0292949
0.0301174
0.0309546
0.0317939
0.0326853
0.0335831
0.0345166
0.0354535
0.0364232
0.0373654
0.0384304
0.0394361
0.0405499
0.0416878
0.0427711
0.0441875
-0.00828597
-0.00735593
-0.00846263
-0.0120012
-0.0137668
-0.0128471
-0.0108918
-0.00901502
-0.00757449
-0.00667095
-0.00615954
-0.00572524
-0.00514591
-0.00445945
-0.00386924
-0.00348369
-0.00321572
-0.00296552
-0.00272808
-0.00250274
-0.00229288
-0.00208636
-0.00182197
-0.0014463
-0.000991352
-0.00055679
-0.000208741
8.91389e-05
0.000370896
0.000643299
0.000949934
0.00129824
0.0016202
0.00188565
0.00216423
0.00251716
0.00289651
0.00324802
0.003631
0.00405716
0.00445414
0.00481938
0.00520639
0.00560462
0.00599258
0.00637719
0.0067688
0.00715762
0.00757971
0.0080397
0.00850434
0.00894639
0.00938372
0.00983217
0.0102817
0.0107184
0.0112135
0.0117633
0.0122974
0.0128311
0.0133916
0.0139564
0.0144854
0.0150259
0.0155945
0.0161699
0.0167303
0.017315
0.0179001
0.0185253
0.0191877
0.0198781
0.0205601
0.021195
0.0218273
0.0224855
0.0232037
0.0239502
0.0246789
0.0254264
0.0261766
0.0269486
0.0277079
0.0284966
0.029295
0.0301175
0.0309547
0.031794
0.0326854
0.0335832
0.0345167
0.0354536
0.0364233
0.0373655
0.0384305
0.0394363
0.0405498
0.0416878
0.0427711
0.0441891
-0.00837936
-0.00752877
-0.00817284
-0.0115051
-0.0134574
-0.0127326
-0.0108382
-0.00896648
-0.0075301
-0.00663985
-0.00613962
-0.00570732
-0.00512732
-0.00444528
-0.00386221
-0.00348035
-0.00321104
-0.0029572
-0.00271781
-0.00249496
-0.00229002
-0.00208564
-0.0018189
-0.00143954
-0.000983309
-0.000549959
-0.000203435
9.42236e-05
0.000377337
0.000651057
0.000956759
0.00130265
0.00162369
0.00189005
0.0021689
0.00252076
0.0028995
0.0032514
0.00363428
0.00405957
0.00445607
0.00482141
0.00520835
0.00560623
0.00599396
0.00637851
0.00677007
0.00715866
0.00758043
0.00804032
0.00850521
0.00894748
0.00938467
0.0098328
0.0102823
0.0107191
0.011214
0.0117637
0.0122977
0.0128316
0.0133921
0.0139568
0.0144858
0.0150264
0.0155949
0.0161702
0.0167306
0.0173153
0.0179004
0.0185256
0.0191879
0.0198784
0.0205605
0.0211953
0.0218276
0.0224857
0.023204
0.0239505
0.0246791
0.0254267
0.0261769
0.0269488
0.0277082
0.0284968
0.0292952
0.0301177
0.0309549
0.0317941
0.0326855
0.0335833
0.0345168
0.0354537
0.0364234
0.0373656
0.0384306