/*--------------------------------*- C++ -*----------------------------------*\
| =========                 |                                                 |
| \\      /  F ield         | OpenFOAM: The Open Source CFD Toolbox           |
|  \\    /   O peration     | Version:  v1906                                 |
|   \\  /    A nd           | Web:      www.OpenFOAM.com                      |
|    \\/     M anipulation  |                                                 |
\*---------------------------------------------------------------------------*/
FoamFile
{
    version     2.0;
    format      ascii;
    class       surfaceScalarField;
    location    "10.2";
    object      phi;
}
// * * * * * * * * * * * * * * * * * * * * * * * * * * * * * * * * * * * * * //

dimensions      [0 3 -1 0 0 0 0];
oriented        oriented;


internalField   nonuniform List<scalar> 
19000
(
1.13787e-06
-1.18502e-07
1.15629e-06
2.32011e-07
1.17009e-06
-7.56103e-07
1.19271e-06
-4.59202e-07
1.19629e-06
9.18375e-07
1.16078e-06
5.81434e-07
1.14144e-06
1.1362e-06
1.12505e-06
-4.85489e-07
1.10157e-06
-9.93335e-07
1.10658e-06
-1.40516e-06
1.16052e-06
-4.60325e-07
1.1279e-06
-1.96977e-06
1.20068e-06
3.77177e-07
1.15364e-06
-7.94056e-07
1.20674e-06
6.45564e-07
1.15315e-06
1.49275e-07
1.1925e-06
7.54236e-07
1.15293e-06
4.57854e-07
1.16039e-06
4.5581e-07
4.24133e-07
1.14315e-06
1.19399e-06
-8.82268e-08
1.21219e-06
2.13807e-07
1.22758e-06
-7.7149e-07
1.25053e-06
-4.82154e-07
1.25155e-06
9.17355e-07
1.21854e-06
6.14448e-07
1.19678e-06
1.15796e-06
1.18606e-06
-4.74769e-07
1.16339e-06
-9.70669e-07
1.16222e-06
-1.404e-06
1.20674e-06
-5.04841e-07
1.17789e-06
-1.94092e-06
1.24452e-06
3.1055e-07
1.21105e-06
-7.60592e-07
1.24168e-06
6.14937e-07
1.22303e-06
1.67926e-07
1.2229e-06
7.54364e-07
1.22887e-06
4.51882e-07
1.19169e-06
4.92993e-07
3.9149e-07
1.22433e-06
1.25445e-06
-5.98914e-08
1.26994e-06
1.9832e-07
1.28693e-06
-7.8848e-07
1.30987e-06
-5.05095e-07
1.31102e-06
9.16197e-07
1.2794e-06
6.46072e-07
1.26035e-06
1.17701e-06
1.25176e-06
-4.66171e-07
1.22984e-06
-9.48753e-07
1.22358e-06
-1.39774e-06
1.25915e-06
-5.40409e-07
1.23718e-06
-1.91896e-06
1.29478e-06
2.52956e-07
1.27406e-06
-7.39871e-07
1.29254e-06
5.96453e-07
1.28985e-06
1.7062e-07
1.28094e-06
7.63274e-07
1.2918e-06
4.41021e-07
1.272e-06
5.1279e-07
3.92222e-07
1.27127e-06
1.31953e-06
-3.53183e-08
1.33026e-06
1.87593e-07
1.34759e-06
-8.05815e-07
1.37026e-06
-5.27766e-07
1.37331e-06
9.13151e-07
1.34381e-06
6.75569e-07
1.32895e-06
1.19187e-06
1.32018e-06
-4.57409e-07
1.29878e-06
-9.27345e-07
1.28873e-06
-1.38769e-06
1.31486e-06
-5.66537e-07
1.29957e-06
-1.90366e-06
1.34923e-06
2.03294e-07
1.34068e-06
-7.31317e-07
1.35581e-06
5.81321e-07
1.35791e-06
1.68515e-07
1.35773e-06
7.63454e-07
1.35983e-06
4.38923e-07
1.36e-06
5.12623e-07
4.02428e-07
1.34979e-06
1.38917e-06
-1.61329e-08
1.39475e-06
1.8201e-07
1.41041e-06
-8.21474e-07
1.43117e-06
-5.48524e-07
1.43643e-06
9.07887e-07
1.41033e-06
7.01669e-07
1.40105e-06
1.20115e-06
1.39183e-06
-4.48188e-07
1.37085e-06
-9.06361e-07
1.35779e-06
-1.37464e-06
1.37641e-06
-5.85163e-07
1.36345e-06
-1.8907e-06
1.40724e-06
1.59496e-07
1.40625e-06
-7.30318e-07
1.42482e-06
5.62749e-07
1.42609e-06
1.67242e-07
1.43754e-06
7.52008e-07
1.43417e-06
4.4229e-07
1.44371e-06
5.03078e-07
4.11209e-07
1.43493e-06
1.46257e-06
-3.02217e-09
1.4645e-06
1.80073e-07
1.4763e-06
-8.33274e-07
1.49249e-06
-5.64709e-07
1.49874e-06
9.01632e-07
1.47809e-06
7.22318e-07
1.47607e-06
1.20318e-06
1.46653e-06
-4.38644e-07
1.44578e-06
-8.85617e-07
1.43041e-06
-1.35926e-06
1.44365e-06
-5.98407e-07
1.42861e-06
-1.87566e-06
1.46812e-06
1.19986e-07
1.47006e-06
-7.3225e-07
1.49386e-06
5.38945e-07
1.49381e-06
1.67297e-07
1.51453e-06
7.31287e-07
1.51008e-06
4.46742e-07
1.52518e-06
4.8797e-07
4.18184e-07
1.51821e-06
1.5386e-06
4.59827e-09
1.53915e-06
1.79514e-07
1.54545e-06
-8.39566e-07
1.55465e-06
-5.73915e-07
1.56052e-06
8.95769e-07
1.54765e-06
7.35184e-07
1.55463e-06
1.1962e-06
1.5449e-06
-4.28916e-07
1.52419e-06
-8.64903e-07
1.50666e-06
-1.34173e-06
1.51587e-06
-6.07616e-07
1.49618e-06
-1.85597e-06
1.53253e-06
8.36289e-08
1.53417e-06
-7.33889e-07
1.56277e-06
5.1035e-07
1.56229e-06
1.6777e-07
1.59062e-06
7.0296e-07
1.587e-06
4.50358e-07
1.60688e-06
4.68096e-07
4.23732e-07
1.60133e-06
1.61661e-06
8.11695e-09
1.61741e-06
1.78718e-07
1.61742e-06
-8.39585e-07
1.61886e-06
-5.75351e-07
1.62403e-06
8.906e-07
1.62088e-06
7.38333e-07
1.63764e-06
1.17943e-06
1.62731e-06
-4.18581e-07
1.6063e-06
-8.43898e-07
1.58654e-06
-1.32196e-06
1.59205e-06
-6.13126e-07
1.5667e-06
-1.83063e-06
1.60136e-06
4.89722e-08
1.60117e-06
-7.33696e-07
1.63402e-06
4.77497e-07
1.63372e-06
1.6807e-07
1.66884e-06
6.67836e-07
1.66667e-06
4.52532e-07
1.69032e-06
4.44448e-07
4.27781e-07
1.68627e-06
1.69677e-06
8.91854e-09
1.69818e-06
1.7731e-07
1.69191e-06
-8.3331e-07
1.68695e-06
-5.70394e-07
1.69255e-06
8.85e-07
1.69986e-06
7.31019e-07
1.72556e-06
1.15374e-06
1.71371e-06
-4.0673e-07
1.69212e-06
-8.22312e-07
1.67011e-06
-1.29996e-06
1.6715e-06
-6.14518e-07
1.64032e-06
-1.79944e-06
1.67511e-06
1.41875e-08
1.67289e-06
-7.31478e-07
1.71018e-06
4.40202e-07
1.71025e-06
1.68003e-07
1.75133e-06
6.26754e-07
1.7506e-06
4.53259e-07
1.77636e-06
4.18689e-07
4.30444e-07
1.7737e-06
1.77973e-06
7.90883e-09
1.78132e-06
1.75725e-07
1.76919e-06
-8.21182e-07
1.76075e-06
-5.6196e-07
1.76876e-06
8.76993e-07
1.78557e-06
7.14212e-07
1.81775e-06
1.12156e-06
1.80348e-06
-3.92459e-07
1.78125e-06
-8.00084e-07
1.75737e-06
-1.27608e-06
1.75409e-06
-6.11238e-07
1.71733e-06
-1.76268e-06
1.75375e-06
-2.22384e-08
1.74987e-06
-7.27594e-07
1.79255e-06
3.97519e-07
1.79316e-06
1.67396e-07
1.83902e-06
5.80896e-07
1.83926e-06
4.53014e-07
1.86499e-06
3.92964e-07
4.3211e-07
1.86332e-06
1.86609e-06
5.57038e-09
1.86737e-06
1.74442e-07
1.85022e-06
-8.0403e-07
1.84133e-06
-5.53069e-07
1.85347e-06
8.64856e-07
1.8772e-06
6.90475e-07
1.91268e-06
1.08608e-06
1.89572e-06
-3.75499e-07
1.87314e-06
-7.77509e-07
1.84808e-06
-1.25102e-06
1.84026e-06
-6.03417e-07
1.79852e-06
-1.72094e-06
1.83693e-06
-6.06426e-08
1.83139e-06
-7.22058e-07
1.8805e-06
3.48406e-07
1.88192e-06
1.65985e-07
1.93112e-06
5.31692e-07
1.93161e-06
4.52524e-07
1.95492e-06
3.69648e-07
4.331e-07
1.95393e-06
1.95615e-06
2.25633e-09
1.95706e-06
1.73532e-07
1.93616e-06
-7.83128e-07
1.92862e-06
-5.45529e-07
1.9454e-06
8.48081e-07
1.97273e-06
6.63142e-07
2.0087e-06
1.05011e-06
1.98975e-06
-3.56545e-07
1.96743e-06
-7.55192e-07
1.94181e-06
-1.22539e-06
1.9308e-06
-5.92412e-07
1.88492e-06
-1.67506e-06
1.92417e-06
-9.98962e-08
1.91608e-06
-7.13965e-07
1.97158e-06
2.929e-07
1.97385e-06
1.63717e-07
2.02479e-06
4.80749e-07
2.02503e-06
4.52285e-07
2.04382e-06
3.50861e-07
4.3324e-07
2.04368e-06
2.05008e-06
-1.63287e-09
2.0509e-06
1.72711e-07
2.02783e-06
-7.60062e-07
2.02181e-06
-5.39507e-07
2.04231e-06
8.27585e-07
2.07024e-06
6.35206e-07
2.10512e-06
1.01523e-06
2.08557e-06
-3.36995e-07
2.06422e-06
-7.33845e-07
2.03817e-06
-1.19935e-06
2.02638e-06
-5.8062e-07
1.97709e-06
-1.62577e-06
2.01525e-06
-1.38053e-07
2.00288e-06
-7.01599e-07
2.06275e-06
2.33035e-07
2.06532e-06
1.61143e-07
2.11614e-06
4.2993e-07
2.11632e-06
4.52105e-07
2.12924e-06
3.37941e-07
4.31618e-07
2.13086e-06
2.14805e-06
-5.68412e-09
2.14916e-06
1.71604e-07
2.12543e-06
-7.36327e-07
2.11999e-06
-5.34068e-07
2.14247e-06
8.05106e-07
2.16914e-06
6.08536e-07
2.20259e-06
9.81782e-07
2.18388e-06
-3.18283e-07
2.1641e-06
-7.14065e-07
2.13722e-06
-1.17247e-06
2.12716e-06
-5.7056e-07
2.07489e-06
-1.57349e-06
2.11029e-06
-1.73452e-07
2.09192e-06
-6.83231e-07
2.15237e-06
1.72587e-07
2.1541e-06
1.59413e-07
2.20269e-06
3.8134e-07
2.20372e-06
4.51074e-07
2.21058e-06
3.31081e-07
4.26931e-07
2.21526e-06
2.25039e-06
-9.58563e-09
2.25207e-06
1.69926e-07
2.22866e-06
-7.12915e-07
2.22268e-06
-5.28096e-07
2.24544e-06
7.8235e-07
2.27019e-06
5.83788e-07
2.30269e-06
9.49279e-07
2.2857e-06
-3.01293e-07
2.26783e-06
-6.96196e-07
2.23951e-06
-1.14415e-06
2.23282e-06
-5.63868e-07
2.17773e-06
-1.5184e-06
2.20972e-06
-2.05441e-07
2.18452e-06
-6.58034e-07
2.24148e-06
1.15629e-07
2.24114e-06
1.59749e-07
2.28545e-06
3.37033e-07
2.28853e-06
4.4799e-07
2.29032e-06
3.29296e-07
4.18404e-07
2.29885e-06
2.35747e-06
-1.31792e-08
2.35986e-06
1.67533e-07
2.33713e-06
-6.90182e-07
2.32995e-06
-5.20921e-07
2.35187e-06
7.60436e-07
2.37484e-06
5.60812e-07
2.40708e-06
9.17038e-07
2.39199e-06
-2.86198e-07
2.37611e-06
-6.80313e-07
2.34591e-06
-1.11395e-06
2.34297e-06
-5.60927e-07
2.28522e-06
-1.46065e-06
2.31407e-06
-2.34287e-07
2.28252e-06
-6.26483e-07
2.33317e-06
6.49731e-08
2.33016e-06
1.62759e-07
2.3686e-06
2.9859e-07
2.37473e-06
4.41868e-07
2.37302e-06
3.31003e-07
4.063e-07
2.38512e-06
2.46964e-06
-1.64273e-08
2.47281e-06
1.64371e-07
2.45063e-06
-6.68006e-07
2.44215e-06
-5.1244e-07
2.46277e-06
7.39816e-07
2.4844e-06
5.39178e-07
2.51693e-06
8.84511e-07
2.5034e-06
-2.72672e-07
2.48938e-06
-6.66291e-07
2.45721e-06
-1.08179e-06
2.45747e-06
-5.61186e-07
2.39742e-06
-1.4006e-06
2.42373e-06
-2.60599e-07
2.38731e-06
-5.90056e-07
2.43068e-06
2.16017e-08
2.42532e-06
1.68117e-07
2.45706e-06
2.66851e-07
2.46672e-06
4.32207e-07
2.46293e-06
3.34793e-07
3.91647e-07
2.47758e-06
2.58722e-06
-1.93504e-08
2.59115e-06
1.60441e-07
2.56918e-06
-6.46041e-07
2.55966e-06
-5.02916e-07
2.57901e-06
7.20464e-07
2.59971e-06
5.18485e-07
2.63283e-06
8.51385e-07
2.62034e-06
-2.60185e-07
2.60795e-06
-6.53894e-07
2.57396e-06
-1.0478e-06
2.5765e-06
-5.63724e-07
2.5147e-06
-1.3388e-06
2.53895e-06
-2.84848e-07
2.49949e-06
-5.50598e-07
2.53593e-06
-1.48336e-08
2.5293e-06
1.74743e-07
2.55419e-06
2.41964e-07
2.56743e-06
4.18966e-07
2.56265e-06
3.39571e-07
3.75837e-07
2.57846e-06
2.71046e-06
-2.19823e-08
2.71514e-06
1.55764e-07
2.69301e-06
-6.23911e-07
2.68284e-06
-4.92746e-07
2.70119e-06
7.02116e-07
2.72121e-06
4.98464e-07
2.75507e-06
8.17524e-07
2.74309e-06
-2.48212e-07
2.73206e-06
-6.4286e-07
2.69649e-06
-1.01223e-06
2.70041e-06
-5.67639e-07
2.63753e-06
-1.27593e-06
2.65986e-06
-3.07175e-07
2.61911e-06
-5.09848e-07
2.64943e-06
-4.51554e-08
2.64292e-06
1.8125e-07
2.66133e-06
2.23564e-07
2.67781e-06
4.02477e-07
2.67299e-06
3.44391e-07
3.60228e-07
2.6886e-06
2.83964e-06
-2.43516e-08
2.84503e-06
1.50374e-07
2.82241e-06
-6.01289e-07
2.81197e-06
-4.8231e-07
2.82965e-06
6.84432e-07
2.84915e-06
4.78966e-07
2.88379e-06
7.82885e-07
2.87189e-06
-2.36308e-07
2.86195e-06
-6.32925e-07
2.82504e-06
-9.75327e-07
2.82957e-06
-5.72165e-07
2.76633e-06
-1.21269e-06
2.78661e-06
-3.27451e-07
2.74602e-06
-4.69259e-07
2.77095e-06
-7.00905e-08
2.76584e-06
1.86367e-07
2.77851e-06
2.10888e-07
2.79758e-06
3.83413e-07
2.79358e-06
3.48384e-07
3.45849e-07
2.80796e-06
2.97502e-06
-2.64779e-08
2.9811e-06
1.44296e-07
2.95773e-06
-5.77923e-07
2.94733e-06
-4.71903e-07
2.96468e-06
6.67079e-07
2.98371e-06
4.59937e-07
3.01915e-06
7.4745e-07
3.00696e-06
-2.24126e-07
2.99788e-06
-6.23838e-07
2.95989e-06
-9.3734e-07
2.96437e-06
-5.76646e-07
2.90147e-06
-1.14979e-06
2.91941e-06
-3.45392e-07
2.88011e-06
-4.29966e-07
2.90021e-06
-9.01879e-08
2.89737e-06
1.89211e-07
2.90529e-06
2.02964e-07
2.92608e-06
3.62629e-07
2.92368e-06
3.50782e-07
3.33348e-07
2.93618e-06
3.1169e-06
-2.83714e-08
3.12365e-06
1.37542e-07
3.09937e-06
-5.53642e-07
3.08918e-06
-4.61716e-07
3.1065e-06
6.49762e-07
3.12504e-06
4.41399e-07
3.16129e-06
7.11196e-07
3.14859e-06
-2.11422e-07
3.14009e-06
-6.1534e-07
3.10133e-06
-8.98579e-07
3.10517e-06
-5.80483e-07
3.0433e-06
-1.08791e-06
3.05854e-06
-3.60632e-07
3.02141e-06
-3.9284e-07
3.03706e-06
-1.05834e-07
3.03694e-06
1.89326e-07
3.04118e-06
1.98724e-07
3.06278e-06
3.4103e-07
3.06257e-06
3.50989e-07
3.22943e-07
3.07298e-06
3.26557e-06
-3.00306e-08
3.273e-06
1.30107e-07
3.24772e-06
-5.28356e-07
3.23783e-06
-4.51828e-07
3.25535e-06
6.32236e-07
3.27332e-06
4.23438e-07
3.31042e-06
6.74087e-07
3.29706e-06
-1.98056e-07
3.28888e-06
-6.0716e-07
3.2497e-06
-8.59402e-07
3.25233e-06
-5.83118e-07
3.19215e-06
-1.02773e-06
3.20434e-06
-3.72822e-07
3.16998e-06
-3.58486e-07
3.18151e-06
-1.17359e-07
3.18424e-06
1.86596e-07
3.18577e-06
1.97193e-07
3.20739e-06
3.19415e-07
3.20978e-06
3.48594e-07
3.14602e-07
3.21812e-06
3.42134e-06
-3.14396e-08
3.42947e-06
1.21974e-07
3.40318e-06
-5.02066e-07
3.39357e-06
-4.4221e-07
3.4115e-06
6.14304e-07
3.42875e-06
4.06191e-07
3.46675e-06
6.36084e-07
3.4527e-06
-1.84004e-07
3.44454e-06
-5.99001e-07
3.40535e-06
-8.20215e-07
3.40625e-06
-5.84018e-07
3.34834e-06
-9.6982e-07
3.35722e-06
-3.81695e-07
3.32595e-06
-3.27224e-07
3.33372e-06
-1.25125e-07
3.33913e-06
1.81181e-07
3.33883e-06
1.97494e-07
3.35981e-06
2.98441e-07
3.36499e-06
3.43408e-07
3.08093e-07
3.3715e-06
3.58454e-06
-3.25663e-08
3.59339e-06
1.13117e-07
3.5662e-06
-4.74868e-07
3.55672e-06
-4.32738e-07
3.57523e-06
5.958e-07
3.5916e-06
3.89821e-07
3.63051e-06
5.97167e-07
3.61587e-06
-1.69357e-07
3.60741e-06
-5.90545e-07
3.56866e-06
-7.81458e-07
3.56732e-06
-5.82686e-07
3.51217e-06
-9.14662e-07
3.5176e-06
-3.87129e-07
3.48946e-06
-2.99088e-07
3.49393e-06
-1.29587e-07
3.50165e-06
1.73458e-07
3.5003e-06
1.9884e-07
3.52007e-06
2.78676e-07
3.52812e-06
3.35361e-07
3.03046e-07
3.53316e-06
3.7555e-06
-3.33638e-08
3.7651e-06
1.03519e-07
3.73717e-06
-4.46934e-07
3.72765e-06
-4.23216e-07
3.74687e-06
5.76579e-07
3.7622e-06
3.74491e-07
3.802e-06
5.57365e-07
3.78697e-06
-1.54325e-07
3.77788e-06
-5.81455e-07
3.74e-06
-7.43578e-07
3.73598e-06
-5.78673e-07
3.68387e-06
-8.6255e-07
3.68593e-06
-3.89192e-07
3.66073e-06
-2.73885e-07
3.66237e-06
-1.31225e-07
3.67197e-06
1.6386e-07
3.67023e-06
2.00574e-07
3.68833e-06
2.60576e-07
3.69915e-06
3.24542e-07
2.98923e-07
3.70327e-06
3.9346e-06
-3.37777e-08
3.94494e-06
9.31845e-08
3.91651e-06
-4.18509e-07
3.9067e-06
-4.13404e-07
3.92677e-06
5.56504e-07
3.94095e-06
3.60311e-07
3.98151e-06
5.16808e-07
3.96639e-06
-1.39207e-07
3.95633e-06
-5.71391e-07
3.91975e-06
-7.07004e-07
3.9127e-06
-5.71618e-07
3.86371e-06
-8.1356e-07
3.86265e-06
-3.88132e-07
3.84003e-06
-2.51266e-07
3.83931e-06
-1.30504e-07
3.85034e-06
1.52834e-07
3.84878e-06
2.02125e-07
3.86484e-06
2.44518e-07
3.87825e-06
3.11134e-07
2.95164e-07
3.88201e-06
4.12223e-06
-3.37566e-08
4.13325e-06
8.21602e-08
4.10462e-06
-3.89877e-07
4.09427e-06
-4.0305e-07
4.11534e-06
5.35436e-07
4.12832e-06
3.47324e-07
4.16939e-06
4.75738e-07
4.15454e-06
-1.24358e-07
4.14319e-06
-5.60032e-07
4.10829e-06
-6.72103e-07
4.09798e-06
-5.61309e-07
4.05196e-06
-7.6754e-07
4.04817e-06
-3.84346e-07
4.02771e-06
-2.30805e-07
4.02503e-06
-1.27821e-07
4.03709e-06
1.4077e-07
4.03618e-06
2.03033e-07
4.04999e-06
2.30709e-07
4.06552e-06
2.95608e-07
2.90972e-07
4.06971e-06
4.31881e-06
-3.32657e-08
4.33043e-06
7.05421e-08
4.3019e-06
-3.61346e-07
4.29077e-06
-3.9192e-07
4.31295e-06
5.13255e-07
4.32479e-06
3.35488e-07
4.36601e-06
4.34513e-07
4.35181e-06
-1.10159e-07
4.33888e-06
-5.471e-07
4.30594e-06
-6.39164e-07
4.29235e-06
-5.47716e-07
4.24897e-06
-7.24166e-07
4.24291e-06
-3.78285e-07
4.2242e-06
-2.12096e-07
4.21983e-06
-1.23455e-07
4.23258e-06
1.28025e-07
4.2327e-06
2.02915e-07
4.24423e-06
2.19179e-07
4.26119e-06
2.78644e-07
2.85523e-07
4.26664e-06
4.5248e-06
-3.22949e-08
4.53687e-06
5.84786e-08
4.50874e-06
-3.33221e-07
4.49664e-06
-3.79821e-07
4.52002e-06
4.89877e-07
4.53083e-06
3.24683e-07
4.57175e-06
3.93585e-07
4.55858e-06
-9.69812e-08
4.54385e-06
-5.32377e-07
4.51303e-06
-6.08343e-07
4.49635e-06
-5.31038e-07
4.45518e-06
-6.82987e-07
4.44726e-06
-3.70373e-07
4.43e-06
-1.94831e-07
4.42411e-06
-1.17568e-07
4.43719e-06
1.14944e-07
4.43869e-06
2.01421e-07
4.44801e-06
2.09852e-07
4.46562e-06
2.61035e-07
2.78115e-07
4.47303e-06
4.74068e-06
-3.08615e-08
4.753e-06
4.61586e-08
4.72557e-06
-3.05789e-07
4.71236e-06
-3.66616e-07
4.73698e-06
4.65265e-07
4.7469e-06
3.14758e-07
4.78706e-06
3.53431e-07
4.77522e-06
-8.51422e-08
4.75857e-06
-5.15729e-07
4.72988e-06
-5.7965e-07
4.71052e-06
-5.11684e-07
4.67105e-06
-6.43509e-07
4.66166e-06
-3.60988e-07
4.64564e-06
-1.78812e-07
4.63835e-06
-1.10273e-07
4.6514e-06
1.01891e-07
4.65453e-06
1.98292e-07
4.66193e-06
2.02452e-07
4.67932e-06
2.4364e-07
2.68329e-07
4.68911e-06
4.96694e-06
-2.90053e-08
4.97931e-06
3.37918e-08
4.95281e-06
-2.79291e-07
4.93844e-06
-3.52249e-07
4.96425e-06
4.3946e-07
4.97349e-06
3.05522e-07
5.01239e-06
3.14531e-07
5.00213e-06
-7.48878e-08
4.98353e-06
-4.97124e-07
4.95683e-06
-5.52958e-07
4.93538e-06
-4.90227e-07
4.89709e-06
-6.05225e-07
4.88657e-06
-3.50463e-07
4.87168e-06
-1.6392e-07
4.8631e-06
-1.01696e-07
4.87578e-06
8.92062e-08
4.88069e-06
1.93383e-07
4.88661e-06
1.96534e-07
4.90288e-06
2.27371e-07
2.56084e-07
4.91512e-06
5.20409e-06
-2.67812e-08
5.21629e-06
2.15909e-08
5.19092e-06
-2.53919e-07
5.17541e-06
-3.36738e-07
5.2023e-06
4.12567e-07
5.21107e-06
2.96751e-07
5.24825e-06
2.77355e-07
5.23976e-06
-6.63985e-08
5.21925e-06
-4.76611e-07
5.19435e-06
-5.28056e-07
5.17141e-06
-4.6729e-07
5.13389e-06
-5.67709e-07
5.12244e-06
-3.39014e-07
5.10869e-06
-1.50168e-07
5.09901e-06
-9.20184e-08
5.11094e-06
7.72809e-08
5.11765e-06
1.86672e-07
5.12264e-06
1.91542e-07
5.13714e-06
2.12877e-07
2.41826e-07
5.15139e-06
5.45266e-06
-2.42509e-08
5.46451e-06
9.74323e-09
5.44038e-06
-2.2979e-07
5.42381e-06
-3.20171e-07
5.45162e-06
3.84757e-07
5.46016e-06
2.8821e-07
5.4952e-06
2.42315e-07
5.48858e-06
-5.97728e-08
5.4663e-06
-4.54337e-07
5.44289e-06
-5.04645e-07
5.41911e-06
-4.43507e-07
5.38205e-06
-5.30651e-07
5.36981e-06
-3.26772e-07
5.35726e-06
-1.37617e-07
5.34671e-06
-8.14643e-08
5.35753e-06
6.64577e-08
5.36586e-06
1.78338e-07
5.37051e-06
1.86891e-07
5.383e-06
2.00387e-07
2.26514e-07
5.39832e-06
5.71318e-06
-2.14758e-08
5.72454e-06
-1.60944e-09
5.70169e-06
-2.06946e-07
5.68423e-06
-3.02706e-07
5.71272e-06
3.56259e-07
5.72125e-06
2.79686e-07
5.75383e-06
2.09736e-07
5.74908e-06
-5.50237e-08
5.72529e-06
-4.30551e-07
5.703e-06
-4.82357e-07
5.67896e-06
-4.19463e-07
5.64221e-06
-4.93907e-07
5.62922e-06
-3.13776e-07
5.61799e-06
-1.26388e-07
5.60682e-06
-7.03002e-08
5.61622e-06
5.70604e-08
5.62584e-06
1.68722e-07
5.63072e-06
1.82009e-07
5.64123e-06
1.89875e-07
2.11171e-07
5.65658e-06
5.98623e-06
-1.85133e-08
5.997e-06
-1.23836e-08
5.97541e-06
-1.8535e-07
5.95725e-06
-2.84547e-07
5.98618e-06
3.27327e-07
5.99487e-06
2.71002e-07
6.02473e-06
1.79874e-07
6.02182e-06
-5.21125e-08
5.99684e-06
-4.05571e-07
5.97526e-06
-4.60785e-07
5.95145e-06
-3.95649e-07
5.91504e-06
-4.575e-07
5.90125e-06
-2.99986e-07
5.89141e-06
-1.1654e-07
5.87999e-06
-5.88881e-08
5.88768e-06
4.93754e-08
5.8982e-06
1.58202e-07
5.90364e-06
1.76566e-07
5.91258e-06
1.80933e-07
1.96751e-07
5.927e-06
6.27239e-06
-1.54199e-08
6.28255e-06
-2.25349e-08
6.26214e-06
-1.64941e-07
6.24349e-06
-2.65896e-07
6.2726e-06
2.98214e-07
6.2816e-06
2.62006e-07
6.30851e-06
1.52955e-07
6.30736e-06
-5.09612e-08
6.28157e-06
-3.79777e-07
6.26032e-06
-4.39531e-07
6.23711e-06
-3.72443e-07
6.20119e-06
-4.21586e-07
6.18654e-06
-2.85332e-07
6.17807e-06
-1.0807e-07
6.16675e-06
-4.75645e-08
6.17258e-06
4.35402e-08
6.18361e-06
1.47179e-07
6.18974e-06
1.70428e-07
6.19768e-06
1.72999e-07
1.83846e-07
6.21058e-06
6.5723e-06
-1.22555e-08
6.5818e-06
-3.20276e-08
6.56256e-06
-1.45705e-07
6.54355e-06
-2.46886e-07
6.57259e-06
2.69177e-07
6.58208e-06
2.52516e-07
6.60586e-06
1.29175e-07
6.60628e-06
-5.13843e-08
6.58015e-06
-3.53646e-07
6.55885e-06
-4.18235e-07
6.53649e-06
-3.50074e-07
6.5013e-06
-3.86404e-07
6.48572e-06
-2.69747e-07
6.47853e-06
-1.00877e-07
6.46767e-06
-3.67101e-08
6.47158e-06
3.96356e-08
6.48278e-06
1.35976e-07
6.48959e-06
1.63621e-07
6.49697e-06
1.65617e-07
1.72497e-07
6.50832e-06
6.88663e-06
-9.09142e-09
6.8954e-06
-4.08011e-08
6.87742e-06
-1.27724e-07
6.85804e-06
-2.27511e-07
6.88681e-06
2.40411e-07
6.89698e-06
2.42345e-07
6.91749e-06
1.0867e-07
6.9192e-06
-5.30978e-08
6.8932e-06
-3.27647e-07
6.87163e-06
-3.9667e-07
6.85016e-06
-3.28597e-07
6.81599e-06
-3.52232e-07
6.79945e-06
-2.53215e-07
6.79339e-06
-9.4811e-08
6.78327e-06
-2.65923e-08
6.78542e-06
3.74825e-08
6.79639e-06
1.25011e-07
6.80381e-06
1.56199e-07
6.81101e-06
1.58415e-07
1.62548e-07
6.82096e-06
7.21606e-06
-6.01233e-09
7.22397e-06
-4.87133e-08
7.20748e-06
-1.11236e-07
7.18764e-06
-2.07664e-07
7.21587e-06
2.12179e-07
7.227e-06
2.3121e-07
7.24421e-06
9.14626e-08
7.24678e-06
-5.56628e-08
7.22138e-06
-3.02251e-07
7.19936e-06
-3.7465e-07
7.17881e-06
-3.08048e-07
7.14586e-06
-3.19277e-07
7.12842e-06
-2.35775e-07
7.12317e-06
-8.95656e-08
7.1142e-06
-1.76207e-08
7.11479e-06
3.68876e-08
7.12511e-06
1.14692e-07
7.13313e-06
1.48187e-07
7.14029e-06
1.51249e-07
1.53575e-07
7.14926e-06
7.56133e-06
-3.11623e-09
7.56813e-06
-5.55118e-08
7.55349e-06
-9.66008e-08
7.53303e-06
-1.87203e-07
7.56046e-06
1.8475e-07
7.5728e-06
2.18867e-07
7.58684e-06
7.74296e-08
7.58974e-06
-5.85655e-08
7.56531e-06
-2.77817e-07
7.5428e-06
-3.52141e-07
7.5231e-06
-2.88355e-07
7.49157e-06
-2.87745e-07
7.47329e-06
-2.17489e-07
7.46853e-06
-8.48058e-08
7.46097e-06
-1.00637e-08
7.46034e-06
3.75115e-08
7.46972e-06
1.05313e-07
7.47825e-06
1.39657e-07
7.48539e-06
1.44113e-07
1.45153e-07
7.49381e-06
7.92321e-06
-5.10273e-10
7.92855e-06
-6.08551e-08
7.91618e-06
-8.42275e-08
7.89506e-06
-1.66091e-07
7.92124e-06
1.58569e-07
7.93504e-06
2.05068e-07
7.94617e-06
6.63052e-08
7.94885e-06
-6.12462e-08
7.92562e-06
-2.54585e-07
7.90272e-06
-3.2925e-07
7.88368e-06
-2.69312e-07
7.85381e-06
-2.57872e-07
7.83471e-06
-1.98386e-07
7.8301e-06
-8.01951e-08
7.82418e-06
-4.14825e-09
7.82279e-06
3.89042e-08
7.83103e-06
9.70692e-08
7.83988e-06
1.30808e-07
7.84708e-06
1.36914e-07
1.37144e-07
7.85509e-06
8.30246e-06
1.70868e-09
8.30605e-06
-6.44428e-08
8.29621e-06
-7.43905e-08
8.27462e-06
-1.44496e-07
8.29901e-06
1.34173e-07
8.3143e-06
1.89784e-07
8.323e-06
5.75975e-08
8.32492e-06
-6.3157e-08
8.303e-06
-2.32673e-07
8.27982e-06
-3.06069e-07
8.26123e-06
-2.50716e-07
8.23322e-06
-2.29868e-07
8.21343e-06
-1.78597e-07
8.20867e-06
-7.54282e-08
8.20443e-06
8.78651e-11
8.20283e-06
4.05009e-08
8.20989e-06
9.0017e-08
8.2188e-06
1.21898e-07
8.22611e-06
1.29596e-07
1.29459e-07
8.2338e-06
8.6999e-06
3.46788e-09
8.70153e-06
-6.60724e-08
8.69425e-06
-6.71089e-08
8.67278e-06
-1.23027e-07
8.69456e-06
1.12392e-07
8.71126e-06
1.7309e-07
8.7181e-06
5.07502e-08
8.71885e-06
-6.39051e-08
8.69816e-06
-2.11979e-07
8.67466e-06
-2.82574e-07
8.65645e-06
-2.325e-07
8.63041e-06
-2.03834e-07
8.61037e-06
-1.58552e-07
8.60511e-06
-7.01665e-08
8.60245e-06
2.74106e-09
8.60116e-06
4.1794e-08
8.60717e-06
8.40059e-08
8.61586e-06
1.13209e-07
8.6233e-06
1.22158e-07
1.22022e-07
8.63074e-06
9.11635e-06
4.73901e-09
9.11605e-06
-6.5772e-08
9.11103e-06
-6.20878e-08
9.09055e-06
-1.02551e-07
9.10886e-06
9.40795e-08
9.12651e-06
1.5544e-07
9.13221e-06
4.50543e-08
9.13153e-06
-6.32293e-08
9.11173e-06
-1.92181e-07
9.08794e-06
-2.58778e-07
9.07008e-06
-2.14643e-07
9.04627e-06
-1.80018e-07
9.02652e-06
-1.38804e-07
9.02059e-06
-6.42432e-08
9.01912e-06
4.21865e-09
9.01857e-06
4.23405e-08
9.02373e-06
7.88491e-08
9.032e-06
1.04938e-07
9.03956e-06
1.14591e-07
1.14843e-07
9.04674e-06
9.55265e-06
5.55363e-09
9.55071e-06
-6.38348e-08
9.54731e-06
-5.86863e-08
9.52879e-06
-8.40298e-08
9.54306e-06
7.98065e-08
9.56069e-06
1.37809e-07
9.56588e-06
3.98629e-08
9.56381e-06
-6.11625e-08
9.54457e-06
-1.72939e-07
9.52073e-06
-2.34936e-07
9.50326e-06
-1.97177e-07
9.48195e-06
-1.58707e-07
9.46305e-06
-1.19898e-07
9.45636e-06
-5.75559e-08
9.45556e-06
5.0144e-09
9.45586e-06
4.20464e-08
9.46049e-06
7.42135e-08
9.46814e-06
9.72947e-08
9.47584e-06
1.0689e-07
1.07869e-07
9.48281e-06
1.00097e-05
6.00026e-09
1.00066e-05
-6.0748e-08
1.00039e-05
-5.59393e-08
9.98814e-06
-6.83175e-08
9.99836e-06
6.9586e-08
1.00146e-05
1.21564e-07
1.00196e-05
3.48704e-08
1.00166e-05
-5.81644e-08
9.99815e-06
-1.54489e-07
9.97445e-06
-2.11228e-07
9.95729e-06
-1.80027e-07
9.93852e-06
-1.39934e-07
9.92089e-06
-1.02263e-07
9.91362e-06
-5.02874e-08
9.91303e-06
5.60319e-09
9.91403e-06
4.10477e-08
9.91835e-06
6.98921e-08
9.92534e-06
9.03042e-08
9.93299e-06
9.92387e-08
1.0093e-07
9.93993e-06
1.04884e-05
6.20726e-09
1.04847e-05
-5.70595e-08
1.04817e-05
-5.29144e-08
1.04692e-05
-5.58009e-08
1.04764e-05
6.24167e-08
1.04903e-05
1.07619e-07
1.04947e-05
3.05296e-08
1.04911e-05
-5.46355e-08
1.04738e-05
-1.37134e-07
1.04505e-05
-1.87913e-07
1.04335e-05
-1.63076e-07
1.04169e-05
-1.23305e-07
1.0401e-05
-8.64041e-08
1.03933e-05
-4.25692e-08
1.03927e-05
6.22501e-09
1.03941e-05
3.96741e-08
1.03983e-05
6.56763e-08
1.04047e-05
8.38358e-08
1.0412e-05
9.20044e-08
9.38741e-08
1.0419e-05
1.09899e-05
6.32295e-09
1.09861e-05
-5.32557e-08
1.09822e-05
-4.90226e-08
1.09727e-05
-4.63343e-08
1.09783e-05
5.68168e-08
1.09896e-05
9.63591e-08
1.09928e-05
2.72897e-08
1.09888e-05
-5.05636e-08
1.09724e-05
-1.20803e-07
1.095e-05
-1.65442e-07
1.09331e-05
-1.46196e-07
1.09182e-05
-1.08397e-07
1.09042e-05
-7.24733e-08
1.08965e-05
-3.48239e-08
1.08956e-05
7.17464e-09
1.08971e-05
3.80754e-08
1.09013e-05
6.15392e-08
1.09073e-05
7.77899e-08
1.09141e-05
8.5275e-08
8.68735e-08
1.09211e-05
1.15152e-05
6.48846e-09
1.15116e-05
-4.96876e-08
1.15067e-05
-4.41333e-08
1.14997e-05
-3.92778e-08
1.1505e-05
5.14793e-08
1.15136e-05
8.78057e-08
1.15154e-05
2.54222e-08
1.15107e-05
-4.57919e-08
1.14954e-05
-1.05525e-07
1.14741e-05
-1.44145e-07
1.14572e-05
-1.29267e-07
1.14436e-05
-9.48334e-08
1.14314e-05
-6.03148e-08
1.14241e-05
-2.74775e-08
1.14228e-05
8.45986e-09
1.14245e-05
3.64214e-08
1.14284e-05
5.75903e-08
1.14342e-05
7.19937e-08
1.14405e-05
7.90084e-08
8.01426e-08
1.14472e-05
1.20655e-05
6.8234e-09
1.20624e-05
-4.65847e-08
1.20567e-05
-3.84433e-08
1.20513e-05
-3.38485e-08
1.20571e-05
4.56816e-08
1.20635e-05
8.13895e-08
1.20635e-05
2.54312e-08
1.2058e-05
-4.03232e-08
1.20439e-05
-9.14389e-08
1.20239e-05
-1.24116e-07
1.20071e-05
-1.12472e-07
1.19944e-05
-8.2104e-08
1.19837e-05
-4.96893e-08
1.1977e-05
-2.0784e-08
1.19756e-05
9.85575e-09
1.19772e-05
3.48895e-08
1.1981e-05
5.38055e-08
1.19864e-05
6.65253e-08
1.19924e-05
7.30334e-08
7.3906e-08
1.19986e-05
1.2642e-05
7.40994e-09
1.26396e-05
-4.41387e-08
1.26334e-05
-3.22386e-08
1.26286e-05
-2.91012e-08
1.26351e-05
3.92092e-08
1.26405e-05
7.59879e-08
1.26383e-05
2.76602e-08
1.2632e-05
-3.40222e-08
1.2619e-05
-7.84775e-08
1.26004e-05
-1.05556e-07
1.25841e-05
-9.61495e-08
1.25717e-05
-6.97119e-08
1.25624e-05
-4.0346e-08
1.25564e-05
-1.47931e-08
1.2555e-05
1.12079e-08
1.25566e-05
3.33526e-08
1.25601e-05
5.02984e-08
1.25652e-05
6.13539e-08
1.2571e-05
6.72581e-08
6.81894e-08
1.25767e-05
1.32461e-05
8.27761e-09
1.32443e-05
-4.24065e-08
1.32382e-05
-2.60662e-08
1.3233e-05
-2.38957e-08
1.32401e-05
3.20539e-08
1.32454e-05
7.0678e-08
1.32413e-05
3.18172e-08
1.32336e-05
-2.6359e-08
1.32216e-05
-6.64741e-08
1.32049e-05
-8.88723e-08
1.31893e-05
-8.05352e-08
1.31772e-05
-5.76575e-08
1.31687e-05
-3.17788e-08
1.31634e-05
-9.522e-09
1.31621e-05
1.24845e-08
1.31637e-05
3.17734e-08
1.31671e-05
4.69546e-08
1.31718e-05
5.65897e-08
1.31774e-05
6.16459e-08
6.28541e-08
1.31828e-05
1.38791e-05
9.38794e-09
1.3878e-05
-4.13797e-08
1.38722e-05
-2.02709e-08
1.38657e-05
-1.74024e-08
1.38732e-05
2.46009e-08
1.38794e-05
6.45174e-08
1.38738e-05
3.74038e-08
1.38643e-05
-1.68566e-08
1.38529e-05
-5.51404e-08
1.38382e-05
-7.41301e-08
1.38238e-05
-6.61533e-08
1.38123e-05
-4.61247e-08
1.38042e-05
-2.36605e-08
1.37994e-05
-4.81086e-09
1.37983e-05
1.36404e-08
1.37999e-05
3.01371e-08
1.38033e-05
4.35901e-08
1.38076e-05
5.22484e-08
1.3813e-05
5.62853e-08
5.77066e-08
1.38181e-05
1.45425e-05
1.05696e-08
1.45418e-05
-4.06617e-08
1.45356e-05
-1.41539e-08
1.45286e-05
-1.03133e-08
1.45357e-05
1.74514e-08
1.4543e-05
5.72446e-08
1.45366e-05
4.37447e-08
1.45255e-05
-5.69326e-09
1.45144e-05
-4.4045e-08
1.45014e-05
-6.11927e-08
1.44889e-05
-5.35778e-08
1.4478e-05
-3.52808e-08
1.44703e-05
-1.59444e-08
1.44659e-05
-3.56765e-10
1.44649e-05
1.46402e-08
1.44664e-05
2.85947e-08
1.44699e-05
4.01147e-08
1.4474e-05
4.81408e-08
1.4479e-05
5.12641e-08
5.26328e-08
1.44841e-05
1.52373e-05
1.21113e-08
1.52314e-05
-3.47204e-08
1.52283e-05
-1.10486e-08
1.52233e-05
-5.32335e-09
1.523e-05
1.07474e-08
1.52366e-05
5.06894e-08
1.52305e-05
4.98234e-08
1.52188e-05
6.03634e-09
1.52075e-05
-3.27983e-08
1.51962e-05
-4.98371e-08
1.51855e-05
-4.28838e-08
1.51759e-05
-2.5722e-08
1.51687e-05
-8.74511e-09
1.51644e-05
3.96219e-09
1.51634e-05
1.56257e-08
1.51648e-05
2.7168e-08
1.51683e-05
3.66459e-08
1.51724e-05
4.40459e-08
1.5177e-05
4.66357e-08
4.77452e-08
1.51819e-05
1.59669e-05
1.25279e-08
1.59746e-05
-4.23883e-08
1.59763e-05
-1.27532e-08
1.5962e-05
8.97722e-09
1.59564e-05
1.63249e-08
1.59601e-05
4.69712e-08
1.5957e-05
5.29073e-08
1.59459e-05
1.71591e-08
1.59345e-05
-2.13809e-08
1.5924e-05
-3.93364e-08
1.5915e-05
-3.38668e-08
1.59071e-05
-1.77908e-08
1.59007e-05
-2.35269e-09
1.58965e-05
8.13879e-09
1.58954e-05
1.67563e-08
1.58967e-05
2.58598e-08
1.58999e-05
3.3438e-08
1.59041e-05
3.98073e-08
1.59086e-05
4.21808e-08
4.31354e-08
1.59132e-05
1.67291e-05
1.4039e-08
1.67172e-05
-3.04479e-08
1.67159e-05
-1.1454e-08
1.67106e-05
1.42362e-08
1.67099e-05
1.703e-08
1.67182e-05
3.86365e-08
1.67187e-05
5.24413e-08
1.67086e-05
2.72777e-08
1.66968e-05
-9.6607e-09
1.66866e-05
-2.91076e-08
1.6679e-05
-2.62494e-08
1.66728e-05
-1.15795e-08
1.66677e-05
2.77849e-09
1.66638e-05
1.19565e-08
1.66626e-05
1.79659e-08
1.66637e-05
2.48365e-08
1.66667e-05
3.04342e-08
1.66707e-05
3.57518e-08
1.66752e-05
3.77063e-08
3.87911e-08
1.66795e-05
1.753e-05
1.4367e-08
1.75294e-05
-2.98436e-08
1.7523e-05
-5.0418e-09
1.75116e-05
2.56223e-08
1.7506e-05
2.26918e-08
1.75126e-05
3.19935e-08
1.75166e-05
4.8484e-08
1.75087e-05
3.51933e-08
1.74966e-05
2.34826e-09
1.74863e-05
-1.87979e-08
1.74794e-05
-1.92781e-08
1.74746e-05
-6.78913e-09
1.74709e-05
6.48352e-09
1.74678e-05
1.50554e-08
1.74665e-05
1.92107e-08
1.74673e-05
2.40276e-08
1.747e-05
2.77337e-08
1.74738e-05
3.19465e-08
1.74783e-05
3.32362e-08
3.45529e-08
1.74825e-05
1.83674e-05
1.53113e-08
1.83567e-05
-1.91746e-08
1.83544e-05
-2.69862e-09
1.835e-05
2.99632e-08
1.83437e-05
2.90106e-08
1.83464e-05
2.93586e-08
1.83517e-05
4.31811e-08
1.83465e-05
4.03332e-08
1.83354e-05
1.34388e-08
1.83249e-05
-8.30899e-09
1.83182e-05
-1.24995e-08
1.83144e-05
-3.0227e-09
1.83121e-05
8.78597e-09
1.831e-05
1.71174e-08
1.83091e-05
2.01673e-08
1.83097e-05
2.34388e-08
1.83121e-05
2.52917e-08
1.83155e-05
2.86004e-08
1.83197e-05
2.89961e-08
3.0318e-08