/*--------------------------------*- C++ -*----------------------------------*\
| =========                 |                                                 |
| \\      /  F ield         | OpenFOAM: The Open Source CFD Toolbox           |
|  \\    /   O peration     | Version:  v1906                                 |
|   \\  /    A nd           | Web:      www.OpenFOAM.com                      |
|    \\/     M anipulation  |                                                 |
\*---------------------------------------------------------------------------*/
FoamFile
{
    version     2.0;
    format      ascii;
    class       volVectorField;
    location    "10.2";
    object      U;
}
// * * * * * * * * * * * * * * * * * * * * * * * * * * * * * * * * * * * * * //

dimensions      [0 1 -1 0 0 0 0];


internalField   nonuniform List<vector> 
9600
(
(0.930726 -0.00141804 0)
(1.01352 0.00267992 0)
(0.967534 -0.00887583 0)
(1.03204 -0.00573432 0)
(1.01241 0.013106 0)
(1.03199 0.00860268 0)
(0.960294 0.0188004 0)
(0.98849 -0.00906337 0)
(0.942166 -0.0200428 0)
(0.941262 -0.0302131 0)
(0.956054 -0.0097522 0)
(1.02221 -0.0508689 0)
(0.921598 0.0118043 0)
(1.11623 -0.0249104 0)
(0.883439 0.0221691 0)
(1.15153 0.00404852 0)
(0.850944 0.0299754 0)
(1.16051 0.0187448 0)
(0.831504 0.0204608 0)
(1.13442 0.0217472 0)
(0.938468 -0.00104604 0)
(1.00914 0.00244017 0)
(0.972469 -0.00908956 0)
(1.03008 -0.00607508 0)
(1.01462 0.0129021 0)
(1.0285 0.00908614 0)
(0.966065 0.0190788 0)
(0.98483 -0.00874445 0)
(0.957323 -0.0193793 0)
(0.941358 -0.0302615 0)
(0.960404 -0.0114656 0)
(1.00336 -0.0498278 0)
(0.930544 0.0097843 0)
(1.08926 -0.0233801 0)
(0.903327 0.0209416 0)
(1.11174 0.0057186 0)
(0.898317 0.0297169 0)
(1.08692 0.0188794 0)
(0.929703 0.0226576 0)
(1.0103 0.0192842 0)
(0.951927 -0.000728408 0)
(1.00186 0.00223799 0)
(0.978825 -0.00928985 0)
(1.02525 -0.00641252 0)
(1.01844 0.0128661 0)
(1.02436 0.0096824 0)
(0.973865 0.0195012 0)
(0.986981 -0.00854322 0)
(0.969045 -0.0189851 0)
(0.946645 -0.0302173 0)
(0.964414 -0.0123432 0)
(0.991397 -0.0492012 0)
(0.946517 0.00769384 0)
(1.06015 -0.0225978 0)
(0.938557 0.0196885 0)
(1.06561 0.00623725 0)
(0.954368 0.0293757 0)
(1.03338 0.0189192 0)
(0.987211 0.0235465 0)
(0.990517 0.0191542 0)
(0.967694 -0.00046156 0)
(0.994694 0.0020921 0)
(0.984817 -0.00950363 0)
(1.01855 -0.00671746 0)
(1.02148 0.012902 0)
(1.02094 0.0101804 0)
(0.981748 0.0198173 0)
(0.991449 -0.00839144 0)
(0.97744 -0.0185534 0)
(0.95326 -0.0300259 0)
(0.968042 -0.013031 0)
(0.981282 -0.0488203 0)
(0.960984 0.00620059 0)
(1.03556 -0.0223057 0)
(0.97021 0.0192473 0)
(1.03754 0.0059883 0)
(0.990452 0.0296597 0)
(1.02118 0.0187382 0)
(1.00904 0.0235395 0)
(1.00794 0.0200968 0)
(0.982097 -0.000240961 0)
(0.990422 0.00200504 0)
(0.989933 -0.00970667 0)
(1.01169 -0.00700154 0)
(1.02156 0.012855 0)
(1.01735 0.0105989 0)
(0.988246 0.0200226 0)
(0.996963 -0.00821925 0)
(0.984242 -0.0181335 0)
(0.960453 -0.029758 0)
(0.971789 -0.013554 0)
(0.975675 -0.0484532 0)
(0.969087 0.00496129 0)
(1.01854 -0.0221558 0)
(0.988839 0.0188881 0)
(1.02497 0.00590528 0)
(1.00766 0.0297967 0)
(1.02448 0.0186961 0)
(1.02017 0.0234721 0)
(1.02235 0.0207684 0)
(0.992671 -7.95517e-05 0)
(0.989822 0.0019712 0)
(0.994441 -0.00986925 0)
(1.00559 -0.00724608 0)
(1.01796 0.0127547 0)
(1.01231 0.0109556 0)
(0.993412 0.020126 0)
(1.00248 -0.00804459 0)
(0.99002 -0.017723 0)
(0.967211 -0.0294475 0)
(0.975809 -0.0139063 0)
(0.973467 -0.0480801 0)
(0.971671 0.00384176 0)
(1.00706 -0.022146 0)
(0.995976 0.0182174 0)
(1.0184 0.00598583 0)
(1.01433 0.029138 0)
(1.02796 0.0188451 0)
(1.02775 0.0229909 0)
(1.03114 0.0210424 0)
(0.998866 2.10429e-05 0)
(0.991748 0.00196546 0)
(0.99839 -0.00997214 0)
(1.00022 -0.00740492 0)
(1.01151 0.0126657 0)
(1.00591 0.0112198 0)
(0.998007 0.0200917 0)
(1.008 -0.00786892 0)
(0.995442 -0.0173134 0)
(0.973591 -0.0290873 0)
(0.979919 -0.0141517 0)
(0.973296 -0.0476097 0)
(0.971482 0.00280961 0)
(0.999258 -0.0221889 0)
(0.996568 0.0173552 0)
(1.01353 0.00601711 0)
(1.01634 0.0280271 0)
(1.02972 0.0190712 0)
(1.03298 0.0220699 0)
(1.03718 0.0212492 0)
(1.00161 7.26436e-05 0)
(0.994545 0.00196232 0)
(1.00131 -0.0100039 0)
(0.995341 -0.00746009 0)
(1.00401 0.0125997 0)
(0.999609 0.011348 0)
(1.00299 0.0198949 0)
(1.01355 -0.00768968 0)
(1.0007 -0.016901 0)
(0.979552 -0.0286877 0)
(0.983948 -0.014316 0)
(0.973646 -0.047022 0)
(0.970525 0.00183136 0)
(0.994055 -0.0222048 0)
(0.994895 0.01635 0)
(1.00982 0.00600805 0)
(1.01693 0.026759 0)
(1.03103 0.0192237 0)
(1.0369 0.020976 0)
(1.0418 0.0215047 0)
(1.0023 9.0991e-05 0)
(0.9972 0.00195038 0)
(1.00272 -0.00996291 0)
(0.990894 -0.00742269 0)
(0.997555 0.0125401 0)
(0.995176 0.0113162 0)
(1.00884 0.0195347 0)
(1.01891 -0.00749231 0)
(1.00572 -0.0164795 0)
(0.984976 -0.0282424 0)
(0.987909 -0.0144063 0)
(0.973468 -0.0463025 0)
(0.969773 0.000883196 0)
(0.990748 -0.0221635 0)
(0.993517 0.0151812 0)
(1.00782 0.00602317 0)
(1.01785 0.0252656 0)
(1.03281 0.0192827 0)
(1.04031 0.0197996 0)
(1.04542 0.0217075 0)
(1.00208 8.80362e-05 0)
(0.999437 0.00193228 0)
(1.00272 -0.00985309 0)
(0.987093 -0.00732374 0)
(0.993619 0.0124579 0)
(0.993674 0.0111275 0)
(1.01509 0.0190417 0)
(1.0235 -0.00725723 0)
(1.01017 -0.0160465 0)
(0.989605 -0.0277527 0)
(0.991857 -0.0143999 0)
(0.972428 -0.0454555 0)
(0.96972 -9.68853e-05 0)
(0.988446 -0.0220778 0)
(0.993378 0.0138437 0)
(1.0077 0.00604038 0)
(1.01982 0.0235213 0)
(1.03518 0.0192968 0)
(1.04331 0.0185711 0)
(1.04795 0.0218121 0)
(1.00158 7.02764e-05 0)
(1.00125 0.00191506 0)
(1.00192 -0.00967978 0)
(0.984271 -0.00720615 0)
(0.992438 0.0123202 0)
(0.994877 0.0108101 0)
(1.02051 0.0184642 0)
(1.02667 -0.00697175 0)
(1.01365 -0.0156038 0)
(0.993187 -0.0272268 0)
(0.995654 -0.0142759 0)
(0.971036 -0.0444821 0)
(0.97056 -0.00113861 0)
(0.98622 -0.0219554 0)
(0.994091 0.0123036 0)
(1.00866 0.00601984 0)
(1.02238 0.0216088 0)
(1.03743 0.0192899 0)
(1.0452 0.017404 0)
(1.04879 0.0218452 0)
(1.00113 4.09468e-05 0)
(1.00255 0.00190324 0)
(1.00107 -0.00945225 0)
(0.982699 -0.00710421 0)
(0.993073 0.0121091 0)
(0.997536 0.0104055 0)
(1.0238 0.0178533 0)
(1.02805 -0.00664369 0)
(1.01589 -0.0151584 0)
(0.995629 -0.0266793 0)
(0.998877 -0.0140484 0)
(0.970341 -0.0433801 0)
(0.972054 -0.0022231 0)
(0.983596 -0.0217647 0)
(0.994398 0.0105318 0)
(1.00909 0.00596135 0)
(1.02391 0.0196068 0)
(1.03806 0.0192784 0)
(1.04472 0.0164224 0)
(1.04695 0.0218243 0)
(1.00086 3.44188e-06 0)
(1.00323 0.00189533 0)
(1.00062 -0.00918735 0)
(0.982409 -0.00702254 0)
(0.994158 0.011833 0)
(1.0002 0.00996595 0)
(1.02441 0.0172516 0)
(1.02779 -0.0062915 0)
(1.01695 -0.0147257 0)
(0.997081 -0.0261184 0)
(1.00103 -0.0137605 0)
(0.971218 -0.0421591 0)
(0.973563 -0.00332254 0)
(0.980792 -0.0214556 0)
(0.99299 0.00857994 0)
(1.00733 0.00587149 0)
(1.02245 0.0175888 0)
(1.0354 0.0192685 0)
(1.04072 0.0157077 0)
(1.04171 0.0217342 0)
(1.00077 -3.74575e-05 0)
(1.00334 0.00188565 0)
(1.00062 -0.00890532 0)
(0.983131 -0.00695267 0)
(0.994729 0.0115178 0)
(1.00194 0.00953661 0)
(1.02277 0.0166768 0)
(1.02641 -0.00594384 0)
(1.01712 -0.0143171 0)
(0.997865 -0.0255451 0)
(1.0019 -0.0134809 0)
(0.973746 -0.040837 0)
(0.97445 -0.00437399 0)
(0.978416 -0.0209672 0)
(0.989439 0.00656061 0)
(1.00268 0.00578175 0)
(1.0171 0.0156324 0)
(1.02871 0.0192305 0)
(1.03304 0.015291 0)
(1.03322 0.0215338 0)
(1.00081 -7.78851e-05 0)
(1.00306 0.0018706 0)
(1.0009 -0.00862278 0)
(0.98441 -0.0068826 0)
(0.994562 0.0111889 0)
(1.00258 0.00913693 0)
(1.01995 0.016125 0)
(1.02452 -0.00562341 0)
(1.01678 -0.013942 0)
(0.998303 -0.0249505 0)
(1.00172 -0.0132681 0)
(0.977199 -0.0394378 0)
(0.974535 -0.00532415 0)
(0.976905 -0.0202741 0)
(0.984527 0.00460558 0)
(0.995843 0.00574825 0)
(1.00876 0.013819 0)
(1.0189 0.0191142 0)
(1.0229 0.0151461 0)
(1.02282 0.0211835 0)
(1.00089 -0.000115695 0)
(1.00264 0.00184827 0)
(1.00127 -0.00834794 0)
(0.985815 -0.00679872 0)
(0.99394 0.0108679 0)
(1.00243 0.00876885 0)
(1.01696 0.0155855 0)
(1.0226 -0.00533656 0)
(1.01622 -0.0136072 0)
(0.998598 -0.024319 0)
(1.001 -0.013152 0)
(0.980619 -0.0379814 0)
(0.97414 -0.0061566 0)
(0.976248 -0.0193855 0)
(0.979649 0.00282821 0)
(0.988418 0.00580361 0)
(0.99956 0.0122211 0)
(1.0081 0.0188824 0)
(1.01228 0.0152016 0)
(1.01239 0.0206603 0)
(1.00096 -0.000150231 0)
(1.00224 0.0018184 0)
(1.00158 -0.00808183 0)
(0.987079 -0.00669797 0)
(0.993242 0.0105663 0)
(1.0019 0.00842688 0)
(1.01438 0.0150462 0)
(1.02088 -0.00508128 0)
(1.01562 -0.0133109 0)
(0.998824 -0.0236441 0)
(1.00018 -0.0131311 0)
(0.98338 -0.0364681 0)
(0.973728 -0.00691493 0)
(0.976138 -0.0183364 0)
(0.975898 0.00128589 0)
(0.981893 0.00595661 0)
(0.991478 0.0108801 0)
(0.998429 0.0185185 0)
(1.00296 0.0153885 0)
(1.0035 0.0199811 0)
(1.00098 -0.000181345 0)
(1.00192 0.00178015 0)
(1.00178 -0.00782082 0)
(0.98811 -0.00658088 0)
(0.992698 0.0102861 0)
(1.00132 0.0081034 0)
(1.01239 0.0144991 0)
(1.01942 -0.00484968 0)
(1.01502 -0.0130499 0)
(0.998992 -0.0229281 0)
(0.999488 -0.0131798 0)
(0.985334 -0.0349076 0)
(0.973584 -0.00761919 0)
(0.976264 -0.0171749 0)
(0.97362 -1.43163e-05 0)
(0.977026 0.00618052 0)
(0.985496 0.00980628 0)
(0.991047 0.018007 0)
(0.99581 0.0156406 0)
(0.996866 0.0192144 0)
(1.00097 -0.000209287 0)
(1.0017 0.00173321 0)
(1.00187 -0.00755924 0)
(0.98892 -0.00645279 0)
(0.99237 0.0100236 0)
(1.00084 0.00779256 0)
(1.01092 0.0139405 0)
(1.01818 -0.00463149 0)
(1.01445 -0.01282 0)
(0.999101 -0.0221761 0)
(0.998947 -0.0132671 0)
(0.986627 -0.0333204 0)
(0.973751 -0.00826214 0)
(0.976459 -0.0159605 0)
(0.972595 -0.00107065 0)
(0.973849 0.00640756 0)
(0.981618 0.00899164 0)
(0.986099 0.017356 0)
(0.99087 0.0158937 0)
(0.992423 0.0184284 0)
(1.00093 -0.000234233 0)
(1.00156 0.00167766 0)
(1.00185 -0.00729263 0)
(0.989558 -0.00631917 0)
(0.992234 0.00977306 0)
(1.0005 0.00748949 0)
(1.00985 0.013369 0)
(1.01713 -0.00441399 0)
(1.01389 -0.0126165 0)
(0.999158 -0.0213925 0)
(0.998506 -0.0133735 0)
(0.987471 -0.0317118 0)
(0.974152 -0.00885899 0)
(0.976685 -0.0147364 0)
(0.97243 -0.00196103 0)
(0.972028 0.00659949 0)
(0.979373 0.00841797 0)
(0.983146 0.0165907 0)
(0.987727 0.0161033 0)
(0.989705 0.0176788 0)
(1.00087 -0.000256875 0)
(1.00146 0.00161467 0)
(1.00175 -0.0070186 0)
(0.990072 -0.00618403 0)
(0.99224 0.00952939 0)
(1.00031 0.00719255 0)
(1.00907 0.0127839 0)
(1.01622 -0.00419283 0)
(1.01333 -0.0124333 0)
(0.999174 -0.0205807 0)
(0.998114 -0.0134893 0)
(0.988038 -0.0300962 0)
(0.974694 -0.00939724 0)
(0.976947 -0.01353 0)
(0.972795 -0.00270053 0)
(0.971184 0.006727 0)
(0.978243 0.0080474 0)
(0.981621 0.0157385 0)
(0.985878 0.0162458 0)
(0.988192 0.0170164 0)
(1.00081 -0.000277244 0)
(1.00139 0.00154435 0)
(1.00161 -0.00673412 0)
(0.990499 -0.00605196 0)
(0.992344 0.00928863 0)
(1.00021 0.00690414 0)
(1.00849 0.0121835 0)
(1.0154 -0.00396439 0)
(1.01276 -0.0122653 0)
(0.99916 -0.0197481 0)
(0.997744 -0.0135955 0)
(0.988442 -0.0285012 0)
(0.975314 -0.00985647 0)
(0.97726 -0.0123877 0)
(0.97347 -0.0032661 0)
(0.971008 0.00676824 0)
(0.977823 0.00783191 0)
(0.98105 0.0148361 0)
(0.984909 0.016292 0)
(0.987454 0.0164595 0)
(1.00076 -0.000294764 0)
(1.00133 0.00146568 0)
(1.00145 -0.00643781 0)
(0.990871 -0.00592336 0)
(0.992509 0.00904557 0)
(1.00017 0.00662424 0)
(1.00804 0.0115674 0)
(1.01465 -0.00372385 0)
(1.0122 -0.0121068 0)
(0.999125 -0.0189025 0)
(0.997384 -0.0136788 0)
(0.988754 -0.0269438 0)
(0.975978 -0.0102264 0)
(0.977627 -0.0113271 0)
(0.974324 -0.00369941 0)
(0.971281 0.00671991 0)
(0.977837 0.00772221 0)
(0.981086 0.0139241 0)
(0.984514 0.0162296 0)
(0.987183 0.0160023 0)
(1.00073 -0.000310501 0)
(1.00126 0.00138054 0)
(1.00131 -0.00613068 0)
(0.991212 -0.00579586 0)
(0.992709 0.00879639 0)
(1.00014 0.00635352 0)
(1.00766 0.0109368 0)
(1.01395 -0.00346978 0)
(1.01163 -0.0119507 0)
(0.999076 -0.0180544 0)
(0.997036 -0.0137269 0)
(0.989014 -0.0254375 0)
(0.976674 -0.0105069 0)
(0.978038 -0.0103434 0)
(0.975273 -0.00400269 0)
(0.97185 0.00656502 0)
(0.978101 0.00769475 0)
(0.981491 0.0130311 0)
(0.984483 0.0160501 0)
(0.987166 0.0156407 0)
(1.00072 -0.00032325 0)
(1.00116 0.00128655 0)
(1.00119 -0.00581054 0)
(0.991541 -0.00567333 0)
(0.992926 0.00854074 0)
(1.00012 0.00609415 0)
(1.00732 0.0102911 0)
(1.01327 -0.00320292 0)
(1.01108 -0.0117903 0)
(0.999021 -0.0172157 0)
(0.996707 -0.0137183 0)
(0.989245 -0.0240021 0)
(0.977395 -0.0106955 0)
(0.978482 -0.00944645 0)
(0.976266 -0.0041971 0)
(0.972612 0.00632071 0)
(0.978499 0.00773367 0)
(0.9821 0.0121749 0)
(0.984682 0.0157392 0)
(0.987269 0.0153627 0)
(1.00073 -0.000332405 0)
(1.00104 0.00118357 0)
(1.00112 -0.00547951 0)
(0.991873 -0.00555381 0)
(0.993145 0.00827592 0)
(1.0001 0.00585132 0)
(1.00701 0.00963019 0)
(1.01261 -0.00293059 0)
(1.01056 -0.0116192 0)
(0.998969 -0.0163898 0)
(0.996406 -0.0136495 0)
(0.989458 -0.0226425 0)
(0.978141 -0.0107897 0)
(0.978941 -0.0086419 0)
(0.97727 -0.00429364 0)
(0.973494 0.00601858 0)
(0.978957 0.00778808 0)
(0.982802 0.011373 0)
(0.985027 0.0153081 0)
(0.987414 0.0151574 0)
(1.00075 -0.000338745 0)
(1.00088 0.00107476 0)
(1.00107 -0.00514378 0)
(0.992215 -0.0054295 0)
(0.99336 0.00799649 0)
(1.00006 0.005629 0)
(1.00671 0.00895512 0)
(1.01196 -0.0026523 0)
(1.01007 -0.0114308 0)
(0.998927 -0.0155889 0)
(0.996141 -0.0135124 0)
(0.989661 -0.0213629 0)
(0.978909 -0.0107999 0)
(0.979404 -0.00792536 0)
(0.978263 -0.0043139 0)
(0.974444 0.00565636 0)
(0.979435 0.00784038 0)
(0.983529 0.0106453 0)
(0.985473 0.0147524 0)
(0.987566 0.0149965 0)
(1.00078 -0.000340749 0)
(1.0007 0.000957302 0)
(1.00104 -0.00480319 0)
(0.992569 -0.00529806 0)
(0.993569 0.00770345 0)
(1.00003 0.00542448 0)
(1.00643 0.00827185 0)
(1.01132 -0.0023751 0)
(1.00961 -0.0112197 0)
(0.998897 -0.0148227 0)
(0.995916 -0.0132954 0)
(0.989859 -0.0201659 0)
(0.979698 -0.0107232 0)
(0.979864 -0.0072862 0)
(0.979232 -0.00425741 0)
(0.975433 0.00523474 0)
(0.979914 0.00789578 0)
(0.984233 0.0100078 0)
(0.985993 0.0140668 0)
(0.987716 0.0148288 0)
(1.00082 -0.000337228 0)
(1.0005 0.000831554 0)
(1.00101 -0.00446016 0)
(0.99293 -0.00515866 0)
(0.993774 0.00739731 0)
(1.00001 0.00523813 0)
(1.00615 0.00758185 0)
(1.01068 -0.00211218 0)
(1.00918 -0.0109809 0)
(0.998879 -0.0140901 0)
(0.995729 -0.0130084 0)
(0.990059 -0.0190344 0)
(0.980507 -0.010579 0)
(0.980325 -0.00669 0)
(0.980165 -0.00414536 0)
(0.976445 0.00478554 0)
(0.980391 0.00792823 0)
(0.984882 0.00946472 0)
(0.98657 0.0132854 0)
(0.987881 0.0146201 0)
(1.00085 -0.000330073 0)
(1.00032 0.000702898 0)
(1.00097 -0.00412147 0)
(0.993296 -0.00500913 0)
(0.993982 0.00707519 0)
(0.999988 0.00506912 0)
(1.00588 0.00689361 0)
(1.01005 -0.00186823 0)
(1.00877 -0.0107038 0)
(0.998871 -0.0134071 0)
(0.995575 -0.0126455 0)
(0.990264 -0.01796 0)
(0.981334 -0.0103865 0)
(0.980793 -0.00614292 0)
(0.981058 -0.00398614 0)
(0.977478 0.00432608 0)
(0.980872 0.00791244 0)
(0.985465 0.0090261 0)
(0.98719 0.012449 0)
(0.988079 0.0143178 0)
(1.00087 -0.000317849 0)
(1.00014 0.000568752 0)
(1.00091 -0.00379189 0)
(0.993661 -0.0048432 0)
(0.994199 0.00673384 0)
(0.99997 0.00491441 0)
(1.00561 0.00621617 0)
(1.0094 -0.00164147 0)
(1.00837 -0.0103906 0)
(0.998871 -0.0127759 0)
(0.995448 -0.0122094 0)
(0.990477 -0.0169374 0)
(0.982177 -0.0101465 0)
(0.981283 -0.00564223 0)
(0.981913 -0.00376833 0)
(0.97853 0.0038538 0)
(0.98137 0.00783321 0)
(0.985978 0.00869152 0)
(0.987834 0.0116007 0)
(0.988341 0.0138782 0)
(1.00089 -0.000300125 0)
(0.999998 0.000431832 0)
(1.00084 -0.00347449 0)
(0.994022 -0.00466111 0)
(0.994431 0.00637495 0)
(0.999949 0.00476782 0)
(1.00535 0.00555415 0)
(1.00876 -0.00144107 0)
(1.00796 -0.0100394 0)
(0.998877 -0.0121883 0)
(0.99534 -0.0117212 0)
(0.990698 -0.0159441 0)
(0.983033 -0.00987365 0)
(0.981805 -0.00516772 0)
(0.982728 -0.00350721 0)
(0.979602 0.00338844 0)
(0.981904 0.00768147 0)
(0.98643 0.00843674 0)
(0.988481 0.0107954 0)
(0.988683 0.0132926 0)
(1.0009 -0.000279505 0)
(0.999878 0.000298276 0)
(1.00075 -0.00316848 0)
(0.994375 -0.0044662 0)
(0.994682 0.00600146 0)
(0.999917 0.00462634 0)
(1.00509 0.00492091 0)
(1.00812 -0.0012728 0)
(1.00753 -0.00964555 0)
(0.998887 -0.0116391 0)
(0.995251 -0.011194 0)
(0.990924 -0.0149713 0)
(0.983898 -0.00957429 0)
(0.982367 -0.00472956 0)
(0.983507 -0.00320674 0)
(0.980689 0.00294017 0)
(0.982488 0.00745855 0)
(0.986836 0.00823372 0)
(0.98911 0.0100643 0)
(0.989117 0.0125819 0)
(1.0009 -0.000255501 0)
(0.999785 0.000166091 0)
(1.00065 -0.00287341 0)
(0.99472 -0.0042574 0)
(0.994951 0.00561285 0)
(0.999873 0.00449425 0)
(1.00483 0.00431797 0)
(1.00748 -0.00113715 0)
(1.0071 -0.00921801 0)
(0.998902 -0.0111227 0)
(0.995179 -0.0106494 0)
(0.991154 -0.0140164 0)
(0.984767 -0.00924682 0)
(0.982971 -0.00433289 0)
(0.984251 -0.00286105 0)
(0.981784 0.00252331 0)
(0.983132 0.00715796 0)
(0.987213 0.00806182 0)
(0.989702 0.0094403 0)
(0.989637 0.0117826 0)
(1.00089 -0.000228363 0)
(0.999713 3.85254e-05 0)
(1.00054 -0.00259318 0)
(0.995054 -0.00403744 0)
(0.995238 0.00521741 0)
(0.999816 0.00436365 0)
(1.00457 0.00375214 0)
(1.00685 -0.00103326 0)
(1.00665 -0.00876008 0)
(0.998921 -0.0106414 0)
(0.995127 -0.010092 0)
(0.991384 -0.0130732 0)
(0.985635 -0.00889919 0)
(0.98362 -0.00397162 0)
(0.984966 -0.00249517 0)
(0.982868 0.00215934 0)
(0.98384 0.00679142 0)
(0.987583 0.0078883 0)
(0.990242 0.00893843 0)
(0.990218 0.0109487 0)
(1.00088 -0.000199985 0)
(0.999659 -8.01878e-05 0)
(1.00043 -0.00232912 0)
(0.995377 -0.00380886 0)
(0.995538 0.004817 0)
(0.999748 0.00422929 0)
(1.00431 0.0032309 0)
(1.00625 -0.000959588 0)
(1.00619 -0.00827104 0)
(0.998944 -0.0101759 0)
(0.995099 -0.00953202 0)
(0.991611 -0.0121374 0)
(0.986495 -0.00853517 0)
(0.984309 -0.00365065 0)
(0.985652 -0.00212383 0)
(0.983934 0.00185687 0)
(0.984606 0.0063834 0)
(0.987967 0.00767528 0)
(0.990724 0.00853433 0)
(0.990824 0.0101606 0)
(1.00087 -0.000169629 0)
(0.999617 -0.000192789 0)
(1.00033 -0.00208031 0)
(0.995687 -0.00357028 0)
(0.995847 0.00440615 0)
(0.99967 0.0040971 0)
(1.00405 0.00275258 0)
(1.00567 -0.000927078 0)
(1.00573 -0.00775468 0)
(0.99897 -0.00971478 0)
(0.995099 -0.00898491 0)
(0.991834 -0.0112051 0)
(0.987341 -0.00814532 0)
(0.985036 -0.00337835 0)
(0.986316 -0.00173332 0)
(0.984965 0.00161795 0)
(0.985418 0.00594826 0)
(0.988377 0.00741976 0)
(0.99116 0.00819127 0)
(0.99142 0.00947028 0)
(1.00085 -0.0001383 0)
(0.999585 -0.00029978 0)
(1.00024 -0.00184347 0)
(0.995983 -0.00332586 0)
(0.996161 0.0039949 0)
(0.999586 0.00395826 0)
(1.0038 0.00233303 0)
(1.00512 -0.000934056 0)
(1.00528 -0.00722427 0)
(0.998998 -0.00925389 0)
(0.995131 -0.00845505 0)
(0.992054 -0.0102953 0)
(0.988165 -0.00772778 0)
(0.985797 -0.00314502 0)
(0.986962 -0.00136192 0)
(0.985951 0.00145461 0)
(0.986263 0.00550459 0)
(0.988824 0.00712988 0)
(0.991564 0.00786736 0)
(0.991978 0.00889193 0)
(1.00083 -0.000106262 0)
(0.999561 -0.000401532 0)
(1.00015 -0.00161852 0)
(0.996264 -0.00307571 0)
(0.99648 0.00358258 0)
(0.999499 0.00381046 0)
(1.00354 0.00196396 0)
(1.0046 -0.000965381 0)
(1.00483 -0.00670718 0)
(0.999028 -0.00878 0)
(0.995195 -0.00795026 0)
(0.992274 -0.00941095 0)
(0.988963 -0.00727932 0)
(0.986587 -0.00295286 0)
(0.987599 -0.00102408 0)
(0.986886 0.00136097 0)
(0.987125 0.00506608 0)
(0.989307 0.00681631 0)
(0.991952 0.00753179 0)
(0.992493 0.00839924 0)
(1.00081 -7.41773e-05 0)
(0.999544 -0.000495842 0)
(1.00008 -0.00141171 0)
(0.99653 -0.00282051 0)
(0.996799 0.00317301 0)
(0.999412 0.00365043 0)
(1.00328 0.00164876 0)
(1.00412 -0.00101591 0)
(1.00439 -0.00620662 0)
(0.999058 -0.00830085 0)
(0.995295 -0.00746071 0)
(0.9925 -0.00855072 0)
(0.989727 -0.00680243 0)
(0.9874 -0.00278952 0)
(0.988235 -0.000704382 0)
(0.987769 0.00132234 0)
(0.987994 0.00464713 0)
(0.989824 0.00648552 0)
(0.992335 0.00719255 0)
(0.992971 0.00794961 0)
(1.00078 -4.39526e-05 0)
(0.999533 -0.000578121 0)
(1.00001 -0.00122572 0)
(0.996778 -0.00256079 0)
(0.997117 0.00277543 0)
(0.999331 0.00346828 0)
(1.00302 0.00139936 0)
(1.00367 -0.00107191 0)
(1.00398 -0.0057229 0)
(0.999088 -0.00781036 0)
(0.99543 -0.00698473 0)
(0.992732 -0.00772326 0)
(0.990455 -0.00630306 0)
(0.988233 -0.00264175 0)
(0.988878 -0.000426967 0)
(0.988596 0.00133514 0)
(0.988857 0.00426656 0)
(0.990375 0.0061253 0)
(0.992718 0.00685919 0)
(0.993421 0.00752143 0)
(1.00076 -1.5314e-05 0)
(0.999528 -0.000648582 0)
(0.999955 -0.00106447 0)
(0.997009 -0.00228499 0)
(0.997432 0.00239385 0)
(0.99926 0.00326468 0)
(1.00276 0.00119677 0)
(1.00325 -0.00112213 0)
(1.00359 -0.00526658 0)
(0.999119 -0.00732013 0)
(0.995597 -0.00652192 0)
(0.992977 -0.00693355 0)
(0.991142 -0.0057805 0)
(0.989074 -0.00250289 0)
(0.989537 -0.000212783 0)
(0.989377 0.00138791 0)
(0.989699 0.00393194 0)
(0.990955 0.00574439 0)
(0.993109 0.00652829 0)
(0.99385 0.00711777 0)
(1.00074 7.82617e-06 0)
(0.999528 -0.000697347 0)
(0.999913 -0.000933644 0)
(0.997221 -0.00200192 0)
(0.997738 0.00203564 0)
(0.9992 0.00303435 0)
(1.0025 0.00103532 0)
(1.00286 -0.0011554 0)
(1.00322 -0.00483433 0)
(0.999152 -0.00683941 0)
(0.995798 -0.00607023 0)
(0.993236 -0.00619055 0)
(0.991788 -0.00523475 0)
(0.989914 -0.00236543 0)
(0.990217 -5.60792e-05 0)
(0.990121 0.00145133 0)
(0.99051 0.00363826 0)
(0.991559 0.00536007 0)
(0.993518 0.00618619 0)
(0.994265 0.00673011 0)
(1.00071 2.7838e-05 0)
(0.999531 -0.000725776 0)
(0.999884 -0.000835775 0)
(0.997417 -0.00172081 0)
(0.998032 0.00171188 0)
(0.999155 0.0027772 0)
(1.00225 0.000902975 0)
(1.0025 -0.00116497 0)
(1.00287 -0.00442088 0)
(0.999187 -0.00635255 0)
(0.99603 -0.00564722 0)
(0.993515 -0.00549636 0)
(0.992391 -0.00467032 0)
(0.990738 -0.00221712 0)
(0.990917 4.60878e-05 0)
(0.990837 0.00149933 0)
(0.991288 0.00339201 0)
(0.99218 0.00498604 0)
(0.993944 0.00583275 0)
(0.994677 0.00634926 0)
(1.00068 4.31558e-05 0)
(0.999536 -0.000731052 0)
(0.999867 -0.000767257 0)
(0.997596 -0.00144537 0)
(0.998309 0.0014321 0)
(0.999124 0.00250507 0)
(1.00201 0.000801746 0)
(1.00217 -0.0011489 0)
(1.00255 -0.00401589 0)
(0.999224 -0.00585428 0)
(0.99629 -0.00524634 0)
(0.993821 -0.00485947 0)
(0.992954 -0.0041061 0)
(0.991533 -0.00204341 0)
(0.991631 0.000105397 0)
(0.991539 0.00152246 0)
(0.992034 0.00318235 0)
(0.992806 0.00463299 0)
(0.99439 0.00547953 0)
(0.995089 0.00597521 0)
(1.00065 5.31605e-05 0)
(0.999542 -0.000712953 0)
(0.999862 -0.000721259 0)
(0.997762 -0.00119167 0)
(0.998565 0.00121301 0)
(0.999107 0.00223188 0)
(1.00179 0.0007139 0)
(1.00186 -0.00111011 0)
(1.00226 -0.00361972 0)
(0.999258 -0.00534529 0)
(0.996571 -0.00484688 0)
(0.994156 -0.00428797 0)
(0.993485 -0.00355977 0)
(0.992291 -0.00184702 0)
(0.99235 0.000140458 0)
(0.992231 0.00151448 0)
(0.992752 0.00298744 0)
(0.993433 0.00429878 0)
(0.994851 0.00512611 0)
(0.995504 0.00560566 0)
(1.00063 5.93105e-05 0)
(0.999546 -0.000681217 0)
(0.999867 -0.000687461 0)
(0.997919 -0.000970562 0)
(0.998798 0.00105446 0)
(0.999099 0.00197037 0)
(1.00158 0.000620008 0)
(1.00158 -0.00106034 0)
(1.00199 -0.00323713 0)
(0.999292 -0.00483075 0)
(0.996866 -0.00445156 0)
(0.99452 -0.00378529 0)
(0.993991 -0.00305019 0)
(0.993008 -0.00162835 0)
(0.993064 0.000167102 0)
(0.992915 0.00149037 0)
(0.993444 0.00280774 0)
(0.994055 0.00397882 0)
(0.995325 0.00477432 0)
(0.995921 0.00525323 0)
(1.0006 6.1385e-05 0)
(0.999548 -0.000639107 0)
(0.999879 -0.000655808 0)
(0.99807 -0.000791011 0)
(0.99901 0.000938089 0)
(0.999096 0.00173853 0)
(1.00139 0.000535482 0)
(1.00134 -0.00100574 0)
(1.00176 -0.00286352 0)
(0.999324 -0.00431189 0)
(0.997166 -0.00405446 0)
(0.994909 -0.00334921 0)
(0.994482 -0.00259085 0)
(0.993684 -0.001394 0)
(0.993766 0.000188615 0)
(0.993591 0.00145041 0)
(0.994108 0.00264175 0)
(0.994666 0.00368092 0)
(0.995814 0.00442397 0)
(0.996343 0.00491197 0)
(1.00057 6.27052e-05 0)
(0.999548 -0.000596581 0)
(0.999896 -0.000613074 0)
(0.998215 -0.000655851 0)
(0.999204 0.000851885 0)
(0.999095 0.00155054 0)
(1.00121 0.000469968 0)
(1.00112 -0.000956303 0)
(1.00156 -0.00251633 0)
(0.999358 -0.00380466 0)
(0.997461 -0.00364793 0)
(0.995315 -0.00296424 0)
(0.994965 -0.00217884 0)
(0.994319 -0.0011581 0)
(0.994447 0.000220755 0)
(0.99426 0.0013931 0)
(0.994752 0.00248213 0)
(0.995258 0.00341303 0)
(0.996308 0.00407922 0)
(0.996777 0.00455909 0)
(1.00054 6.34134e-05 0)
(0.999548 -0.000556267 0)
(0.999915 -0.000558474 0)
(0.998356 -0.000552024 0)
(0.999384 0.000774032 0)
(0.999096 0.0014096 0)
(1.00104 0.000430027 0)
(1.00094 -0.000893737 0)
(1.0014 -0.00220885 0)
(0.999397 -0.00331334 0)
(0.997747 -0.00324684 0)
(0.995732 -0.00260829 0)
(0.995444 -0.00182951 0)
(0.99492 -0.000926073 0)
(0.9951 0.000271047 0)
(0.994914 0.00133702 0)
(0.99538 0.00232832 0)
(0.99583 0.00317697 0)
(0.996793 0.00377163 0)
(0.997227 0.00420152 0)
(1.00051 6.60644e-05 0)
(0.999547 -0.00051939 0)
(0.999934 -0.000492285 0)
(0.99849 -0.000474684 0)
(0.999555 0.00069015 0)
(0.999102 0.00130114 0)
(1.00088 0.000411232 0)
(1.00077 -0.000808514 0)
(1.00127 -0.00192675 0)
(0.999444 -0.002845 0)
(0.998021 -0.0028358 0)
(0.996147 -0.00227501 0)
(0.995918 -0.00152823 0)
(0.995496 -0.000719041 0)
(0.995724 0.000312863 0)
(0.99555 0.00128307 0)
(0.995994 0.00217312 0)
(0.996393 0.00294683 0)
(0.99726 0.00350138 0)
(0.997675 0.00386011 0)
(1.00048 7.02163e-05 0)
(0.999549 -0.000493756 0)
(0.999953 -0.000420402 0)
(0.998614 -0.000406423 0)
(0.99972 0.000604047 0)
(0.999116 0.00121763 0)
(1.00074 0.000433528 0)
(1.00063 -0.000706279 0)
(1.00117 -0.00167657 0)
(0.999504 -0.00242796 0)
(0.998281 -0.00241932 0)
(0.996553 -0.00194357 0)
(0.996382 -0.00124643 0)
(0.99604 -0.000530291 0)
(0.99632 0.000356102 0)
(0.996165 0.0012382 0)
(0.996585 0.00203289 0)
(0.996948 0.00271599 0)
(0.997717 0.00324079 0)
(0.998106 0.00354719 0)
(1.00044 7.8042e-05 0)
(0.999553 -0.000459655 0)
(0.999974 -0.000348196 0)
(0.998729 -0.000356441 0)
(0.999881 0.000488388 0)
(0.999143 0.00112717 0)
(1.0006 0.000495109 0)
(1.00049 -0.000577347 0)
(1.0011 -0.00145289 0)
(0.999583 -0.00206736 0)
(0.998537 -0.00203665 0)
(0.996946 -0.00162201 0)
(0.996832 -0.00100407 0)
(0.996558 -0.000365959 0)
(0.996889 0.000392027 0)
(0.996759 0.00117903 0)
(0.997149 0.00191106 0)
(0.997484 0.00250597 0)
(0.998166 0.00298964 0)
(0.99851 0.00328627 0)
(1.00042 8.44938e-05 0)
(0.999559 -0.000473335 0)
(0.999991 -0.000252261 0)
(0.998827 -0.000264091 0)
(1.00004 0.000391161 0)
(0.999194 0.00104356 0)
(1.00048 0.000581775 0)
(1.00037 -0.000408088 0)
(1.00105 -0.00122578 0)
(0.999678 -0.00173566 0)
(0.998788 -0.00167782 0)
(0.997321 -0.00130028 0)
(0.997262 -0.000764288 0)
(0.997049 -0.000213035 0)
(0.997425 0.000425875 0)
(0.997338 0.00110573 0)
(0.9977 0.00177723 0)
(0.998002 0.00231289 0)
(0.998619 0.00273058 0)
(0.998898 0.00303923 0)
(1.00038 0.000112286 0)
(0.999575 -0.000454525 0)
(1.00003 -0.000243405 0)
(0.998914 -0.000171017 0)
(1.00018 0.0003122 0)
(0.999267 0.000954094 0)
(1.00039 0.000689574 0)
(1.00025 -0.000216308 0)
(1.00101 -0.00100969 0)
(0.999789 -0.00146803 0)
(0.999046 -0.00137823 0)
(0.997685 -0.00101202 0)
(0.997667 -0.00054227 0)
(0.997506 -7.47732e-05 0)
(0.997922 0.000462054 0)
(0.997884 0.00104433 0)
(0.998232 0.00163579 0)
(0.998494 0.0021423 0)
(0.999059 0.00249074 0)
(0.999278 0.00279294 0)
(1.00036 9.5509e-05 0)
(0.999576 -0.000383142 0)
(1.00006 -9.74357e-05 0)
(0.999001 -0.000117811 0)
(1.00032 0.000149683 0)
(0.99937 0.000775337 0)
(1.00033 0.000767077 0)
(1.00014 2.79869e-06 0)
(1.00096 -0.000772229 0)
(0.999905 -0.00121349 0)
(0.999311 -0.00111455 0)
(0.998044 -0.000751268 0)
(0.998055 -0.000330821 0)
(0.997937 5.87453e-05 0)
(0.998392 0.000493084 0)
(0.998403 0.000986185 0)
(0.998754 0.00148623 0)
(0.998977 0.00195869 0)
(0.999487 0.00226338 0)
(0.99966 0.00253676 0)
(1.00033 0.000136781 0)
(0.999612 -0.000445939 0)
(1.00009 -0.000146977 0)
(0.999028 1.18673e-05 0)
(1.00042 0.00017737 0)
(0.999505 0.000749864 0)
(1.00033 0.000884938 0)
(1.00004 0.000229665 0)
(1.00092 -0.000533888 0)
(1.00003 -0.00097421 0)
(0.999585 -0.000903484 0)
(0.998408 -0.000536638 0)
(0.998428 -0.000142282 0)
(0.998335 0.000196098 0)
(0.998822 0.000535895 0)
(0.998882 0.000942726 0)
(0.999246 0.00135513 0)
(0.999445 0.00177793 0)
(0.999899 0.00205682 0)
(1.00004 0.00229452 0)
(1.00031 0.000132642 0)
(0.999607 -0.000399767 0)
(1.00018 -0.000181314 0)
(0.999147 0.000170706 0)
(1.00055 0.000247995 0)
(0.999657 0.000664975 0)
(1.00034 0.000906886 0)
(0.999955 0.000415737 0)
(1.00087 -0.000297464 0)
(1.00013 -0.000746945 0)
(0.999854 -0.000711866 0)
(0.998775 -0.00036381 0)
(0.9988 2.04444e-05 0)
(0.998716 0.000321138 0)
(0.999223 0.00058219 0)
(0.99933 0.000903656 0)
(0.999715 0.00122822 0)
(0.999905 0.00158929 0)
(1.00031 0.00184125 0)
(1.00041 0.00205404 0)
(1.00028 0.000137016 0)
(0.999641 -0.000325125 0)
(1.00024 -7.21012e-05 0)
(0.999202 0.000255175 0)
(1.00062 0.00025641 0)
(0.999808 0.000503384 0)
(1.00043 0.000833793 0)
(0.999921 0.000581091 0)
(1.00083 -5.73386e-05 0)
(1.00024 -0.000522937 0)
(1.00012 -0.0005447 0)
(0.999143 -0.000232857 0)
(0.999167 0.000140347 0)
(0.999071 0.000426084 0)
(0.999585 0.000627412 0)
(0.99973 0.000883647 0)
(1.00014 0.0011272 0)
(1.00034 0.00142355 0)
(1.0007 0.00163818 0)
(1.00077 0.00184408 0)
(1.00027 0.00015925 0)
(0.999639 -0.000272136 0)
(1.00033 -5.28294e-05 0)
(0.999303 0.000374783 0)
(1.00069 0.000380809 0)
(0.999946 0.000457782 0)
(1.00053 0.000751306 0)
(0.999916 0.000698036 0)
(1.00079 0.000162584 0)
(1.00032 -0.000288264 0)
(1.00036 -0.000381418 0)
(0.999511 -0.000123251 0)
(0.999547 0.000214678 0)
(0.999429 0.000503954 0)
(0.999931 0.000662465 0)
(1.00011 0.000860089 0)
(1.00053 0.00103213 0)
(1.00074 0.0012651 0)
(1.00109 0.00142132 0)
(1.00112 0.00162357 0)
(1.00025 0.0001604 0)
(0.999669 -0.000189267 0)
(1.00041 -1.55772e-05 0)
(0.99939 0.000411748 0)
(1.00072 0.000468113 0)
(1.00006 0.000452924 0)
(1.00068 0.000666271 0)
(0.999975 0.000765239 0)
(1.00078 0.000375519 0)
(1.00039 -5.31587e-05 0)
(1.00058 -0.000210353 0)
(0.999851 -3.12584e-05 0)
(0.999913 0.000258012 0)
(0.99977 0.000540855 0)
(1.00024 0.000687887 0)
(1.00043 0.000843307 0)
(1.00087 0.000954175 0)
(1.00109 0.00114261 0)
(1.00144 0.00123068 0)
(1.00146 0.0014144 0)
(1.00023 0.000141987 0)
(0.999653 -7.88529e-06 0)