/*--------------------------------*- C++ -*----------------------------------*\
| =========                 |                                                 |
| \\      /  F ield         | OpenFOAM: The Open Source CFD Toolbox           |
|  \\    /   O peration     | Version:  v1812                                 |
|   \\  /    A nd           | Web:      www.OpenFOAM.com                      |
|    \\/     M anipulation  |                                                 |
\*---------------------------------------------------------------------------*/
FoamFile
{
    version     2.0;
    format      ascii;
    class       volScalarField;
    location    "0.3";
    object      p;
}
// * * * * * * * * * * * * * * * * * * * * * * * * * * * * * * * * * * * * * //

dimensions      [0 2 -2 0 0 0 0];


internalField   nonuniform List<scalar> 
9600
(
-5.48979e-11
-0.000487487
0.000387879
6.47815e-05
-9.19241e-05
0.000931349
-0.00135366
-0.00137918
-0.000495889
0.000583381
4.43412e-05
0.000254865
-0.000668615
0.000808601
0.00042909
0.00169474
0.00265484
0.00489072
0.00618301
0.011098
-2.36254e-07
-0.000487755
0.000388214
6.05833e-05
-8.29973e-05
0.000905677
-0.00134121
-0.00136793
-0.000498307
0.000590895
1.83262e-05
0.000247791
-0.000636562
0.000806603
0.000445831
0.00168956
0.00267642
0.00485016
0.00621828
0.0104939
-7.85322e-07
-0.0004883
0.000387655
5.55198e-05
-7.46153e-05
0.000874495
-0.00132065
-0.00135085
-0.000501942
0.000594898
-3.51336e-06
0.000241353
-0.000605568
0.000804878
0.00046293
0.00168235
0.00269911
0.0048035
0.00620594
0.0099181
-1.74416e-06
-0.000489368
0.000386025
4.92781e-05
-6.98148e-05
0.000840825
-0.0012971
-0.00133016
-0.00050737
0.000593441
-2.15153e-05
0.000237514
-0.000578157
0.000802886
0.000478644
0.00167086
0.00272351
0.00473949
0.00617582
0.00938027
-3.21065e-06
-0.000491075
0.000383489
4.13059e-05
-6.65386e-05
0.000804949
-0.00127075
-0.00130666
-0.000515459
0.00058738
-3.59774e-05
0.000232921
-0.000550115
0.000798448
0.000493606
0.00165495
0.00274838
0.00466542
0.006126
0.00888254
-5.20577e-06
-0.000493383
0.000380272
3.18056e-05
-6.37314e-05
0.00076737
-0.00124199
-0.001282
-0.000525925
0.000569752
-4.88393e-05
0.000226884
-0.00052172
0.000791072
0.000509924
0.00163488
0.00277366
0.00458268
0.00605499
0.00841474
-7.67149e-06
-0.000496169
0.000376625
2.11209e-05
-6.11924e-05
0.000728741
-0.00121166
-0.00125733
-0.000537717
0.000556753
-6.1367e-05
0.000220277
-0.000491935
0.000781138
0.000528577
0.00161111
0.0027987
0.00449262
0.00596043
0.00797255
-1.0506e-05
-0.000499302
0.00037272
9.54201e-06
-5.87648e-05
0.000689214
-0.00118037
-0.00123296
-0.000549864
0.000546064
-7.39064e-05
0.000213234
-0.000460284
0.000768909
0.000549717
0.00158401
0.00282171
0.00439666
0.0058405
0.0075533
-1.36106e-05
-0.000502692
0.000368627
-2.71058e-06
-5.63345e-05
0.000648713
-0.00114841
-0.00120882
-0.00056187
0.000535175
-8.6355e-05
0.000205356
-0.000426718
0.000754437
0.000572901
0.00155384
0.00284088
0.00429669
0.00569452
0.00715412
-1.6923e-05
-0.000506293
0.000364346
-1.55184e-05
-5.38611e-05
0.000607214
-0.00111589
-0.00118479
-0.000573572
0.000524034
-9.85137e-05
0.000196221
-0.000391445
0.000737762
0.00060206
0.00152108
0.00285379
0.00419423
0.00552303
0.00677167
-2.04215e-05
-0.000510095
0.000359849
-2.88468e-05
-5.13179e-05
0.000564769
-0.00108293
-0.00116078
-0.00058498
0.000512616
-0.000110236
0.000185502
-0.00035474
0.000718902
0.000626467
0.00148676
0.00285813
0.00409064
0.00532778
0.00640218
-2.41084e-05
-0.000514103
0.000355098
-4.26978e-05
-4.86838e-05
0.00052147
-0.00104967
-0.00113672
-0.000596195
0.000500896
-0.000121491
0.000173039
-0.000316906
0.000698108
0.000650294
0.00145185
0.00285212
0.00398579
0.00511165
0.00604176
-2.79941e-05
-0.000518325
0.000350053
-5.70783e-05
-4.59602e-05
0.000477437
-0.00101627
-0.00111251
-0.000607365
0.000488879
-0.000132301
0.000158776
-0.00027836
0.000675853
0.000672789
0.00141681
0.00283442
0.00387903
0.00487834
0.00568705
-3.20873e-05
-0.000522775
0.000344674
-7.19863e-05
-4.31728e-05
0.000432812
-0.00098291
-0.00108809
-0.000618656
0.000476639
-0.000142746
0.000142754
-0.000239511
0.000652543
0.000693186
0.00138189
0.00280456
0.00376879
0.00463158
0.00533566
-3.63936e-05
-0.000527474
0.000338918
-8.74045e-05
-4.03707e-05
0.000387754
-0.000949799
-0.00106335
-0.000630249
0.000464304
-0.000152968
0.000125076
-0.000200723
0.000628487
0.000710711
0.00134692
0.00276294
0.00365355
0.00437439
0.00498619
-4.09156e-05
-0.000532445
0.000332742
-0.0001033
-3.76259e-05
0.000342441
-0.000917189
-0.00103816
-0.000642339
0.000452055
-0.000163115
0.000105845
-0.000162397
0.000603916
0.000724847
0.00131126
0.00271031
0.00353236
0.00410892
0.00463769
-4.56537e-05
-0.000537716
0.0003261
-0.000119626
-3.50371e-05
0.000297076
-0.000885364
-0.00101235
-0.000655174
0.000440095
-0.000173277
8.51278e-05
-0.000124831
0.000578845
0.000735474
0.00127384
0.00264684
0.00340489
0.00383704
0.00428924
-5.06052e-05
-0.000543319
0.000318939
-0.00013632
-3.27326e-05
0.000251895
-0.000854633
-0.000985714
-0.000669013
0.000428539
-0.000183452
6.28906e-05
-8.81226e-05
0.000552967
0.000742761
0.00123371
0.00257199
0.0032721
0.00356095
0.00393956
-5.57655e-05
-0.000549286
0.000311196
-0.000153303
-3.08613e-05
0.000207167
-0.00082537
-0.000958001
-0.000684065
0.000417431
-0.000193544
3.89236e-05
-5.21211e-05
0.000525711
0.000746778
0.00119055
0.00248486
0.00313549
0.00328357
0.00358722
-6.11285e-05
-0.000555652
0.000302793
-0.000170486
-2.96005e-05
0.000163208
-0.000798
-0.000928982
-0.000700478
0.000406765
-0.000203325
1.28033e-05
-1.63909e-05
0.000496337
0.000747064
0.00114475
0.00238404
0.00299558
0.00300862
0.00323138
-6.66862e-05
-0.000562452
0.000293635
-0.000187746
-2.91724e-05
0.000120386
-0.000772969
-0.00089848
-0.000718304
0.000396384
-0.000212398
-1.61618e-05
1.96876e-05
0.0004642
0.00074249
0.00109809
0.00226803
0.00285078
0.00274048
0.00287268
-7.24278e-05
-0.000569714
0.000283604
-0.000204938
-2.98243e-05
7.90878e-05
-0.000750684
-0.000866366
-0.000737541
0.000386005
-0.000220088
-4.89603e-05
5.66509e-05
0.00042928
0.000731132
0.00105287
0.0021367
0.0026982
0.00248358
0.00251358
-7.83439e-05
-0.000577461
0.000272549
-0.000221888
-3.18408e-05
3.97305e-05
-0.000731531
-0.000832582
-0.000758059
0.00037512
-0.000225393
-8.67074e-05
9.44989e-05
0.000392226
0.000710294
0.00101102
0.00199157
0.00253402
0.00224113
0.00215878
-8.44276e-05
-0.000585697
0.000260289
-0.000238389
-3.55408e-05
2.70113e-06
-0.000715847
-0.000797208
-0.00077952
0.000362848
-0.000227033
-0.000130272
0.000132316
0.00035444
0.000676976
0.00097299
0.00183659
0.00235396
0.00201381
0.00181583
-9.06728e-05
-0.000594407
0.000246598
-0.000254198
-4.12236e-05
-3.16932e-05
-0.000703873
-0.000760463
-0.000801369
0.00034804
-0.000223697
-0.000180052
0.000168406
0.000318237
0.000628369
0.000937289
0.00167821
0.00215478
0.00179818
0.00149303
-9.7082e-05
-0.000603549
0.000231198
-0.000269064
-4.91596e-05
-6.31706e-05
-0.000695822
-0.000722701
-0.000822649
0.000329337
-0.000214527
-0.000236008
0.000200434
0.000286333
0.000562874
0.000900924
0.00152357
0.00193635
0.00158769
0.0011971
-0.000103668
-0.000613044
0.000213765
-0.000282751
-5.95883e-05
-9.14952e-05
-0.000691753
-0.000684497
-0.000842123
0.000305256
-0.000199227
-0.00029741
0.000225352
0.000261366
0.00048077
0.00085905
0.00137885
0.00170255
0.00137323
0.00093092
-0.000110459
-0.00062278
0.000193946
-0.000295061
-7.26897e-05
-0.000116466
-0.000691494
-0.000646759
-0.000858503
0.00027467
-0.000178005
-0.000362625
0.000239768
0.000245284
0.000383816
0.00080568
0.00124813
0.00146022
0.00114566
0.00069188
-0.000117508
-0.000632589
0.000171381
-0.000305865
-8.8526e-05
-0.00013673
-0.00069469
-0.000610674
-0.000870626
0.000237045
-0.000151731
-0.000429525
0.000240321
0.000238751
0.000275345
0.000734937
0.00113245
0.00121856
0.000899364
0.000472228
-0.000124878
-0.000642269
0.000145723
-0.000315119
-0.000107061
-0.000156029
-0.000700829
-0.000577452
-0.00087777
0.000192272
-0.000121816
-0.000495712
0.00022404
0.000240838
0.000160276
0.000642013
0.0010291
0.000988243
0.000634594
0.000259266
-0.000132679
-0.000651584
0.000116695
-0.000322914
-0.000128177
-0.000173342
-0.000718682
-0.000548115
-0.00087956
0.000140653
-9.00924e-05
-0.000558699
0.000188838
0.000249166
4.46111e-05
0.000524117
0.000932599
0.000779299
0.000357955
3.7762e-05
-0.000141049
-0.000660258
8.40576e-05
-0.000329488
-0.000151542
-0.000188946
-0.000725709
-0.000523507
-0.000876128
8.28631e-05
-5.8524e-05
-0.000616336
0.000133544
0.000260074
-6.49216e-05
0.000381525
0.00083484
0.000597836
8.11081e-05
-0.000204249
-0.000150138
-0.000668023
4.76757e-05
-0.000335281
-0.000176592
-0.000203487
-0.000732462
-0.000504155
-0.000868239
1.9577e-05
-2.90197e-05
-0.000666511
5.79574e-05
0.00026879
-0.000161857
0.000217864
0.000726499
0.000443785
-0.000183069
-0.000469678
-0.000160155
-0.000674615
7.63922e-06
-0.000340976
-0.000202704
-0.000217639
-0.000738405
-0.000490098
-0.000856618
-4.87201e-05
-3.8817e-06
-0.000707117
-3.6819e-05
0.000269702
-0.00024142
3.85739e-05
0.000599811
0.000312348
-0.000422639
-0.0007513
-0.000171335
-0.000679805
-3.57493e-05
-0.000347466
-0.000229281
-0.00023179
-0.000743486
-0.000481271
-0.000841522
-0.000121166
1.42126e-05
-0.000736544
-0.0001486
0.000256667
-0.000301188
-0.000149231
0.000449823
0.000196745
-0.000629192
-0.00103473
-0.000183913
-0.000683434
-8.1954e-05
-0.0003558
-0.000255909
-0.000246118
-0.000748052
-0.000477536
-0.000823057
-0.000196881
2.25003e-05
-0.000753576
-0.000273954
0.000223111
-0.000341867
-0.000336012
0.000274843
8.80094e-05
-0.000799822
-0.00130343
-0.000198085
-0.000685418
-0.000130256
-0.000366992
-0.000282409
-0.000260589
-0.000752461
-0.000478879
-0.000801228
-0.00027508
1.7871e-05
-0.000758152
-0.000407365
0.000163801
-0.000367908
-0.000511469
7.73964e-05
-2.37994e-05
-0.000938017
-0.00154308
-0.000214012
-0.000685802
-0.000179808
-0.00038187
-0.000308982
-0.000274836
-0.000756837
-0.000485675
-0.000776388
-0.000354395
-2.83557e-06
-0.00075263
-0.000541591
7.76395e-05
-0.000385833
-0.00066826
-0.00013673
-0.00014605
-0.0010512
-0.00174752
-0.000231789
-0.000684833
-0.000229693
-0.000400954
-0.000336252
-0.000288505
-0.000760978
-0.000498629
-0.000748884
-0.000431909
-4.16276e-05
-0.000741021
-0.000669883
-3.3657e-05
-0.000402924
-0.000802257
-0.00036139
-0.000282535
-0.00114599
-0.0019204
-0.000251471
-0.000682926
-0.00027897
-0.000424375
-0.00036522
-0.000301595
-0.000764285
-0.000518562
-0.000721232
-0.000504001
-9.88852e-05
-0.000728754
-0.000787003
-0.000166777
-0.000426287
-0.000910599
-0.000589844
-0.000437394
-0.00122524
-0.00206507
-0.000273075
-0.000680653
-0.000326785
-0.000451698
-0.000397195
-0.000314487
-0.000765505
-0.000546234
-0.0006952
-0.000567244
-0.000173423
-0.000722699
-0.000890851
-0.000315808
-0.000461984
-0.000992258
-0.000811764
-0.000615926
-0.00129463
-0.0021781
-0.000296514
-0.000678751
-0.000372566
-0.000481778
-0.000433345
-0.000328362
-0.000764068
-0.000581199
-0.00067506
-0.000619451
-0.000260924
-0.000729158
-0.000982451
-0.000473688
-0.000514105
-0.00105035
-0.0010145
-0.00081839
-0.00136853
-0.00225464
-0.000321709
-0.000677859
-0.000415937
-0.000513218
-0.000474139
-0.000345396
-0.000757528
-0.000621891
-0.000664917
-0.000661669
-0.000354989
-0.000750574
-0.00106502
-0.000635278
-0.000584165
-0.00109199
-0.00118805
-0.00103363
-0.00146434
-0.00230049
-0.000348565
-0.000678483
-0.000456933
-0.000544743
-0.000519528
-0.000368165
-0.000747035
-0.000665178
-0.000667067
-0.000695214
-0.000450407
-0.000787208
-0.00114243
-0.000797663
-0.000671385
-0.00112427
-0.00132901
-0.00124467
-0.00159018
-0.00233529
-0.000376942
-0.000681075
-0.000495908
-0.000575872
-0.000568467
-0.000399001
-0.000734132
-0.000706685
-0.00068197
-0.000725037
-0.00054367
-0.000836836
-0.00121682
-0.0009593
-0.000774782
-0.00115231
-0.00143909
-0.00143879
-0.00173742
-0.00238415
-0.000406676
-0.000685926
-0.000533554
-0.00060521
-0.00061893
-0.000439565
-0.00072261
-0.00074302
-0.000708432
-0.000756943
-0.000633728
-0.000895879
-0.00128988
-0.00111828
-0.000894534
-0.00118089
-0.00152104
-0.00160979
-0.00188827
-0.00245972
-0.000437664
-0.000693182
-0.000570768
-0.000632956
-0.00066837
-0.000490376
-0.000717185
-0.000773529
-0.000742473
-0.000793035
-0.000721305
-0.000962737
-0.00136073
-0.00127153
-0.0010306
-0.00121623
-0.00157795
-0.00175588
-0.00203068
-0.0025506
-0.00046988
-0.000702939
-0.000608088
-0.000659505
-0.000714728
-0.000550858
-0.00072232
-0.000798765
-0.000779203
-0.000833339
-0.000808088
-0.00103761
-0.00142963
-0.00141476
-0.00117896
-0.00126787
-0.00161437
-0.00187523
-0.00216256
-0.00263796
-0.000503299
-0.000715265
-0.000646076
-0.000685793
-0.000756702
-0.000618314
-0.000741555
-0.000821686
-0.000814227
-0.000877322
-0.000895284
-0.00111962
-0.00150051
-0.00154379
-0.00133043
-0.00134163
-0.00164081
-0.00196541
-0.00228546
-0.0027164
-0.000537925
-0.000729496
-0.000685087
-0.000713416
-0.000793687
-0.000688463
-0.000776026
-0.000848703
-0.000846933
-0.000919873
-0.000982759
-0.00120957
-0.00157476
-0.0016607
-0.00147644
-0.00143223
-0.00167303
-0.00202824
-0.00239619
-0.00279402
-0.000573795
-0.00074567
-0.000725077
-0.000744253
-0.000825781
-0.000756936
-0.000825404
-0.00088602
-0.000878958
-0.000955831
-0.00106729
-0.00130952
-0.00165513
-0.00176836
-0.00161125
-0.00152917
-0.00171892
-0.00207513
-0.00248737
-0.00287948
-0.000611015
-0.000763647
-0.000765849
-0.000779509
-0.000853971
-0.000820437
-0.00088762
-0.000937427
-0.000913858
-0.000984968
-0.00114215
-0.00141549
-0.00174952
-0.00187027
-0.00173227
-0.00162372
-0.00177286
-0.00212277
-0.00255716
-0.00296798
-0.000649748
-0.000783389
-0.000806827
-0.000820002
-0.000880691
-0.000876796
-0.000957496
-0.00100479
-0.000958215
-0.00100852
-0.00120199
-0.00152081
-0.00186002
-0.0019762
-0.0018416
-0.00170849
-0.00182562
-0.00217685
-0.00261719
-0.00304712
-0.000690105
-0.00080501
-0.000847134
-0.000866052
-0.000909242
-0.000925038
-0.00102882
-0.00108733
-0.00101876
-0.00103003
-0.00124324
-0.00161743
-0.00198069
-0.00209736
-0.0019479
-0.00178008
-0.00186604
-0.00222931
-0.00268148
-0.00311386
-0.000732161
-0.00082875
-0.00088589
-0.000917262
-0.000943143
-0.000965792
-0.00109575
-0.00118218
-0.00109952
-0.00105808
-0.00126625
-0.00169488
-0.00210595
-0.00223532
-0.00206493
-0.00184771
-0.00188508
-0.00226539
-0.00275207
-0.00317862
-0.000775899
-0.000855057
-0.00092254
-0.000972587
-0.000984962
-0.00100121
-0.00115424
-0.00128342
-0.00120165
-0.00110163
-0.00127545
-0.00174393
-0.00222539
-0.00238834
-0.00220092
-0.00192537
-0.00189
-0.00226422
-0.00281619
-0.00325491
-0.000821146
-0.000884499
-0.000957075
-0.00103007
-0.00103628
-0.00103542
-0.001202
-0.00138313
-0.00132316
-0.00116823
-0.0012797
-0.00176297
-0.00232251
-0.00255075
-0.00236052
-0.00202495
-0.00189934
-0.00222081
-0.00284281
-0.00334377
-0.000867649
-0.000917574
-0.000989876
-0.00108721
-0.00109744
-0.00107371
-0.00123912
-0.00147344
-0.00145924
-0.0012637
-0.00129073
-0.00175568
-0.00238518
-0.00270873
-0.00254545
-0.00215316
-0.00193056
-0.00215832
-0.00280488
-0.00341938
-0.000915052
-0.000954706
-0.00102193
-0.00114142
-0.00116723
-0.00112109
-0.0012677
-0.00154855
-0.0016009
-0.00138908
-0.00132145
-0.00172877
-0.00240847
-0.00284309
-0.00274741
-0.0023177
-0.00199416
-0.00210398
-0.00270891
-0.00343772
-0.000962937
-0.000996002
-0.0010548
-0.00119105
-0.00124334
-0.00118095
-0.00129276
-0.00160533
-0.00173703
-0.00153959
-0.0013837
-0.0016959
-0.0023919
-0.00293951
-0.00295048
-0.00251928
-0.00209813
-0.00208111
-0.00258721
-0.00337143
-0.00101098
-0.00104129
-0.00109031
-0.00123559
-0.00132159
-0.00125467
-0.00132159
-0.00164401
-0.00185757
-0.00170732
-0.00148374
-0.00167621
-0.00234109
-0.00298655
-0.00313369
-0.00274982
-0.0022495
-0.00210125
-0.00247608
-0.00323625
-0.00105897
-0.00109008
-0.00113018
-0.00127559
-0.0013973
-0.00134102
-0.00136116
-0.00166743
-0.00195488
-0.00188
-0.00162016
-0.0016858
-0.00227128
-0.00298014
-0.00327599
-0.00299324
-0.00245021
-0.0021697
-0.00240183
-0.00307107
-0.00110685
-0.0011416
-0.00117552
-0.00131257
-0.0014665
-0.00143694
-0.00141667
-0.00168261
-0.00202521
-0.0020432
-0.00178635
-0.00173505
-0.00220476
-0.00292825
-0.00335921
-0.00322279
-0.00269523
-0.00229305
-0.00237473
-0.00291745
-0.00115482
-0.00119481
-0.00122653
-0.00134911
-0.00152716
-0.00153722
-0.00149029
-0.00169945
-0.00206994
-0.00218447
-0.00197088
-0.00182894
-0.00216006
-0.00284651
-0.00337976
-0.00340748
-0.00296458
-0.00247658
-0.00240102
-0.0028013
-0.00120315
-0.0012487
-0.0012826
-0.00138814
-0.00157936
-0.00163509
-0.00158039
-0.00172714
-0.00209368
-0.00229574
-0.00215628
-0.00196386
-0.00215225
-0.00275591
-0.00334836
-0.00352632
-0.00322107
-0.00271527
-0.00249033
-0.00273528
-0.00125218
-0.00130248
-0.00134264
-0.00143203
-0.00162456
-0.00172465
-0.00168268
-0.00177227
-0.00210559
-0.00237479
-0.00232535
-0.00212884
-0.00219234
-0.00267642
-0.00327899
-0.00357873
-0.00342809
-0.00298162
-0.00264741
-0.00273062
-0.00130221
-0.00135569
-0.00140499
-0.00148197
-0.00166545
-0.0018028
-0.0017905
-0.00183716
-0.00211761
-0.00242491
-0.00246698
-0.00230572
-0.00227997
-0.00262812
-0.00319033
-0.00357563
-0.00356852
-0.0032327
-0.0028604
-0.00279714
-0.00135342
-0.00140824
-0.00146777
-0.00153773
-0.00170563
-0.00186921
-0.00189584
-0.00191915
-0.00213999
-0.00245277
-0.00257587
-0.00247495
-0.0024038
-0.00262544
-0.00310405
-0.00352988
-0.00364406
-0.00343583
-0.00309595
-0.00293096
-0.00140571
-0.00146026
-0.00152935
-0.00159801
-0.00174833
-0.00192564
-0.00199229
-0.00201264
-0.00217859
-0.00246973
-0.00265284
-0.00262322
-0.0025468
-0.00266904
-0.00304248
-0.0034611
-0.00366544
-0.00357899
-0.00331641
-0.0031119
-0.00145878
-0.0015119
-0.0015887
-0.00166093
-0.00179526
-0.00197484
-0.00207661
-0.00211028
-0.00223413
-0.00248772
-0.00270347
-0.00274311
-0.00269024
-0.0027483
-0.00301952
-0.00339179
-0.00364688
-0.00366532
-0.00349702
-0.00330696
-0.00151215
-0.00156326
-0.00164541
-0.00172432
-0.00184652
-0.00202029
-0.00214856
-0.00220465
-0.00230274
-0.0025145
-0.00273689
-0.00283327
-0.00282053
-0.00284871
-0.00303579
-0.00334179
-0.00360869
-0.00370554
-0.00362901
-0.00348642
-0.00156515
-0.00161424
-0.00169943
-0.0017862
-0.00190095
-0.00206492
-0.0022099
-0.0022906
-0.00237851
-0.00255286
-0.00276397
-0.00289833
-0.00292983
-0.00295461
-0.00308239
-0.00332124
-0.00357041
-0.00371393
-0.0037153
-0.00363282
-0.00161704
-0.00166448
-0.00175087
-0.00184502
-0.00195672
-0.00211026
-0.00226303
-0.0023659
-0.00245533
-0.0026014
-0.00279234
-0.00294537
-0.00301583
-0.00305416
-0.00314783
-0.00332983
-0.00354594
-0.00370766
-0.00376577
-0.00374124
-0.00166706
-0.0017134
-0.00179973
-0.00189987
-0.00201185
-0.00215648
-0.00231047
-0.00243045
-0.0025281
-0.00265636
-0.00282538
-0.00298242
-0.00308137
-0.00314027
-0.00322011
-0.00336055
-0.00354075
-0.00370052
-0.00379268
-0.00381567
-0.00171441
-0.00176019
-0.00184583
-0.00195026
-0.00206445
-0.00220269
-0.00235427
-0.00248548
-0.00259341
-0.00271318
-0.0028634
-0.00301572
-0.00313177
-0.00321057
-0.00328968
-0.00340434
-0.00355343
-0.00370077
-0.00380848
-0.0038648
-0.00175824
-0.00180389
-0.00188871
-0.00199586
-0.00211297
-0.0022474
-0.00239537
-0.00253274
-0.00264989
-0.00276751
-0.00290434
-0.00304843
-0.00317234
-0.00326665
-0.00335112
-0.00345245
-0.00357836
-0.00371052
-0.00382176
-0.00389786
-0.00179762
-0.00184345
-0.00192757
-0.00203626
-0.00215618
-0.00228886
-0.00243351
-0.0025737
-0.00269795
-0.00281651
-0.00294497
-0.00308094
-0.00320686
-0.00331152
-0.0034028
-0.00349881
-0.00360946
-0.00372777
-0.00383643
-0.0039225
-0.00183155
-0.00187773
-0.00196146
-0.0020709
-0.00219312
-0.0023253
-0.00246711
-0.00260823
-0.0027378
-0.00285887
-0.00298258
-0.00311157
-0.0032364
-0.00334718
-0.00344497
-0.00354017
-0.00364168
-0.00374883
-0.00385242
-0.00394261
-0.0018592
-0.00190562
-0.0019889
-0.00209849
-0.00222238
-0.00235468
-0.00249419
-0.00263478
-0.00276762
-0.00289152
-0.00301323
-0.00313714
-0.00325952
-0.00337341
-0.00347653
-0.00357327
-0.00366974
-0.00376803
-0.00386474
-0.00395421
-0.00188068
-0.00192942
-0.00201422
-0.00212491
-0.00225074
-0.00238442
-0.00252341
-0.00266344
-0.00279787
-0.00292417
-0.00304609
-0.00316758
-0.00328768
-0.003402
-0.00350785
-0.0036068
-0.00370259
-0.00379741
-0.00389009
-0.00397752
0.0142122
0.00795974
-0.000715744
-0.00710316
-0.00909511
-0.00855843
-0.00761547
-0.00702235
-0.00691465
-0.00710306
-0.00731625
-0.00741561
-0.00742933
-0.00741568
-0.00739543
-0.00740867
-0.00743873
-0.00745496
-0.00751138
-0.0075786
-0.00758386
-0.00761967
-0.00774884
-0.00785811
-0.00790793
-0.00799189
-0.00812789
-0.0082412
-0.00830377
-0.00837086
-0.00850048
-0.00865451
-0.00874916
-0.0088207
-0.00895659
-0.00909979
-0.00917334
-0.00924292
-0.00935212
-0.0094409
-0.0094972
-0.00956258
-0.00963624
-0.00970222
-0.00976634
-0.00983312
-0.00989942
-0.00996358
-0.0100274
-0.0100964
-0.0101695
-0.0102409
-0.0103122
-0.0103902
-0.0104719
-0.0105534
-0.0106361
-0.010724
-0.0108149
-0.0109081
-0.0110033
-0.0111022
-0.0112037
-0.0113082
-0.0114155
-0.0115257
-0.0116395
-0.0117553
-0.0118756
-0.0119972
-0.0121239
-0.0122515
-0.0123843
-0.0125185
-0.0126571
-0.0127987
-0.0129425
-0.0130918
-0.0132407
-0.0133969
-0.0135519
-0.0137136
-0.0138763
-0.0140418
-0.0142134
-0.014383
-0.0145618
-0.0147385
-0.0149206
-0.0151085
-0.015291
-0.0154896
-0.0156766
-0.0158744
-0.0160795
-0.0162611
-0.0164754
-0.0166704
-0.0168096
-0.016985
0.0133884
0.00781023
-0.000626582
-0.00696309
-0.00900997
-0.00851675
-0.00758912
-0.00700331
-0.00690047
-0.00709235
-0.00730805
-0.00740914
-0.00742401
-0.00741113
-0.0073913
-0.00740485
-0.00743529
-0.00745173
-0.00750839
-0.00757599
-0.00758139
-0.00761723
-0.00774667
-0.00785623
-0.0079061
-0.00799012
-0.00812632
-0.00823982
-0.00830249
-0.0083696
-0.00849929
-0.00865351
-0.00874829
-0.00881983
-0.00895578
-0.00909915
-0.00917277
-0.00924237
-0.00935165
-0.00944053
-0.00949686
-0.00956228
-0.00963599
-0.00970201
-0.00976615
-0.00983297
-0.00989929
-0.00996347
-0.0100273
-0.0100963
-0.0101694
-0.0102408
-0.0103121
-0.0103901
-0.0104718
-0.0105534
-0.0106361
-0.010724
-0.0108148
-0.0109081
-0.0110033
-0.0111022
-0.0112037
-0.0113082
-0.0114155
-0.0115257
-0.0116395
-0.0117553
-0.0118756
-0.0119972
-0.0121239
-0.0122515
-0.0123843
-0.0125185
-0.0126571
-0.0127987
-0.0129425
-0.0130918
-0.0132407
-0.0133969
-0.0135519
-0.0137136
-0.0138763
-0.0140418
-0.0142134
-0.014383
-0.0145618
-0.0147385
-0.0149206
-0.0151085
-0.015291
-0.0154896
-0.0156766
-0.0158744
-0.0160795
-0.0162611
-0.0164754
-0.0166704
-0.0168096
-0.016985
0.0126366
0.00768169
-0.000432535
-0.00669605
-0.00886368
-0.00846283
-0.00756315
-0.00698377
-0.00688431
-0.00707879
-0.00729661
-0.00739983
-0.00741684
-0.00740576
-0.00738704
-0.00740121
-0.00743205
-0.00744867
-0.0075056
-0.00757356
-0.00757904
-0.00761493
-0.00774468
-0.00785449
-0.00790439
-0.00798849
-0.00812488
-0.00823854
-0.00830127
-0.00836841
-0.0084982
-0.00865259
-0.00874746
-0.00881898
-0.00895503
-0.00909856
-0.00917221
-0.00924181
-0.00935121
-0.00944017
-0.00949652
-0.00956198
-0.00963574
-0.00970179
-0.00976596
-0.00983281
-0.00989916
-0.00996335
-0.0100272
-0.0100962
-0.0101694
-0.0102408
-0.0103121
-0.0103901
-0.0104718
-0.0105533
-0.0106361
-0.0107239
-0.0108148
-0.0109081
-0.0110033
-0.0111022
-0.0112037
-0.0113082
-0.0114155
-0.0115257
-0.0116395
-0.0117553
-0.0118756
-0.0119972
-0.0121239
-0.0122515
-0.0123843
-0.0125185
-0.0126571
-0.0127987
-0.0129425
-0.0130918
-0.0132407
-0.0133969
-0.0135519
-0.0137136
-0.0138763
-0.0140418
-0.0142134
-0.014383
-0.0145618
-0.0147385
-0.0149206
-0.0151085
-0.015291
-0.0154896
-0.0156766
-0.0158744
-0.0160795
-0.0162611
-0.0164754
-0.0166704
-0.0168096
-0.0169849
0.0119328
0.00755463
-0.000191538
-0.00636188
-0.00866558
-0.00838821
-0.00752687
-0.00695607
-0.0068615
-0.0070595
-0.00727952
-0.00738498
-0.00740495
-0.00739699
-0.00738065
-0.0073963
-0.00742796
-0.00744497
-0.00750224
-0.00757062
-0.00757631
-0.00761228
-0.00774228
-0.00785237
-0.00790243
-0.00798664
-0.00812314
-0.00823692
-0.00829979
-0.00836701
-0.00849687
-0.00865141
-0.00874638
-0.00881793
-0.0089541
-0.00909777
-0.00917144
-0.00924108
-0.00935061
-0.00943967
-0.00949604
-0.00956157
-0.0096354
-0.00970148
-0.00976569
-0.00983258
-0.00989897
-0.00996319
-0.010027
-0.0100961
-0.0101693
-0.0102407
-0.010312
-0.01039
-0.0104718
-0.0105533
-0.010636
-0.0107239
-0.0108148
-0.0109081
-0.0110033
-0.0111022
-0.0112037
-0.0113082
-0.0114155
-0.0115257
-0.0116395
-0.0117553
-0.0118756
-0.0119972
-0.0121239
-0.0122515
-0.0123843
-0.0125185
-0.0126571
-0.0127987
-0.0129425
-0.0130918
-0.0132407
-0.0133969
-0.0135519
-0.0137136
-0.0138763
-0.0140418
-0.0142134
-0.014383
-0.0145618
-0.0147385
-0.0149206
-0.0151085
-0.015291
-0.0154896
-0.0156766
-0.0158744
-0.0160795
-0.0162611
-0.0164754
-0.0166704
-0.0168097
-0.0169849
0.0112358
0.00739923
5.15881e-05
-0.00601104
-0.00844808
-0.00830387
-0.00748531
-0.00692239
-0.0068323
-0.00703396
-0.00725598
-0.00736359
-0.00738714
-0.0073835
-0.00737083
-0.0073889
-0.00742208
-0.00743995
-0.0074977
-0.00756668
-0.00757296
-0.00760908
-0.00773902
-0.00784943
-0.00790003
-0.0079844
-0.00812074
-0.00823459
-0.00829781
-0.00836524
-0.00849505
-0.00864961
-0.00874478
-0.0088165
-0.00895275
-0.00909649
-0.00917022
-0.00923997
-0.00934965
-0.0094388
-0.00949526
-0.0095609
-0.00963483
-0.00970097
-0.00976524
-0.0098322
-0.00989865
-0.00996292
-0.0100268
-0.0100959
-0.0101691
-0.0102405
-0.0103119
-0.0103899
-0.0104717
-0.0105532
-0.010636
-0.0107239
-0.0108148
-0.010908
-0.0110033
-0.0111022
-0.0112037
-0.0113082
-0.0114155
-0.0115257
-0.0116395
-0.0117553
-0.0118756
-0.0119972
-0.0121239
-0.0122515
-0.0123843
-0.0125185
-0.0126571
-0.0127987
-0.0129425
-0.0130918
-0.0132407
-0.0133969
-0.0135519
-0.0137136
-0.0138763
-0.0140418
-0.0142134
-0.014383
-0.0145618
-0.0147385
-0.0149206
-0.0151085
-0.015291
-0.0154896
-0.0156766
-0.0158744
-0.0160795
-0.0162611
-0.0164754
-0.0166704
-0.0168097
-0.0169849
0.0105402
0.00720724
0.000284415
-0.00565574
-0.00821973
-0.00821469
-0.00744312
-0.00688669
-0.00679937
-0.00700418
-0.00722799
-0.00733762
-0.0073649
-0.00736609
-0.00735769
-0.00737863
-0.00741384
-0.00743314
-0.00749161
-0.00756147
-0.00756893
-0.00760531
-0.00773475
-0.00784543
-0.00789706
-0.00798174
-0.00811754
-0.00823132
-0.00829523
-0.00836305
-0.00849254
-0.0086469
-0.00874245
-0.00881455
-0.00895079
-0.00909444
-0.00916832
-0.0092383
-0.00934811
-0.00943737
-0.009494
-0.00955984
-0.00963389
-0.00970013
-0.0097645
-0.00983156
-0.0098981
-0.00996246
-0.0100264
-0.0100955
-0.0101688
-0.0102403
-0.0103117
-0.0103897
-0.0104715
-0.0105531
-0.0106359
-0.0107238
-0.0108147
-0.010908
-0.0110032
-0.0111021
-0.0112037
-0.0113081
-0.0114155
-0.0115257
-0.0116395
-0.0117553
-0.0118756
-0.0119972
-0.0121239
-0.0122515
-0.0123843
-0.0125185
-0.0126571
-0.0127987
-0.0129425
-0.0130918
-0.0132407
-0.0133969
-0.0135519
-0.0137136
-0.0138763
-0.0140418
-0.0142134
-0.014383
-0.0145618
-0.0147385
-0.0149206
-0.0151085
-0.015291
-0.0154896
-0.0156766
-0.0158744
-0.0160795
-0.0162611
-0.0164754
-0.0166705
-0.0168098
-0.016985
0.00984961
0.0069791
0.000504574
-0.00529644
-0.00797967
-0.0081199
-0.00740088
-0.00685026
-0.00676383
-0.00697142
-0.00719731
-0.0073092
-0.00734036
-0.00734651
-0.00734241
-0.00736609
-0.00740341
-0.00742448
-0.00748389
-0.00755494
-0.00756421
-0.00760102
-0.00772951
-0.0078404
-0.00789351
-0.00797858
-0.00811346
-0.00822704
-0.00829204
-0.00836049
-0.00848931
-0.00864311
-0.00873923
-0.008812
-0.00894806
-0.00909144
-0.00916558
-0.00923592
-0.00934581
-0.00943517
-0.00949211
-0.00955823
-0.00963244
-0.00969881
-0.00976335
-0.00983055
-0.00989722
-0.00996171
-0.0100258
-0.0100949
-0.0101683
-0.0102399
-0.0103113
-0.0103894
-0.0104713
-0.0105529
-0.0106357
-0.0107236
-0.0108146
-0.0109079
-0.0110031
-0.0111021
-0.0112036
-0.0113081
-0.0114155
-0.0115256
-0.0116394
-0.0117553
-0.0118756
-0.0119972
-0.0121239
-0.0122514
-0.0123843
-0.0125185
-0.0126571
-0.0127987
-0.0129425
-0.0130918
-0.0132407
-0.0133969
-0.0135519
-0.0137136
-0.0138763
-0.0140418
-0.0142134
-0.014383
-0.0145618
-0.0147385
-0.0149206
-0.0151085
-0.015291
-0.0154896
-0.0156766
-0.0158744
-0.0160796
-0.0162611
-0.0164754
-0.0166705
-0.01681
-0.016985
0.00917048
0.00671768
0.000710163
-0.00493301
-0.00772615
-0.0080177
-0.00735832
-0.00681374
-0.00672629
-0.00693621
-0.00716464
-0.00727923
-0.00731449
-0.00732571
-0.00732586
-0.00735207
-0.00739136
-0.00741431
-0.00747482
-0.00754731
-0.00755881
-0.00759623
-0.00772353
-0.00783458
-0.00788943
-0.00797491
-0.00810853
-0.00822184
-0.0082883
-0.00835764
-0.00848546
-0.00863831
-0.00873515
-0.00880881
-0.00894453
-0.00908742
-0.00916197
-0.00923278
-0.00934267
-0.00943213
-0.0094895
-0.00955599
-0.00963039
-0.00969694
-0.00976169
-0.00982909
-0.00989594
-0.00996063
-0.0100248
-0.0100941
-0.0101675
-0.0102392
-0.0103108
-0.010389
-0.0104709
-0.0105525
-0.0106354
-0.0107234
-0.0108144
-0.0109077
-0.011003
-0.011102
-0.0112035
-0.011308
-0.0114154
-0.0115256
-0.0116394
-0.0117553
-0.0118756
-0.0119972
-0.0121239
-0.0122514
-0.0123843
-0.0125185
-0.0126571
-0.0127987
-0.0129425
-0.0130918
-0.0132407
-0.0133969
-0.0135519
-0.0137136
-0.0138763
-0.0140418
-0.0142134
-0.014383
-0.0145618
-0.0147385
-0.0149206
-0.0151085
-0.015291
-0.0154896
-0.0156766
-0.0158744
-0.0160796
-0.0162611
-0.0164754
-0.0166706
-0.0168102
-0.0169851
0.00850974
0.00642655
0.000897834
-0.00456729
-0.0074588
-0.00790687
-0.00731533
-0.00677793
-0.00668732
-0.00689874
-0.00713013
-0.00724791
-0.00728752
-0.00730393
-0.00730837
-0.00733702
-0.00737817
-0.00740305
-0.00746477
-0.00753884
-0.00755281
-0.00759097
-0.00771702
-0.00782822
-0.00788494
-0.00797078
-0.0081029
-0.00821589
-0.00828411
-0.00835457
-0.00848119
-0.00863275
-0.00873036
-0.0088051
-0.00894029
-0.00908249
-0.00915755
-0.00922893
-0.00933873
-0.00942826
-0.00948619
-0.00955314
-0.00962775
-0.00969451
-0.00975952
-0.00982715
-0.00989423
-0.00995917
-0.0100236
-0.010093
-0.0101665