/*--------------------------------*- C++ -*----------------------------------*\
| =========                 |                                                 |
| \\      /  F ield         | OpenFOAM: The Open Source CFD Toolbox           |
|  \\    /   O peration     | Version:  v1812                                 |
|   \\  /    A nd           | Web:      www.OpenFOAM.com                      |
|    \\/     M anipulation  |                                                 |
\*---------------------------------------------------------------------------*/
FoamFile
{
    version     2.0;
    format      ascii;
    class       volScalarField;
    location    "3.1";
    object      p;
}
// * * * * * * * * * * * * * * * * * * * * * * * * * * * * * * * * * * * * * //

dimensions      [0 2 -2 0 0 0 0];


internalField   nonuniform List<scalar> 
9600
(
5.82122e-11
-0.0010507
-0.000182784
-0.00164904
-0.00252941
0.000971733
-0.000752195
-0.00388304
-0.00209299
-0.00141685
-0.00226596
-0.00200845
-0.00115221
-0.00171652
-0.00196686
-0.00207002
-0.00258693
-0.00228125
-0.00272211
-0.00226697
3.14276e-06
-0.00105491
-0.000194609
-0.0016514
-0.00251093
0.000926507
-0.000758788
-0.00387315
-0.00210253
-0.00141081
-0.00225716
-0.0020203
-0.00114264
-0.00173085
-0.00195261
-0.00211929
-0.00257513
-0.00233942
-0.00270632
-0.00242761
6.42346e-06
-0.00105955
-0.000207591
-0.00165181
-0.00249317
0.000877902
-0.000758523
-0.00385445
-0.002117
-0.0014045
-0.00225143
-0.00203968
-0.00113393
-0.00175497
-0.00193422
-0.00218343
-0.00256103
-0.00241198
-0.00268923
-0.00264849
8.8496e-06
-0.00106357
-0.000221617
-0.00165146
-0.00247773
0.00082816
-0.000756498
-0.00382956
-0.0021383
-0.00140091
-0.00224713
-0.00206531
-0.00112832
-0.001788
-0.001918
-0.00225202
-0.0025544
-0.00247107
-0.00269415
-0.00285571
1.076e-05
-0.00106767
-0.000237497
-0.00164966
-0.00246003
0.00077495
-0.00075626
-0.00379887
-0.00216629
-0.00139801
-0.00224241
-0.00209693
-0.00112401
-0.00182774
-0.00189856
-0.00232276
-0.00254619
-0.00252094
-0.00272515
-0.00302499
1.24297e-05
-0.00107213
-0.000254305
-0.00164549
-0.00243936
0.000718143
-0.00075706
-0.00376267
-0.00219757
-0.00139463
-0.00223781
-0.00213273
-0.00112032
-0.00186884
-0.00187602
-0.00239271
-0.00253384
-0.00257161
-0.00277304
-0.00316266
1.39657e-05
-0.00107707
-0.000271007
-0.00163901
-0.00241636
0.000658293
-0.000757619
-0.00372135
-0.0022288
-0.00139088
-0.00223362
-0.00217103
-0.00111684
-0.00190886
-0.00185483
-0.00245867
-0.00252445
-0.00262155
-0.00283374
-0.00328377
1.54424e-05
-0.00108252
-0.000287076
-0.00163091
-0.00239162
0.000595776
-0.000757194
-0.00367538
-0.002258
-0.00138693
-0.00222982
-0.00221104
-0.00111309
-0.00194806
-0.00183732
-0.00252008
-0.00252313
-0.00266547
-0.00291131
-0.0033958
1.69345e-05
-0.00108845
-0.000302481
-0.00162216
-0.00236568
0.000530783
-0.000755524
-0.0036256
-0.00228464
-0.00138286
-0.00222645
-0.0022522
-0.00110888
-0.00198709
-0.00182424
-0.00257731
-0.00253166
-0.00270128
-0.00300863
-0.00350105
1.84997e-05
-0.00109481
-0.000317474
-0.00161364
-0.00233894
0.000463541
-0.000752781
-0.00357303
-0.00230895
-0.00137879
-0.00222364
-0.0022942
-0.00110449
-0.00202594
-0.0018164
-0.00262988
-0.00255162
-0.00272833
-0.00312431
-0.00360289
2.01767e-05
-0.00110156
-0.000332399
-0.00160599
-0.00231154
0.000394367
-0.000749448
-0.00351865
-0.00233146
-0.00137476
-0.00222153
-0.00233699
-0.00110042
-0.00206411
-0.00181479
-0.00267652
-0.00258503
-0.00274665
-0.00325476
-0.00370717
2.19906e-05
-0.0011087
-0.000347541
-0.00159948
-0.00228347
0.000323588
-0.000746049
-0.00346316
-0.00235267
-0.00137072
-0.00222028
-0.00238055
-0.00109728
-0.00210067
-0.00182066
-0.00271574
-0.00263348
-0.00275795
-0.00339529
-0.00381978
2.39535e-05
-0.00111625
-0.000363068
-0.0015941
-0.00225473
0.000251515
-0.000743005
-0.00340701
-0.00237306
-0.00136658
-0.00222
-0.0024248
-0.00109574
-0.00213444
-0.00183551
-0.00274651
-0.00269757
-0.00276559
-0.00353985
-0.00394487
2.60665e-05
-0.00112423
-0.000379062
-0.00158967
-0.00222533
0.000178461
-0.000740683
-0.00335044
-0.00239301
-0.00136213
-0.00222084
-0.00246968
-0.00109652
-0.00216411
-0.00186092
-0.00276881
-0.00277624
-0.00277394
-0.00368188
-0.0040844
2.83208e-05
-0.00113266
-0.000395561
-0.00158598
-0.00219531
0.000104743
-0.000739443
-0.00329355
-0.00241284
-0.00135712
-0.00222293
-0.00251515
-0.00110021
-0.00218854
-0.00189818
-0.00278354
-0.00286679
-0.00278802
-0.00381563
-0.00423824
3.07021e-05
-0.00114154
-0.000412592
-0.00158279
-0.00216478
3.06845e-05
-0.000739637
-0.0032363
-0.0024328
-0.00135137
-0.00222636
-0.00256109
-0.00110729
-0.002207
-0.0019479
-0.00279225
-0.00296591
-0.00281286
-0.00393658
-0.0044043
3.31904e-05
-0.00115087
-0.000430191
-0.00157992
-0.0021339
-4.33937e-05
-0.000741587
-0.00317861
-0.00245319
-0.00134474
-0.00223111
-0.00260745
-0.0011183
-0.00221912
-0.00200978
-0.00279736
-0.00307017
-0.0028524
-0.00404205
-0.00457924
3.57489e-05
-0.0011606
-0.000448396
-0.00157721
-0.00210289
-0.000117147
-0.000745615
-0.00312035
-0.00247428
-0.0013371
-0.0022371
-0.00265437
-0.00113371
-0.00222483
-0.00208238
-0.00280168
-0.00317671
-0.00290876
-0.00413082
-0.00475904
3.83201e-05
-0.00117065
-0.000467259
-0.00157453
-0.002072
-0.000190181
-0.000752071
-0.00306144
-0.00249627
-0.00132851
-0.00224402
-0.00270209
-0.00115374
-0.00222056
-0.00216386
-0.00280762
-0.00328324
-0.00298233
-0.00420285
-0.00493911
4.08336e-05
-0.00118092
-0.000486864
-0.00157173
-0.00204154
-0.000262111
-0.000761279
-0.0030018
-0.00251932
-0.00131923
-0.00225134
-0.00275106
-0.00117832
-0.00221569
-0.00225273
-0.00281735
-0.00338748
-0.00307256
-0.00425952
-0.00511477
4.31979e-05
-0.00119128
-0.000507317
-0.00156868
-0.00201186
-0.000332567
-0.000773544
-0.0029413
-0.0025436
-0.0013096
-0.00225834
-0.00280218
-0.00120701
-0.00220792
-0.00234805
-0.00283246
-0.00348779
-0.00317924
-0.00430304
-0.00528059
4.53022e-05
-0.00120154
-0.000528746
-0.00156521
-0.00198331
-0.000401123
-0.000789196
-0.00287996
-0.00256894
-0.00130021
-0.00226407
-0.00285643
-0.00123927
-0.00219706
-0.00244944
-0.00285339
-0.00358297
-0.00330298
-0.00433584
-0.00542984
4.7019e-05
-0.00121151
-0.000551333
-0.00156114
-0.00195627
-0.000467391
-0.000808507
-0.00281785
-0.00259513
-0.00129198
-0.00226731
-0.00291454
-0.0012751
-0.00218301
-0.00255669
-0.00288076
-0.00367133
-0.0034438
-0.00436107
-0.00555546
4.81916e-05
-0.00122092
-0.000575296
-0.00155626
-0.00193107
-0.000531107
-0.000831612
-0.00275511
-0.00262197
-0.00128606
-0.00226637
-0.0029769
-0.00131547
-0.00216547
-0.00266953
-0.0029161
-0.00375012
-0.00360038
-0.00438381
-0.00565094
4.86276e-05
-0.00122946
-0.000600853
-0.00155041
-0.00190803
-0.000592009
-0.00085857
-0.00269211
-0.00264882
-0.00128382
-0.00225989
-0.00304363
-0.00136168
-0.00214348
-0.00278754
-0.0029618
-0.00381575
-0.00376981
-0.0044116
-0.00571109
4.80943e-05
-0.00123677
-0.000628218
-0.00154347
-0.00188746
-0.000649903
-0.000889261
-0.00262941
-0.00267472
-0.00128685
-0.00224725
-0.00311398
-0.00141523
-0.00211596
-0.0029097
-0.00302123
-0.00386473
-0.00394691
-0.00445346
-0.00573329
4.6352e-05
-0.00124248
-0.000657635
-0.00153529
-0.00186966
-0.00070477
-0.000923346
-0.00256778
-0.0026986
-0.00129652
-0.00222825
-0.00318646
-0.00147816
-0.00208254
-0.00303402
-0.00309803
-0.00389535
-0.00412419
-0.00451864
-0.00571954
4.31317e-05
-0.00124614
-0.000689329
-0.00152579
-0.00185483
-0.000756631
-0.00096026
-0.00250841
-0.00271923
-0.00131355
-0.00220325
-0.00325936
-0.00155272
-0.00204372
-0.00315749
-0.00319569
-0.00390891
-0.00429126
-0.00461428
-0.00567996
3.81049e-05
-0.00124732
-0.000723448
-0.00151499
-0.00184305
-0.000805732
-0.00099907
-0.00245263
-0.00273582
-0.00133852
-0.00217295
-0.0033304
-0.00164122
-0.00200092
-0.00327593
-0.00331697
-0.00391028
-0.00443584
-0.00474167
-0.00563215
3.09242e-05
-0.00124556
-0.00076006
-0.00150302
-0.00183417
-0.00085272
-0.00103847
-0.00240156
-0.0027484
-0.00137152
-0.00213836
-0.00339708
-0.00174521
-0.00195696
-0.00338435
-0.00346234
-0.00390714
-0.0045471
-0.00489372
-0.00559824
2.12466e-05
-0.00124042
-0.000799209
-0.00149008
-0.0018279
-0.000898554
-0.00107691
-0.00235601
-0.00275721
-0.00141206
-0.00210144
-0.0034575
-0.00186504
-0.00191523
-0.00347785
-0.00362987
-0.00390874
-0.00461831
-0.00505592
-0.00559962
8.71093e-06
-0.00123147
-0.000840847
-0.00147661
-0.00182355
-0.000944401
-0.00111316
-0.00231626
-0.00276293
-0.00145965
-0.00206441
-0.00351009
-0.00200055
-0.00187942
-0.00355184
-0.00381565
-0.00392463
-0.00464904
-0.00521044
-0.00564775
-7.00197e-06
-0.00121836
-0.000884702
-0.00146326
-0.0018201
-0.000991542
-0.00114653
-0.00228174
-0.00276694
-0.0015139
-0.00202884
-0.00355326
-0.00215109
-0.00185381
-0.0036029
-0.00401422
-0.00396297
-0.00464514
-0.00533966
-0.00573812
-2.62139e-05
-0.00120088
-0.000930208
-0.001451
-0.00181618
-0.001041
-0.0011767
-0.0022512
-0.0027708
-0.00157459
-0.00199627
-0.00358611
-0.00231514
-0.00184274
-0.00362873
-0.00421842
-0.00402976
-0.00461648
-0.00543103
-0.00585399
-4.92462e-05
-0.00117897
-0.00097644
-0.00144103
-0.00181058
-0.0010932
-0.00120418
-0.00222347
-0.00277547
-0.00164161
-0.00196824
-0.00360798
-0.00249053
-0.00185092
-0.00362802
-0.00441975
-0.00412875
-0.00457409
-0.0054792
-0.00597544
-7.63224e-05
-0.00115293
-0.00102201
-0.00143441
-0.00180273
-0.00114792
-0.00123039
-0.00219768
-0.00278137
-0.0017151
-0.00194615
-0.00361839
-0.00267466
-0.00188281
-0.00360092
-0.00460886
-0.0042612
-0.0045284
-0.00548375
-0.0060856
-0.000107582
-0.00112353
-0.00106517
-0.00143169
-0.00179252
-0.00120458
-0.00125649
-0.00217311
-0.00278881
-0.00179558
-0.00193194
-0.00361729
-0.00286407
-0.00194161
-0.00354954
-0.0047754
-0.00442648
-0.00449103
-0.00544647
-0.00617132
-0.000142972
-0.00109199
-0.00110422
-0.00143254
-0.00178103
-0.00126262
-0.00128332
-0.0021495
-0.00279818
-0.00188357
-0.00192703
-0.00360407
-0.00305441
-0.00203032
-0.00347953
-0.00490831
-0.00462063
-0.00447591
-0.00537159
-0.00622157
-0.000182396
-0.00105961
-0.00113774
-0.00143614
-0.00176887
-0.00132179
-0.00131277
-0.0021267
-0.00280975
-0.00197891
-0.00193193
-0.00357965
-0.00324123
-0.00215089
-0.00339986
-0.0049974
-0.00483395
-0.00449741
-0.00526845
-0.00622633
-0.000225686
-0.0010275
-0.00116463
-0.00144167
-0.00175641
-0.00138227
-0.00134754
-0.00210499
-0.00282133
-0.00208047
-0.00194801
-0.00354055
-0.00341887
-0.00230287
-0.00332192
-0.00503735
-0.005052
-0.00456636
-0.00515321
-0.00617825
-0.000272427
-0.000996746
-0.00118448
-0.00144831
-0.00174357
-0.0014444
-0.00139029
-0.00208456
-0.00282984
-0.00218687
-0.0019771
-0.0034884
-0.00358029
-0.00248273
-0.00325823
-0.00502949
-0.00525869
-0.00468507
-0.00504705
-0.00607741
-0.00032164
-0.000968379
-0.00119796
-0.00145601
-0.00172915
-0.00150721
-0.00144425
-0.00206709
-0.00283115
-0.00229573
-0.00202038
-0.00342662
-0.00371899
-0.0026841
-0.00321922
-0.00498025
-0.00543821
-0.00484631
-0.00497135
-0.00593492
-0.000372346
-0.000943025
-0.00120601
-0.00146473
-0.00171304
-0.0015671
-0.00150978
-0.00205936
-0.00282757
-0.00240931
-0.00207749
-0.00335968
-0.00382996
-0.00289892
-0.00321198
-0.00489936
-0.00557786
-0.00503643
-0.00494195
-0.00577066
-0.000424135
-0.000920772
-0.00120878
-0.00147452
-0.00169741
-0.00162225
-0.00158594
-0.00206637
-0.00281938
-0.00250945
-0.00214741
-0.0032923
-0.00391069
-0.00311733
-0.00324
-0.00479899
-0.00566956
-0.00523926
-0.00496551
-0.0056075
-0.000475962
-0.00090181
-0.00120698
-0.00148605
-0.0016844
-0.00167452
-0.00167398
-0.00208246
-0.00280304
-0.00260197
-0.00223102
-0.00323242
-0.00396354
-0.00333012
-0.00330314
-0.00469269
-0.00571021
-0.00543774
-0.00504041
-0.00546727
-0.000526712
-0.00088695
-0.00120262
-0.00150076
-0.00167962
-0.00172098
-0.00175887
-0.0021054
-0.00278417
-0.00268626
-0.00232619
-0.0031862
-0.00399258
-0.00353041
-0.00339777
-0.00459379
-0.00570233
-0.00561524
-0.00515859
-0.00536705
-0.000575992
-0.00087689
-0.00119693
-0.00151916
-0.0016829
-0.00175836
-0.00183623
-0.00213863
-0.00276922
-0.00276036
-0.00242877
-0.0031551
-0.00400268
-0.00371311
-0.00351788
-0.00451319
-0.00565414
-0.00575722
-0.00530578
-0.00531579
-0.000623214
-0.000871971
-0.00119061
-0.00153947
-0.00169398
-0.00178953
-0.00190683
-0.00218105
-0.00275955
-0.00282477
-0.00253545
-0.00314087
-0.00399877
-0.00387319
-0.00365491
-0.00445712
-0.00557742
-0.00585358
-0.00546343
-0.00531514
-0.000667907
-0.000872529
-0.00118425
-0.00155938
-0.00171498
-0.00181981
-0.00196901
-0.00222714
-0.00275696
-0.00288268
-0.00264246
-0.00314179
-0.00398413
-0.00400717
-0.00380038
-0.0044295
-0.00548629
-0.00590251
-0.00561304
-0.00535934
-0.000709799
-0.000878364
-0.00117859
-0.00157857
-0.00174638
-0.00185189
-0.00202191
-0.00227369
-0.0027621
-0.00293565
-0.00274708
-0.00315485
-0.00396235
-0.00411566
-0.00394784
-0.00443134
-0.00539442
-0.00590917
-0.00573856
-0.00543428
-0.000748564
-0.000889353
-0.00117537
-0.00159643
-0.0017865
-0.00188853
-0.00206696
-0.00231795
-0.00277259
-0.00298457
-0.00284936
-0.00318031
-0.00393741
-0.0041996
-0.00409054
-0.00445855
-0.00531155
-0.00588311
-0.00583054
-0.00552257
-0.000784232
-0.000905306
-0.00117659
-0.00161131
-0.00183164
-0.00193199
-0.0021073
-0.00235836
-0.00278644
-0.0030298
-0.00294907
-0.0032183
-0.00391269
-0.00425889
-0.00422168
-0.00450531
-0.00524438
-0.005836
-0.00588755
-0.00560903
-0.000817049
-0.000925782
-0.00118396
-0.00162263
-0.00187673
-0.00198269
-0.00214777
-0.00239505
-0.00280216
-0.00307201
-0.00304421
-0.00326653
-0.00389226
-0.00429638
-0.00433628
-0.00456555
-0.0051956
-0.00577798
-0.00591213
-0.00568177
-0.000847881
-0.000950621
-0.00119791
-0.00163081
-0.00191818
-0.00203975
-0.00219284
-0.00242946
-0.0028176
-0.00311034
-0.00313354
-0.00332258
-0.00387912
-0.00431745
-0.00443122
-0.00463237
-0.00516489
-0.00571667
-0.00590925
-0.00573377
-0.00087778
-0.000978799
-0.00121811
-0.00163772
-0.00195448
-0.00210109
-0.00224464
-0.00246427
-0.00283172
-0.00314271
-0.00321636
-0.00338531
-0.00387439
-0.00432673
-0.0045058
-0.00469865
-0.00514999
-0.00565813
-0.00588608
-0.00576265
-0.000907456
-0.00100932
-0.0012441
-0.00164631
-0.00198554
-0.00216272
-0.00230278
-0.00250284
-0.00284592
-0.00316801
-0.00328999
-0.00345231
-0.00387946
-0.00432818
-0.00456133
-0.00475879
-0.00514624
-0.00560612
-0.00585006
-0.00576935
-0.000937494
-0.00104139
-0.00127528
-0.00165916
-0.002012
-0.00222109
-0.002366
-0.00254714
-0.00286191
-0.00318751
-0.00335156
-0.00351848
-0.00389505
-0.00432652
-0.00459996
-0.00481016
-0.00514882
-0.00556147
-0.0058076
-0.00575741
-0.00096846
-0.00107454
-0.00131077
-0.00167786
-0.00203551
-0.00227418
-0.00243189
-0.00259775
-0.00288151
-0.00320287
-0.00340128
-0.00357933
-0.00391765
-0.00432574
-0.00462484
-0.00485193
-0.00515482
-0.00552266
-0.00576249
-0.00573158
-0.00100091
-0.00110877
-0.00134914
-0.00170288
-0.00205885
-0.00232142
-0.00249678
-0.00265386
-0.00290698
-0.00321533
-0.00344007
-0.00363306
-0.00394275
-0.00432683
-0.00463982
-0.00488307
-0.00516186
-0.00548792
-0.00571591
-0.00569685
-0.0010353
-0.00114434
-0.00138923
-0.00173382
-0.00208498
-0.00236387
-0.00255739
-0.00271318
-0.00293977
-0.0032277
-0.00346811
-0.00367811
-0.00396828
-0.00432857
-0.00464766
-0.0049035
-0.0051674
-0.00545719
-0.00566857
-0.00565702
-0.00107195
-0.00118166
-0.00143047
-0.00176991
-0.00211539
-0.00240315
-0.00261264
-0.00277258
-0.00297849
-0.00324366
-0.00348811
-0.00371174
-0.00399158
-0.00433012
-0.00464936
-0.00491481
-0.00516933
-0.00543006
-0.00562124
-0.00561278
-0.00111109
-0.00122117
-0.00147282
-0.00180998
-0.00215052
-0.00244136
-0.00266287
-0.00282934
-0.00302027
-0.00326388
-0.00350466
-0.00373494
-0.00400857
-0.00433048
-0.00464521
-0.00491768
-0.00516643
-0.00540437
-0.00557447
-0.00556374
-0.00115286
-0.00126332
-0.00151666
-0.00185285
-0.00219011
-0.00248059
-0.00270906
-0.002882
-0.00306312
-0.00328639
-0.00351957
-0.00375133
-0.00401775
-0.00432701
-0.00463552
-0.00491129
-0.00515768
-0.00537826
-0.00552897
-0.00551136
-0.0011974
-0.00130844
-0.00156258
-0.00189786
-0.00223325
-0.00252212
-0.0027528
-0.00293008
-0.0031053
-0.00331051
-0.0035318
-0.00376192
-0.00402054
-0.00431725
-0.0046196
-0.00489534
-0.00514092
-0.00534984
-0.00548414
-0.00545777
-0.00124495
-0.00135676
-0.00161108
-0.00194485
-0.00227929
-0.00256637
-0.00279591
-0.00297403
-0.00314437
-0.00333544
-0.00354236
-0.00376562
-0.00401674
-0.00430053
-0.0045956
-0.0048704
-0.00511451
-0.00531599
-0.00543718
-0.00540186
-0.00129583
-0.00140848
-0.00166272
-0.00199417
-0.00232763
-0.00261304
-0.00283971
-0.0030157
-0.00317958
-0.00335832
-0.00355166
-0.00376317
-0.00400449
-0.00427608
-0.00456155
-0.00483493
-0.00507783
-0.00527438
-0.00538629
-0.00534312
-0.00135041
-0.00146372
-0.00171773
-0.00204658
-0.00237831
-0.00266164
-0.00288436
-0.00305638
-0.00321276
-0.00337804
-0.0035575
-0.0037557
-0.00398328
-0.00424198
-0.004516
-0.00478542
-0.00502827
-0.00522214
-0.00532916
-0.00528113
-0.00140905
-0.00152266
-0.00177626
-0.00210242
-0.00243181
-0.00271268
-0.00293045
-0.0030962
-0.00324414
-0.00339539
-0.00355866
-0.00374237
-0.00395354
-0.00419587
-0.00445728
-0.00471979
-0.00496241
-0.00515597
-0.00526176
-0.00521297
-0.00147212
-0.00158567
-0.00183854
-0.00216212
-0.00248847
-0.00276625
-0.00297899
-0.00313668
-0.00327386
-0.00341072
-0.00355579
-0.00372192
-0.00391484
-0.00413621
-0.00438076
-0.00463363
-0.00487452
-0.00507049
-0.00517898
-0.00513453
-0.0015401
-0.00165309
-0.00190476
-0.00222601
-0.00254924
-0.00282301
-0.00303009
-0.00317921
-0.0033038
-0.00342437
-0.00354989
-0.00369477
-0.00386585
-0.00406247
-0.00428275
-0.00451864
-0.00475258
-0.00495132
-0.00506811
-0.00503634
-0.00161343
-0.00172513
-0.00197557
-0.00229421
-0.00261413
-0.00288418
-0.00308558
-0.00322557
-0.00333615
-0.00343753
-0.00354058
-0.00366083
-0.00380448
-0.00397137
-0.00416176
-0.00437103
-0.00458646
-0.00477886
-0.00490239
-0.00488952
-0.00169306
-0.00180337
-0.00205078
-0.00236697
-0.00268347
-0.00294974
-0.00314723
-0.00327951
-0.00337542
-0.00345447
-0.00352889
-0.00361734
-0.00372689
-0.00385583
-0.00400926
-0.00418616
-0.00437449
-0.00454853
-0.0046662
-0.00466135
-0.00177884
-0.00188742
-0.0021315
-0.00244484
-0.00275777
-0.0030203
-0.00321605
-0.00334537
-0.00343077
-0.00348629
-0.00352378
-0.00356593
-0.00362156
-0.00369767
-0.00380737
-0.00395173
-0.00411926
-0.0042778
-0.00438496
-0.00437246
-0.00186917
-0.00197595
-0.0022203
-0.00252977
-0.00283593
-0.00309365
-0.003291
-0.00342509
-0.00351358
-0.00356394
-0.00356567
-0.003528
-0.00346445
-0.00339748
-0.00337531
-0.00343284
-0.00359138
-0.00382954
-0.00408126
-0.00425647
-0.00196781
-0.00207481
-0.00231706
-0.00261929
-0.00291506
-0.00316483
-0.00336258
-0.00350889
-0.00361616
-0.00370193
-0.00376785
-0.00378998
-0.00368222
-0.00340767
-0.00308715
-0.00282675
-0.00261822
-0.00241446
-0.00221917
-0.00208862
-0.00207962
-0.00218614
-0.0024216
-0.00271297
-0.00299606
-0.00323381
-0.00342657
-0.00357809
-0.00368986
-0.00371164
-0.00357358
-0.00333402
-0.00308029
-0.00287298
-0.00272723
-0.00262495
-0.0025589
-0.00252253
-0.00251717
-0.00257738
-0.00220806
-0.00229547
-0.00252374
-0.00281152
-0.00310117
-0.00335578
-0.00353447
-0.00357409
-0.00349796
-0.00338659
-0.00327899
-0.00320067
-0.00313173
-0.00305116
-0.00294571
-0.00277716
-0.00254385
-0.00226621
-0.00200048
-0.00183265
-0.00237954
-0.00244928
-0.00259501
-0.00278917
-0.0029987
-0.00318193
-0.00331428
-0.00337466
-0.00337263
-0.00333665
-0.00326011
-0.00316254
-0.00306984
-0.00297695
-0.00294239
-0.00300578
-0.00318875
-0.0034803
-0.00382478
-0.00415426
-0.00256161
-0.0026424
-0.00271426
-0.00281584
-0.00296653
-0.0031346
-0.0032862
-0.00339118
-0.00342182
-0.00340589
-0.00334435
-0.00322604
-0.00310355
-0.00296159
-0.00278082
-0.00256544
-0.00231277
-0.00205507
-0.00183815
-0.00173194
-0.00267441
-0.002753
-0.00281512
-0.00288408
-0.0029912
-0.00312294
-0.00324999
-0.00333899
-0.00335709
-0.00332234
-0.00326013
-0.00315017
-0.00302759
-0.00291505
-0.00279342
-0.002685
-0.0025944
-0.00253291
-0.00252309
-0.00261698
-0.00138264
-0.00393877
-0.00952494
-0.0135356
-0.0138707
-0.012213
-0.0103536
-0.0089228
-0.00800102
-0.00751917
-0.00735509
-0.00728445
-0.0070314
-0.0065412
-0.0060434
-0.00569958
-0.00547697
-0.00531712
-0.00510781
-0.00472652
-0.00424755
-0.00384089
-0.00353662
-0.00325373
-0.00293571
-0.00260188
-0.00230541
-0.00205839
-0.00181938
-0.00156156
-0.00131304
-0.00110155
-0.000898156
-0.00064863
-0.000351499
-5.53955e-05
0.00022021
0.000506993
0.000825348
0.00114553
0.00144353
0.00174067
0.00205543
0.00236445
0.00265238
0.00295609
0.00329364
0.00363489
0.00397047
0.00432995
0.00471307
0.00507912
0.00543434
0.005812
0.00618562
0.00655498
0.00695625
0.0073748
0.00779488
0.00823286
0.00867236
0.00910249
0.00954048
0.00999585
0.0104628
0.0109487
0.0114491
0.0119535
0.0124576
0.0129711
0.0134948
0.0140322
0.0145843
0.01515
0.0157248
0.0163073
0.0168984
0.0175016
0.0181191
0.0187478
0.0193891
0.020042
0.0207091
0.0213882
0.022079
0.0227827
0.0235009
0.024234
0.0249799
0.0257417
0.0265157
0.0273078
0.0281127
0.028938
0.0297707
0.0306323
0.0315098
0.0323941
0.0333427
0.0342762
-0.00173528
-0.00400969
-0.00941412
-0.0134139
-0.0138042
-0.0121788
-0.0103298
-0.00890407
-0.0079861
-0.00750709
-0.00734556
-0.00727743
-0.00702624
-0.00653692
-0.00603933
-0.00569569
-0.0054733
-0.00531386
-0.00510513
-0.00472413
-0.00424509
-0.00383842
-0.00353435
-0.00325173
-0.0029339
-0.00260016
-0.00230376
-0.00205685
-0.00181797
-0.00156024
-0.00131175
-0.00110033
-0.000897043
-0.000647617
-0.000350522
-5.44367e-05
0.000221109
0.000507808
0.000826114
0.00114628
0.00144424
0.00174133
0.00205606
0.00236506
0.00265297
0.00295662
0.00329414
0.00363539
0.00397093
0.00433037
0.00471349
0.00507953
0.00543472
0.00581237
0.00618599
0.00655532
0.00695657
0.00737512
0.00779518
0.00823315
0.00867264
0.00910276
0.00954074
0.0099961
0.010463
0.0109489
0.0114494
0.0119537
0.0124578
0.0129713
0.013495
0.0140324
0.0145845
0.0151501
0.0157249
0.0163075
0.0168985
0.0175018
0.0181192
0.0187479
0.0193893
0.0200422
0.0207093
0.0213883
0.0220791
0.0227828
0.023501
0.0242341
0.02498
0.0257418
0.0265158
0.0273078
0.0281128
0.0289381
0.0297707
0.0306324
0.0315098
0.0323942
0.0333428
0.0342764
-0.0021552
-0.00407461
-0.00917726
-0.0131676
-0.0136844
-0.0121344
-0.0103084
-0.00888762
-0.00797165
-0.00749448
-0.00733421
-0.00726738
-0.00701811
-0.00653081
-0.00603489
-0.00569223
-0.00547011
-0.00531087
-0.00510261
-0.0047219
-0.00424287
-0.0038362
-0.00353226
-0.00324982
-0.00293216
-0.00259854
-0.00230224
-0.00205545
-0.00181669
-0.00155903
-0.0013106
-0.00109927
-0.000896098
-0.000646743
-0.000349654
-5.35818e-05
0.000221899
0.000508525
0.000826802
0.00114695
0.00144488
0.00174191
0.00205662
0.00236561
0.00265347
0.00295707
0.00329459
0.00363582
0.00397133
0.00433074
0.00471386
0.00507991
0.00543506
0.00581269
0.00618631
0.00655561
0.00695684
0.00737539
0.00779544
0.0082334
0.0086729
0.009103
0.00954096
0.00999631
0.0104632
0.0109491
0.0114496
0.0119539
0.012458
0.0129715
0.0134951
0.0140325
0.0145846
0.0151503
0.0157251
0.0163076
0.0168987
0.0175019
0.0181194
0.018748
0.0193894
0.0200423
0.0207094
0.0213884
0.0220792
0.0227829
0.0235011
0.0242342
0.0249801
0.0257419
0.0265159
0.0273079
0.0281129
0.0289382
0.0297708
0.0306325
0.0315099
0.0323942
0.0333429
0.0342767
-0.00254204
-0.00410783
-0.00886961
-0.0128441
-0.0135172
-0.0120743
-0.0102823
-0.00886736
-0.00795351
-0.0074795
-0.00732042
-0.00725268
-0.00700375
-0.00651958
-0.00602777
-0.00568781
-0.00546631
-0.00530689
-0.00509894
-0.00471902
-0.00424064
-0.00383411
-0.00352997
-0.00324747
-0.00293007
-0.00259674
-0.00230056
-0.00205381
-0.00181515
-0.00155765
-0.00130938
-0.00109816
-0.000895087
-0.000645798
-0.000348733
-5.26765e-05
0.000222757
0.000509319
0.000827557
0.00114768
0.00144556
0.00174255
0.00205723
0.00236619
0.00265399
0.00295754
0.00329505
0.00363627
0.00397174
0.00433113
0.00471427
0.0050803
0.0054354
0.00581303
0.00618665
0.00655589
0.00695711
0.00737567
0.0077957
0.00823366
0.00867316
0.00910324
0.00954118
0.00999652
0.0104634
0.0109493
0.0114498
0.0119541
0.0124581
0.0129716
0.0134953
0.0140327
0.0145848
0.0151504
0.0157252
0.0163077
0.0168988
0.017502
0.0181195
0.0187481
0.0193895
0.0200424
0.0207095
0.0213885
0.0220793
0.022783
0.0235012
0.0242343
0.0249802
0.025742
0.026516
0.027308
0.028113
0.0289382
0.0297709
0.0306325
0.03151
0.0323943
0.033343
0.0342771
-0.00290154
-0.00415465
-0.00855325
-0.0124949
-0.01333
-0.0120074
-0.0102544
-0.00884413
-0.00793161
-0.00746195
-0.00730391
-0.0072327
-0.00698225
-0.00650221
-0.00601695
-0.00568142
-0.00546085
-0.0053006
-0.00509268
-0.00471454
-0.00423817
-0.00383222
-0.00352739
-0.00324443
-0.00292745
-0.00259476
-0.0022987
-0.00205168
-0.00181296
-0.0015558
-0.00130792
-0.00109686
-0.000893817
-0.000644631
-0.000347688
-5.16667e-05
0.00022378
0.000510305
0.000828469
0.00114854
0.00144639
0.00174333
0.00205795
0.00236686
0.00265459
0.0029581
0.00329559
0.00363679
0.00397221
0.00433158
0.00471472
0.00508074
0.0054358
0.00581342
0.00618702
0.00655622
0.00695742
0.00737598
0.00779599
0.00823395
0.00867345
0.00910351
0.00954142
0.00999675
0.0104637
0.0109495
0.01145
0.0119543
0.0124583
0.0129718
0.0134955
0.0140328
0.0145849
0.0151506
0.0157254
0.0163079
0.016899
0.0175022
0.0181196
0.0187483
0.0193896
0.0200425
0.0207096
0.0213886
0.0220794
0.0227831
0.0235013
0.0242344
0.0249803
0.0257421
0.0265161
0.0273081
0.0281131
0.0289383
0.029771
0.0306326
0.03151
0.0323944
0.033343
0.0342777
-0.0032551
-0.00423978
-0.00824355
-0.0121289
-0.0131273
-0.0119357
-0.0102261
-0.00881938
-0.00790696
-0.00744216
-0.00728536
-0.00720919
-0.00695586
-0.00648047
-0.00600329
-0.00567311
-0.00545321
-0.0052911
-0.00508279
-0.0047076
-0.00423508
-0.00383049
-0.00352449
-0.00324054
-0.00292426
-0.00259283
-0.00229697
-0.00204918
-0.00180999
-0.00155328
-0.00130605
-0.00109515
-0.000892056
-0.000643073
-0.000346471
-5.0549e-05
0.000225006
0.000511534
0.000829563
0.00114956
0.00144744
0.00174435
0.00205886
0.00236766
0.00265533
0.00295879
0.00329624
0.00363738
0.00397278
0.00433213
0.00471526
0.00508125
0.00543626
0.00581387
0.00618744
0.00655659
0.00695778
0.00737634
0.00779632
0.00823428
0.00867378
0.00910381
0.0095417
0.00999702
0.0104639
0.0109498
0.0114502
0.0119545
0.0124586
0.012972
0.0134957
0.014033
0.0145851
0.0151508
0.0157256
0.0163081
0.0168991
0.0175023
0.0181198
0.0187484
0.0193898
0.0200426
0.0207097
0.0213888
0.0220795
0.0227832
0.0235014
0.0242345
0.0249804
0.0257422
0.0265162
0.0273082
0.0281131
0.0289384
0.029771
0.0306327
0.0315101
0.0323944
0.0333431
0.0342785
-0.00360514
-0.00435897
-0.00793855
-0.0117435
-0.0129067
-0.0118579
-0.0101973
-0.0087937
-0.00787988
-0.00742002
-0.00726508
-0.0071838
-0.00692721
-0.00645691
-0.00598861
-0.00566385
-0.0054437
-0.00527841
-0.00506912
-0.00469788
-0.00423094
-0.0038286
-0.00352117
-0.0032358
-0.00292049
-0.00259103
-0.00229564
-0.00204662
-0.00180648
-0.00155015
-0.00130369
-0.00109284
-0.000889512
-0.000640877
-0.000344955
-4.92678e-05
0.000226486
0.000513035
0.000830808
0.00115071
0.00144874
0.0017457
0.00206001
0.00236864
0.00265628
0.00295968
0.003297
0.00363808
0.00397347
0.00433281
0.00471591
0.00508187
0.00543684
0.00581441
0.00618794
0.00655703
0.00695821
0.00737676
0.00779672
0.00823468
0.00867416
0.00910415
0.00954202
0.00999731
0.0104642
0.0109501
0.0114505
0.0119548
0.0124588
0.0129723
0.0134959
0.0140332
0.0145853
0.015151
0.0157258
0.0163083
0.0168993
0.0175025
0.0181199
0.0187486
0.0193899
0.0200428
0.0207099
0.0213889
0.0220797
0.0227834
0.0235015
0.0242346
0.0249805
0.0257423
0.0265163
0.0273083
0.0281132
0.0289385
0.0297711
0.0306328
0.0315102
0.0323945
0.0333432
0.0342794
-0.00393967
-0.00450312
-0.0076394
-0.0113394
-0.012667
-0.0117732
-0.0101686
-0.00876789
-0.00785062
-0.0073954
-0.00724319
-0.00715726
-0.00689742
-0.0064325
-0.0059736
-0.0056543
-0.00543312
-0.00526341
-0.00505247
-0.00468571
-0.00422554
-0.00382624
-0.00351737
-0.00323034
-0.00291617
-0.00258924
-0.00229466
-0.00204427
-0.00180286
-0.00154683
-0.00130104
-0.00108988
-0.000885994
-0.000637812
-0.00034296
-4.76958e-05
0.000228324
0.00051486
0.000832171
0.0011519
0.00145024
0.00174736
0.00206143
0.00236988
0.00265754
0.00296086
0.00329795
0.0036389
0.00397431
0.00433363
0.00471668
0.00508262
0.00543757
0.00581508
0.00618853
0.00655758
0.00695873
0.00737726
0.00779721
0.00823516
0.00867461
0.00910457
0.00954239
0.00999766
0.0104645
0.0109504
0.0114508
0.0119551
0.0124591
0.0129726
0.0134962
0.0140335
0.0145856
0.0151512
0.015726
0.0163085
0.0168995
0.0175027
0.0181201
0.0187487
0.0193901
0.0200429
0.02071
0.0213891
0.0220798
0.0227835
0.0235017
0.0242347
0.0249806
0.0257424
0.0265164
0.0273084
0.0281133
0.0289386
0.0297712
0.0306328
0.0315103
0.0323945
0.0333432
0.0342805
-0.00424741
-0.00466775
-0.00735419
-0.0109211
-0.0124075
-0.0116807
-0.0101401
-0.00874247
-0.00781933
-0.00736811
-0.00721962
-0.00712977
-0.00686668
-0.00640717
-0.005958
-0.00564444
-0.005422
-0.00524713
-0.00503387
-0.00467163
-0.0042189
-0.00382324
-0.0035131
-0.00322435
-0.00291141
-0.00258729
-0.00229379
-0.00204209
-0.00179943
-0.00154374
-0.00129848
-0.0010865
-0.000881552
-0.000633797
-0.000340353
-4.57118e-05
0.000230623
0.000517105
0.000833687
0.00115306
0.00145181
0.00174923
0.00206307
0.00237136
0.00265915
0.00296242
0.00329914
0.00363988
0.00397531
0.00433458
0.00471754
0.00508351
0.00543849
0.00581592
0.00618928
0.00655826
0.00695935
0.00737784
0.0077978
0.00823574
0.00867517
0.00910507
0.00954285
0.00999808
0.0104649
0.0109508
0.0114512
0.0119554
0.0124594
0.0129729
0.0134965
0.0140338
0.0145858
0.0151515
0.0157262
0.0163087
0.0168997
0.0175029
0.0181204
0.0187489
0.0193903
0.0200431
0.0207102
0.0213892
0.02208
0.0227837
0.0235018
0.0242349
0.0249808
0.0257425
0.0265165
0.0273085
0.0281135
0.0289387
0.0297713
0.0306329
0.0315104
0.0323945
0.0333433
0.0342818
-0.0045207
-0.00484929
-0.00709213
-0.0104936
-0.0121274
-0.0115781
-0.0101107
-0.00871758
-0.00778616
-0.00733797
-0.00719417
-0.00710128
-0.00683495
-0.00638066
-0.00594143