/*--------------------------------*- C++ -*----------------------------------*\
| =========                 |                                                 |
| \\      /  F ield         | OpenFOAM: The Open Source CFD Toolbox           |
|  \\    /   O peration     | Version:  v1812                                 |
|   \\  /    A nd           | Web:      www.OpenFOAM.com                      |
|    \\/     M anipulation  |                                                 |
\*---------------------------------------------------------------------------*/
FoamFile
{
    version     2.0;
    format      ascii;
    class       surfaceScalarField;
    location    "3.1";
    object      phi;
}
// * * * * * * * * * * * * * * * * * * * * * * * * * * * * * * * * * * * * * //

dimensions      [0 3 -1 0 0 0 0];
oriented        oriented;


internalField   nonuniform List<scalar> 
19000
(
1.19315e-06
3.68961e-07
1.1647e-06
9.54214e-08
1.12299e-06
1.37767e-07
1.15171e-06
-9.70366e-07
1.23029e-06
5.20014e-07
1.12703e-06
1.86252e-07
1.1173e-06
4.98876e-07
1.13697e-06
5.14578e-07
1.10882e-06
-3.3666e-07
1.1454e-06
-3.01971e-07
1.16034e-06
-2.45763e-07
1.14282e-06
-3.21695e-07
1.16606e-06
1.90723e-07
1.14233e-06
-2.45118e-07
1.16214e-06
4.1681e-07
1.12387e-06
1.74637e-07
1.13651e-06
4.81144e-07
1.10201e-06
2.7871e-07
1.10151e-06
3.03904e-07
2.59427e-07
1.07535e-06
1.24658e-06
3.46644e-07
1.22151e-06
1.20486e-07
1.1765e-06
1.82781e-07
1.20278e-06
-9.96645e-07
1.28323e-06
4.39562e-07
1.18374e-06
2.85746e-07
1.16542e-06
5.17187e-07
1.19785e-06
4.82154e-07
1.16936e-06
-3.08169e-07
1.20191e-06
-3.34528e-07
1.21549e-06
-2.59339e-07
1.20021e-06
-3.06411e-07
1.21782e-06
1.7311e-07
1.19974e-06
-2.27038e-07
1.20701e-06
4.09542e-07
1.18812e-06
1.93519e-07
1.17403e-06
4.95244e-07
1.17145e-06
2.81285e-07
1.13508e-06
3.40271e-07
2.36813e-07
1.1577e-06
1.30062e-06
3.28806e-07
1.28236e-06
1.3875e-07
1.23595e-06
2.29186e-07
1.25487e-06
-1.01557e-06
1.33275e-06
3.61683e-07
1.25082e-06
3.67679e-07
1.21698e-06
5.51026e-07
1.25958e-06
4.39557e-07
1.23441e-06
-2.83004e-07
1.26058e-06
-3.60696e-07
1.2721e-06
-2.70854e-07
1.26325e-06
-2.97561e-07
1.27294e-06
1.63414e-07
1.2627e-06
-2.16797e-07
1.26051e-06
4.11732e-07
1.25288e-06
2.01154e-07
1.23252e-06
5.15604e-07
1.23168e-06
2.82126e-07
1.20791e-06
3.64041e-07
2.42031e-07
1.20269e-06
1.35617e-06
3.16743e-07
1.34717e-06
1.47746e-07
1.30261e-06
2.73747e-07
1.3114e-06
-1.02436e-06
1.38133e-06
2.91754e-07
1.32472e-06
4.24292e-07
1.27738e-06
5.98371e-07
1.32187e-06
3.95061e-07
1.30427e-06
-2.65398e-07
1.32143e-06
-3.77856e-07
1.33176e-06
-2.81186e-07
1.32859e-06
-2.94398e-07
1.33279e-06
1.5922e-07
1.32601e-06
-2.1002e-07
1.32259e-06
4.15155e-07
1.31623e-06
2.07507e-07
1.30235e-06
5.29488e-07
1.29399e-06
2.90484e-07
1.28391e-06
3.74124e-07
2.57329e-07
1.26861e-06
1.4145e-06
3.10592e-07
1.41498e-06
1.47271e-07
1.3762e-06
3.12529e-07
1.3738e-06
-1.02196e-06
1.43138e-06
2.34173e-07
1.40111e-06
4.54557e-07
1.34931e-06
6.50175e-07
1.38701e-06
3.5736e-07
1.37848e-06
-2.56875e-07
1.38636e-06
-3.85735e-07
1.3958e-06
-2.90621e-07
1.39609e-06
-2.94685e-07
1.39736e-06
1.57949e-07
1.38933e-06
-2.01993e-07
1.38681e-06
4.17678e-07
1.37845e-06
2.15868e-07
1.37127e-06
5.36666e-07
1.35908e-06
3.02674e-07
1.35531e-06
3.77896e-07
2.72852e-07
1.33978e-06
1.477e-06
3.09265e-07
1.48496e-06
1.39315e-07
1.45503e-06
3.42456e-07
1.44214e-06
-1.00907e-06
1.48535e-06
1.90962e-07
1.47719e-06
4.6272e-07
1.43126e-06
6.96099e-07
1.45804e-06
3.3058e-07
1.45587e-06
-2.54697e-07
1.45668e-06
-3.8655e-07
1.46412e-06
-2.98058e-07
1.46582e-06
-2.96385e-07
1.4662e-06
1.57563e-07
1.45477e-06
-1.90559e-07
1.45142e-06
4.21025e-07
1.44093e-06
2.26366e-07
1.4384e-06
5.39195e-07
1.42593e-06
3.15137e-07
1.42672e-06
3.77112e-07
2.86598e-07
1.41297e-06
1.54461e-06
3.10869e-07
1.55698e-06
1.26945e-07
1.53691e-06
3.62529e-07
1.51566e-06
-9.87821e-07
1.54506e-06
1.61563e-07
1.55254e-06
4.55241e-07
1.51881e-06
7.29833e-07
1.53565e-06
3.1374e-07
1.53536e-06
-2.54411e-07
1.53169e-06
-3.82878e-07
1.53603e-06
-3.02399e-07
1.53745e-06
-2.978e-07
1.53824e-06
1.56764e-07
1.52377e-06
-1.76083e-07
1.51882e-06
4.25975e-07
1.50667e-06
2.38509e-07
1.50795e-06
5.37918e-07
1.49667e-06
3.26418e-07
1.50205e-06
3.71728e-07
2.9812e-07
1.49053e-06
1.61751e-06
3.13484e-07
1.6314e-06
1.13059e-07
1.62007e-06
3.7386e-07
1.5935e-06
-9.61253e-07
1.61135e-06
1.43714e-07
1.62813e-06
4.38462e-07
1.60779e-06
7.50171e-07
1.61814e-06
3.03393e-07
1.61662e-06
-2.52896e-07
1.61004e-06
-3.7629e-07
1.61095e-06
-3.0331e-07
1.61094e-06
-2.97797e-07
1.61247e-06
1.55238e-07
1.59652e-06
-1.60134e-07
1.59126e-06
4.31236e-07
1.5783e-06
2.51473e-07
1.58337e-06
5.3284e-07
1.57344e-06
3.36357e-07
1.58287e-06
3.62294e-07
3.07415e-07
1.57357e-06
1.69528e-06
3.15777e-07
1.70868e-06
9.96641e-08
1.70382e-06
3.78713e-07
1.67511e-06
-9.32541e-07
1.68427e-06
1.34553e-07
1.70524e-06
4.17492e-07
1.69639e-06
7.59021e-07
1.70351e-06
2.96272e-07
1.6998e-06
-2.49182e-07
1.69107e-06
-3.6756e-07
1.68877e-06
-3.01012e-07
1.68686e-06
-2.95886e-07
1.68881e-06
1.53287e-07
1.67284e-06
-1.44165e-07
1.66942e-06
4.3466e-07
1.65664e-06
2.64249e-07
1.66573e-06
5.23756e-07
1.65677e-06
3.45314e-07
1.669e-06
3.50068e-07
3.14753e-07
1.66166e-06
1.77735e-06
3.17148e-07
1.78923e-06
8.77869e-08
1.78856e-06
3.79384e-07
1.76026e-06
-9.04241e-07
1.7634e-06
1.3141e-07
1.78502e-06
3.95872e-07
1.78485e-06
7.59189e-07
1.79074e-06
2.90384e-07
1.78519e-06
-2.43637e-07
1.77491e-06
-3.57273e-07
1.76991e-06
-2.96016e-07
1.76602e-06
-2.91999e-07
1.76802e-06
1.51295e-07
1.75278e-06
-1.28933e-07
1.75292e-06
4.3452e-07
1.74112e-06
2.76056e-07
1.75421e-06
5.10664e-07
1.74587e-06
3.5365e-07
1.75938e-06
3.36561e-07
3.20355e-07
1.75378e-06
1.86339e-06
3.17504e-07
1.87346e-06
7.77233e-08
1.87527e-06
3.77569e-07
1.84884e-06
-8.7781e-07
1.84809e-06
1.32158e-07
1.86832e-06
3.75643e-07
1.87433e-06
7.53176e-07
1.87983e-06
2.84883e-07
1.8732e-06
-2.37003e-07
1.86191e-06
-3.45987e-07
1.8549e-06
-2.89007e-07
1.84919e-06
-2.86283e-07
1.85102e-06
1.49461e-07
1.83662e-06
-1.14532e-07
1.84114e-06
4.29999e-07
1.83061e-06
2.86592e-07
1.84728e-06
4.93985e-07
1.83944e-06
3.61499e-07
1.85282e-06
3.23172e-07
3.24197e-07
1.84898e-06
1.95336e-06
3.16981e-07
1.96174e-06
6.93416e-08
1.96502e-06
3.74294e-07
1.94082e-06
-8.53607e-07
1.93775e-06
1.35229e-07
1.95574e-06
3.57649e-07
1.96607e-06
7.42843e-07
1.9714e-06
2.79553e-07
1.9643e-06
-2.29905e-07
1.95242e-06
-3.34104e-07
1.94413e-06
-2.80717e-07
1.93684e-06
-2.78992e-07
1.93854e-06
1.47758e-07
1.92467e-06
-1.00655e-07
1.93355e-06
4.2112e-07
1.92418e-06
2.9596e-07
1.94362e-06
4.74547e-07
1.93636e-06
3.68752e-07
1.94848e-06
3.11055e-07
3.25998e-07
1.94668e-06
2.04742e-06
3.15747e-07
2.05445e-06
6.23156e-08
2.05863e-06
3.7011e-07
2.03624e-06
-8.31209e-07
2.03197e-06
1.39495e-07
2.04767e-06
3.41946e-07
2.06106e-06
7.29458e-07
2.06618e-06
2.7443e-07
2.05903e-06
-2.22752e-07
2.0467e-06
-3.21774e-07
2.03778e-06
-2.71801e-07
2.0292e-06
-2.70411e-07
2.03095e-06
1.46004e-07
2.01716e-06
-8.68628e-08
2.02981e-06
4.08476e-07
2.02134e-06
3.0443e-07
2.04246e-06
4.5342e-07
2.03613e-06
3.75085e-07
2.04607e-06
3.01111e-07
3.25349e-07
2.04672e-06
2.14581e-06
3.13939e-07
2.15184e-06
5.62812e-08
2.15665e-06
3.653e-07
2.13528e-06
-8.09832e-07
2.13064e-06
1.44134e-07
2.1444e-06
3.28188e-07
2.16002e-06
7.13836e-07
2.16481e-06
2.69641e-07
2.15785e-06
-2.15796e-07
2.14502e-06
-3.08939e-07
2.13595e-06
-2.62737e-07
2.12634e-06
-2.60798e-07
2.12836e-06
1.43979e-07
2.11428e-06
-7.27804e-08
2.12983e-06
3.92932e-07
2.12203e-06
3.12229e-07
2.14374e-06
4.3171e-07
2.13878e-06
3.80045e-07
2.14602e-06
2.9387e-07
3.22028e-07
2.14934e-06
2.24878e-06
3.11652e-07
2.25412e-06
5.09345e-08
2.25943e-06
3.59992e-07
2.23825e-06
-7.88657e-07
2.23384e-06
1.48546e-07
2.24611e-06
3.15919e-07
2.26349e-06
6.96462e-07
2.26778e-06
2.6535e-07
2.26118e-06
-2.09205e-07
2.24769e-06
-2.95447e-07
2.23876e-06
-2.53808e-07
2.22833e-06
-2.50366e-07
2.23078e-06
1.41527e-07
2.2162e-06
-5.81976e-08
2.23372e-06
3.7541e-07
2.22654e-06
3.19414e-07
2.24783e-06
4.10418e-07
2.24473e-06
3.83144e-07
2.24925e-06
2.89355e-07
3.16265e-07
2.25501e-06
2.35659e-06
3.08938e-07
2.36144e-06
4.60822e-08
2.36723e-06
3.54206e-07
2.34558e-06
-7.67008e-07
2.34181e-06
1.52311e-07
2.35297e-06
3.04759e-07
2.37184e-06
6.77593e-07
2.37547e-06
2.61725e-07
2.36936e-06
-2.03094e-07
2.35506e-06
-2.81152e-07
2.34639e-06
-2.4513e-07
2.33531e-06
-2.39294e-07
2.33824e-06
1.38601e-07
2.32313e-06
-4.30857e-08
2.34177e-06
3.56767e-07
2.33532e-06
3.25859e-07
2.35538e-06
3.90364e-07
2.35455e-06
3.83969e-07
2.35668e-06
2.87234e-07
3.0864e-07
2.3643e-06
2.46951e-06
3.0582e-07
2.47395e-06
4.16493e-08
2.48027e-06
3.47878e-07
2.45769e-06
-7.44421e-07
2.45485e-06
1.55147e-07
2.46512e-06
2.94489e-07
2.48537e-06
6.57342e-07
2.48819e-06
2.58903e-07
2.48265e-06
-1.97552e-07
2.46747e-06
-2.65973e-07
2.45903e-06
-2.36688e-07
2.4475e-06
-2.27762e-07
2.45082e-06
1.35274e-07
2.43534e-06
-2.75976e-08
2.45434e-06
3.37768e-07
2.44889e-06
3.31305e-07
2.46714e-06
3.72119e-07
2.46877e-06
3.82332e-07
2.46901e-06
2.86996e-07
2.99847e-07
2.4778e-06
2.58782e-06
3.02293e-07
2.59181e-06
3.7659e-08
2.5988e-06
3.40891e-07
2.575e-06
-7.20622e-07
2.57327e-06
1.56872e-07
2.58271e-06
2.85058e-07
2.6043e-06
6.35749e-07
2.60623e-06
2.56975e-07
2.60131e-06
-1.92634e-07
2.58526e-06
-2.49923e-07
2.57694e-06
-2.28366e-07
2.56515e-06
-2.15976e-07
2.56871e-06
1.31715e-07
2.55312e-06
-1.20105e-08
2.57184e-06
3.19056e-07
2.56768e-06
3.35461e-07
2.58382e-06
3.55974e-07
2.58782e-06
3.78335e-07
2.58679e-06
2.8803e-07
2.90566e-07
2.59607e-06
2.71179e-06
2.98336e-07
2.71525e-06
3.41995e-08
2.72303e-06
3.33106e-07
2.69789e-06
-6.95482e-07
2.69739e-06
1.57368e-07
2.70592e-06
2.76532e-07
2.72884e-06
6.12825e-07
2.72984e-06
2.55977e-07
2.72557e-06
-1.88359e-07
2.70875e-06
-2.33109e-07
2.70036e-06
-2.19973e-07
2.68857e-06
-2.04183e-07
2.69212e-06
1.28163e-07
2.67677e-06
3.34036e-09
2.69471e-06
3.01118e-07
2.69204e-06
3.38129e-07
2.70606e-06
3.41951e-07
2.71211e-06
3.72292e-07
2.71041e-06
2.89727e-07
2.81379e-07
2.7196e-06
2.84169e-06
2.93914e-07
2.8445e-06
3.1391e-08
2.85322e-06
3.2439e-07
2.82669e-06
-6.68957e-07
2.82751e-06
1.56548e-07
2.83501e-06
2.69035e-07
2.85924e-06
5.88592e-07
2.85933e-06
2.5589e-07
2.85566e-06
-1.84689e-07
2.83828e-06
-2.15731e-07
2.82957e-06
-2.1126e-07
2.81805e-06
-1.92663e-07
2.82132e-06
1.24885e-07
2.80652e-06
1.81469e-08
2.82338e-06
2.84257e-07
2.82225e-06
3.3926e-07
2.83433e-06
3.29873e-07
2.84203e-06
3.64591e-07
2.84016e-06
2.91594e-07
2.72704e-07
2.84883e-06
2.97782e-06
2.88987e-07
2.97985e-06
2.93598e-08
2.98962e-06
3.14624e-07
2.9617e-06
-6.4104e-07
2.96391e-06
1.54342e-07
2.97026e-06
2.62684e-07
2.99574e-06
5.63109e-07
2.99499e-06
2.56642e-07
2.99182e-06
-1.8152e-07
2.97414e-06
-1.98053e-07
2.96483e-06
-2.0195e-07
2.95386e-06
-1.81688e-07
2.95663e-06
1.22115e-07
2.94258e-06
3.21903e-08
2.95825e-06
2.68591e-07
2.95854e-06
3.38966e-07
2.96896e-06
3.19458e-07
2.97798e-06
3.55569e-07
2.97629e-06
2.93287e-07
2.64847e-07
2.98414e-06
3.12048e-06
2.83518e-07
3.12161e-06
2.82247e-08
3.13252e-06
3.0371e-07
3.10322e-06
-6.11732e-07
3.10686e-06
1.50697e-07
3.11199e-06
2.57556e-07
3.13862e-06
5.36484e-07
3.13715e-06
2.58105e-07
3.13431e-06
-1.78682e-07
3.11667e-06
-1.80405e-07
3.10645e-06
-1.91736e-07
3.09626e-06
-1.71498e-07
3.09839e-06
1.19991e-07
3.08517e-06
4.54115e-08
3.09968e-06
2.54077e-07
3.10121e-06
3.37433e-07
3.11019e-06
3.10479e-07
3.12035e-06
3.45417e-07
3.11905e-06
2.94584e-07
2.58036e-07
3.12586e-06
3.26995e-06
2.77475e-07
3.27009e-06
2.80883e-08
3.28223e-06
2.91568e-07
3.25154e-06
-5.81043e-07
3.25665e-06
1.45588e-07
3.26054e-06
2.53663e-07
3.28815e-06
5.08878e-07
3.28616e-06
2.60092e-07
3.28342e-06
-1.75937e-07
3.26618e-06
-1.63166e-07
3.25476e-06
-1.80323e-07
3.24551e-06
-1.62243e-07
3.24699e-06
1.18514e-07
3.23449e-06
5.79117e-08
3.24801e-06
2.40555e-07
3.25059e-06
3.34847e-07
3.25824e-06
3.02831e-07
3.26942e-06
3.34241e-07
3.26874e-06
2.95267e-07
2.52452e-07
3.27432e-06
3.42657e-06
2.70834e-07
3.42562e-06
2.90374e-08
3.43905e-06
2.78141e-07
3.40701e-06
-5.48999e-07
3.41356e-06
1.39036e-07
3.41627e-06
2.5095e-07
3.44464e-06
4.80514e-07
3.44238e-06
2.62348e-07
3.43943e-06
-1.72988e-07
3.42299e-06
-1.46727e-07
3.41014e-06
-1.67476e-07
3.40184e-06
-1.53943e-07
3.40281e-06
1.17547e-07
3.39082e-06
6.99053e-08
3.40352e-06
2.27854e-07
3.40706e-06
3.31309e-07
3.41335e-06
2.96538e-07
3.42542e-06
3.22169e-07
3.4257e-06
2.94988e-07
2.48261e-07
3.42989e-06
3.59067e-06
2.63576e-07
3.58857e-06
3.114e-08
3.60332e-06
2.63391e-07
3.56998e-06
-5.15659e-07
3.5779e-06
1.31112e-07
3.57955e-06
2.49298e-07
3.60839e-06
4.51675e-07
3.60619e-06
2.64555e-07
3.60268e-06
-1.69487e-07
3.58744e-06
-1.31479e-07
3.57301e-06
-1.53052e-07
3.56554e-06
-1.46472e-07
3.56625e-06
1.16835e-07
3.5545e-06
8.1662e-08
3.56648e-06
2.15874e-07
3.57102e-06
3.26769e-07
3.57585e-06
2.917e-07
3.58858e-06
3.09442e-07
3.59027e-06
2.93296e-07
2.4553e-07
3.593e-06
3.76259e-06
2.55688e-07
3.75929e-06
3.44458e-08
3.77537e-06
2.47313e-07
3.74084e-06
-4.81132e-07
3.75e-06
1.21949e-07
3.75078e-06
2.48516e-07
3.77974e-06
4.22716e-07
3.77797e-06
2.66326e-07
3.77354e-06
-1.65056e-07
3.75982e-06
-1.17763e-07
3.74383e-06
-1.37055e-07
3.7369e-06
-1.39543e-07
3.7377e-06
1.16031e-07
3.72592e-06
9.34485e-08
3.73717e-06
2.04617e-07
3.74289e-06
3.2105e-07
3.74627e-06
2.88316e-07
3.75913e-06
2.96588e-07
3.76273e-06
2.89691e-07
2.44102e-07
3.76416e-06
3.94271e-06
2.47162e-07
3.93818e-06
3.89814e-08
3.95555e-06
2.29938e-07
3.92e-06
-4.45583e-07
3.93021e-06
1.11742e-07
3.93038e-06
2.48349e-07
3.95903e-06
3.94063e-07
3.95815e-06
2.67215e-07
3.9524e-06
-1.5931e-07
3.94045e-06
-1.05814e-07
3.92305e-06
-1.19658e-07
3.91626e-06
-1.32749e-07
3.91751e-06
1.14778e-07
3.90554e-06
1.05426e-07
3.91591e-06
1.94246e-07
3.92305e-06
3.13906e-07
3.92514e-06
2.86225e-07
3.93745e-06
2.84278e-07
3.94327e-06
2.8387e-07
2.43512e-07
3.94386e-06
4.13141e-06
2.37997e-07
4.12565e-06
4.47467e-08
4.14424e-06
2.11349e-07
4.1079e-06
-4.09249e-07
4.11889e-06
1.00753e-07
4.11878e-06
2.48462e-07
4.14664e-06
3.66199e-07
4.14711e-06
2.6675e-07
4.13972e-06
-1.51921e-07
4.1296e-06
-9.56946e-08
4.11115e-06
-1.01211e-07
4.10403e-06
-1.2563e-07
4.10602e-06
1.12792e-07
4.09387e-06
1.17576e-07
4.10304e-06
1.85074e-07
4.11179e-06
3.05159e-07
4.11298e-06
2.8503e-07
4.12407e-06
2.73188e-07
4.13204e-06
2.75905e-07
2.4298e-07
4.13257e-06
4.3291e-06
2.28203e-07
4.32214e-06
5.17076e-08
4.34179e-06
1.91693e-07
4.30498e-06
-3.72438e-07
4.31642e-06
8.9311e-08
4.31643e-06
2.48449e-07
4.34297e-06
3.39668e-07
4.34526e-06
2.64457e-07
4.336e-06
-1.42666e-07
4.32759e-06
-8.72767e-08
4.30854e-06
-8.21632e-08
4.30069e-06
-1.17786e-07
4.30355e-06
1.09932e-07
4.29141e-06
1.29721e-07
4.29905e-06
1.77435e-07
4.30943e-06
2.94781e-07
4.31025e-06
2.84206e-07
4.3196e-06
2.63834e-07
4.32928e-06
2.66234e-07
2.41618e-07
4.33064e-06
4.53618e-06
2.17801e-07
4.52809e-06
5.97908e-08
4.5486e-06
1.71182e-07
4.51169e-06
-3.35525e-07
4.52319e-06
7.78078e-08
4.5238e-06
2.47843e-07
4.54843e-06
3.15038e-07
4.55293e-06
2.59958e-07
4.5418e-06
-1.31537e-07
4.53476e-06
-8.02398e-08
4.51562e-06
-6.3015e-08
4.50673e-06
-1.08901e-07
4.51047e-06
1.06194e-07
4.49865e-06
1.41544e-07
4.5044e-06
1.71678e-07
4.5163e-06
2.82879e-07
4.51734e-06
2.83172e-07
4.52473e-06
2.56446e-07
4.53534e-06
2.55617e-07
2.38655e-07
4.5383e-06
4.75309e-06
2.06829e-07
4.744e-06
6.88777e-08
4.76508e-06
1.50106e-07
4.72852e-06
-2.98969e-07
4.73962e-06
6.67061e-08
4.74134e-06
2.46125e-07
4.76351e-06
2.92871e-07
4.77038e-06
2.53086e-07
4.75769e-06
-1.18851e-07
4.75155e-06
-7.41021e-08
4.7328e-06
-4.42637e-08
4.72265e-06
-9.87522e-08
4.72717e-06
1.01674e-07
4.71601e-06
1.52712e-07
4.7197e-06
1.67987e-07
4.7328e-06
2.6978e-07
4.73457e-06
2.81399e-07
4.74011e-06
2.50903e-07
4.75075e-06
2.44978e-07
2.33673e-07
4.75573e-06
4.98028e-06
1.95346e-07
4.97036e-06
7.87965e-08
4.99163e-06
1.2884e-07
4.95596e-06
-2.63299e-07
4.96613e-06
5.65331e-08
4.96951e-06
2.42748e-07
4.98878e-06
2.73604e-07
4.99782e-06
2.44043e-07
4.98418e-06
-1.05212e-07
4.97848e-06
-6.84015e-08
4.9605e-06
-2.62795e-08
4.94899e-06
-8.7246e-08
4.95409e-06
9.65685e-08
4.94392e-06
1.62885e-07
4.94549e-06
1.66417e-07
4.95931e-06
2.55963e-07
4.96232e-06
2.78382e-07
4.9663e-06
2.46924e-07
4.97623e-06
2.3505e-07
2.2682e-07
4.98309e-06
5.21823e-06
1.83433e-07
5.2077e-06
8.93226e-08
5.22869e-06
1.0785e-07
5.19452e-06
-2.29124e-07
5.2032e-06
4.78566e-08
5.20875e-06
2.37194e-07
5.225e-06
2.57351e-07
5.23562e-06
2.33422e-07
5.22173e-06
-9.13242e-08
5.2161e-06
-6.27659e-08
5.19912e-06
-9.30314e-09
5.18628e-06
-7.44013e-08
5.19169e-06
9.11609e-08
5.18281e-06
1.71757e-07
5.18234e-06
1.6689e-07
5.19633e-06
2.41971e-07
5.20096e-06
2.73755e-07
5.2038e-06
2.44081e-07
5.21252e-06
2.26335e-07
2.18663e-07
5.22068e-06
5.46743e-06
1.71196e-07
5.45658e-06
1.00172e-07
5.4767e-06
8.77265e-08
5.44471e-06
-1.9713e-07
5.45133e-06
4.12316e-08
5.45942e-06
2.29101e-07
5.47305e-06
2.43727e-07
5.48438e-06
2.22087e-07
5.4708e-06
-7.77359e-08
5.465e-06
-5.69675e-08
5.44915e-06
6.54517e-09
5.43504e-06
-6.02969e-08
5.44042e-06
8.5781e-08
5.43315e-06
1.79028e-07
5.43074e-06
1.69299e-07
5.44445e-06
2.28267e-07
5.45089e-06
2.67308e-07
5.45304e-06
2.41934e-07
5.46037e-06
2.19003e-07
2.09989e-07
5.46905e-06
5.72839e-06
1.5876e-07
5.71755e-06
1.11017e-07
5.73604e-06
6.92364e-08
5.707e-06
-1.68089e-07
5.71118e-06
3.70499e-08
5.72178e-06
2.18502e-07
5.73361e-06
2.3189e-07
5.74487e-06
2.10834e-07
5.73184e-06
-6.47092e-08
5.72576e-06
-5.08886e-08
5.71103e-06
2.12824e-08
5.69579e-06
-4.50594e-08
5.7008e-06
8.07736e-08
5.69535e-06
1.84475e-07
5.69134e-06
1.73303e-07
5.70421e-06
2.15402e-07
5.71258e-06
2.58939e-07
5.71451e-06
2.40005e-07
5.72045e-06
2.1306e-07
2.01494e-07
5.72894e-06
6.00168e-06
1.46268e-07
5.9912e-06
1.21497e-07
6.00694e-06
5.35021e-08
5.98184e-06
-1.42985e-07
5.98359e-06
3.52969e-08
5.99611e-06
2.05977e-07
6.00709e-06
2.20909e-07
6.01785e-06
2.00075e-07
6.00537e-06
-5.22242e-08
5.9989e-06
-4.44172e-08
5.98513e-06
3.5052e-08
5.96894e-06
-2.88726e-08
5.97327e-06
7.64481e-08
5.96988e-06
1.87859e-07
5.96477e-06
1.78419e-07
5.97625e-06
2.03921e-07
5.9865e-06
2.48691e-07
5.98869e-06
2.3781e-07
5.99335e-06
2.084e-07
1.93624e-07
6.00122e-06
6.28789e-06
1.33868e-07
6.27814e-06
1.31246e-07
6.29015e-06
4.14874e-08
6.26959e-06
-1.22425e-07
6.26945e-06
3.54359e-08
6.28298e-06
1.92456e-07
6.29369e-06
2.10191e-07
6.30366e-06
1.90104e-07
6.29146e-06
-4.00179e-08
6.28444e-06
-3.74005e-08
6.27165e-06
4.78466e-08
6.25483e-06
-1.20523e-08
6.2584e-06
7.2872e-08
6.25724e-06
1.89023e-07
6.25165e-06
1.84011e-07
6.26129e-06
1.94283e-07
6.27313e-06
2.36844e-07
6.27613e-06
2.34811e-07
6.27964e-06
2.04892e-07
1.86593e-07
6.28667e-06
6.58764e-06
1.21702e-07
6.57897e-06
1.3991e-07
6.58764e-06
3.28156e-08
6.57072e-06
-1.05507e-07
6.56947e-06
3.6687e-08
6.58313e-06
1.78802e-07
6.59336e-06
1.99962e-07
6.60176e-06
1.81702e-07
6.58953e-06
-2.779e-08
6.5823e-06
-3.01747e-08
6.57091e-06
5.92375e-08
6.55399e-06
4.87588e-09
6.55683e-06
7.00232e-08
6.55808e-06
1.87775e-07
6.55262e-06
1.89475e-07
6.56011e-06
1.86787e-07
6.57301e-06
2.23949e-07
6.57734e-06
2.30477e-07
6.57994e-06
2.02291e-07
1.80554e-07
6.58598e-06
6.90159e-06
1.09903e-07
6.89437e-06
1.47131e-07
6.90024e-06
2.69458e-08
6.88592e-06
-9.11888e-08
6.88408e-06
3.85295e-08
6.89753e-06
1.65346e-07
6.90668e-06
1.90814e-07
6.91305e-06
1.75334e-07
6.90132e-06
-1.60596e-08
6.89407e-06
-2.29215e-08
6.88415e-06
6.91559e-08
6.86745e-06
2.1575e-08
6.86935e-06
6.8118e-08
6.87301e-06
1.84116e-07
6.8683e-06
1.94184e-07
6.8735e-06
1.81592e-07
6.88676e-06
2.10687e-07
6.8928e-06
2.24439e-07
6.8949e-06
2.00191e-07
1.75618e-07
6.89983e-06
7.23044e-06
9.85983e-08
7.22518e-06
1.52395e-07
7.22842e-06
2.37024e-08
7.21605e-06
-7.88179e-08
7.2138e-06
4.0782e-08
7.22699e-06
1.52157e-07
7.23554e-06
1.82263e-07
7.24024e-06
1.70627e-07
7.22863e-06
-4.44641e-09
7.2213e-06
-1.55917e-08
7.21262e-06
7.78387e-08
7.19625e-06
3.79468e-08
7.1969e-06
6.74599e-08
7.20267e-06
1.78346e-07
7.19926e-06
1.97593e-07
7.20232e-06
1.78536e-07
7.21507e-06
1.97937e-07
7.22297e-06
2.16538e-07
7.22512e-06
1.98042e-07
1.71824e-07
7.22892e-06
7.57492e-06
8.79003e-08
7.57226e-06
1.55058e-07
7.57291e-06
2.30501e-08
7.56208e-06
-6.79801e-08
7.55932e-06
4.35334e-08
7.57251e-06
1.3897e-07
7.58087e-06
1.739e-07
7.58415e-06
1.67352e-07
7.57218e-06
7.52447e-09
7.56445e-06
-7.85857e-09
7.55711e-06
8.51703e-08
7.54128e-06
5.3779e-08
7.54039e-06
6.83479e-08
7.54776e-06
1.70978e-07
7.54609e-06
1.99267e-07
7.54738e-06
1.77247e-07
7.55889e-06
1.86422e-07
7.56841e-06
2.07017e-07
7.57122e-06
1.95234e-07
1.69019e-07
7.57403e-06
7.93581e-06
7.78973e-08
7.93583e-06
1.55044e-07
7.93487e-06
2.40114e-08
7.92493e-06
-5.80385e-08
7.92202e-06
4.64349e-08
7.93499e-06
1.26007e-07
7.94477e-06
1.64112e-07
7.94661e-06
1.65521e-07
7.93251e-06
2.16229e-08
7.92404e-06
6.11519e-10
7.91828e-06
9.09231e-08
7.90341e-06
6.86569e-08
7.90074e-06
7.10091e-08
7.90904e-06
1.62678e-07
7.90937e-06
1.98945e-07
7.90948e-06
1.77137e-07
7.91921e-06
1.76684e-07
7.9298e-06
1.96433e-07
7.93377e-06
1.91261e-07
1.66827e-07
7.93596e-06
8.31391e-06
6.86637e-08
8.31617e-06
1.52786e-07
8.3152e-06
2.49846e-08
8.30611e-06
-4.89458e-08
8.30293e-06
4.9608e-08
8.31439e-06
1.14554e-07
8.32611e-06
1.5239e-07
8.32517e-06
1.66462e-07
8.30952e-06
3.72722e-08
8.30093e-06
9.20381e-09
8.29684e-06
9.50069e-08
8.28324e-06
8.22585e-08
8.27893e-06
7.53239e-08
8.28733e-06
1.54277e-07
8.28977e-06
1.96499e-07
8.28935e-06
1.77556e-07
8.29705e-06
1.68986e-07
8.30804e-06
1.85445e-07
8.3134e-06
1.85905e-07
1.64732e-07
8.31549e-06
8.71004e-06
6.02822e-08
8.7145e-06
1.48332e-07
8.71273e-06
2.67489e-08
8.70581e-06
-4.20211e-08
8.70144e-06
5.39751e-08
8.70613e-06
1.09865e-07
8.713e-06
1.45522e-07
8.71602e-06
1.63443e-07
8.704e-06
4.92943e-08
8.69622e-06
1.69789e-08
8.69355e-06
9.76802e-08
8.68141e-06
9.43953e-08
8.67576e-06
8.0975e-08
8.68358e-06
1.46457e-07
8.688e-06
1.92082e-07
8.68772e-06
1.77837e-07
8.69342e-06
1.63281e-07
8.70414e-06
1.74728e-07
8.71082e-06
1.79221e-07
1.62252e-07
8.7133e-06
9.12509e-06
5.28089e-08
9.13165e-06
1.41775e-07
9.12807e-06
3.03279e-08
9.11966e-06
-3.36107e-08
9.11164e-06
6.19947e-08
9.11408e-06
1.07427e-07
9.12424e-06
1.35359e-07
9.12971e-06
1.57973e-07
9.11848e-06
6.05243e-08
9.11057e-06
2.48875e-08
9.10908e-06
9.9172e-08
9.09871e-06
1.04762e-07
9.09213e-06
8.75579e-08
9.09891e-06
1.39681e-07
9.10492e-06
1.86069e-07
9.10534e-06
1.7742e-07
9.10934e-06
1.59279e-07
9.11919e-06
1.64874e-07
9.12692e-06
1.71489e-07
1.59059e-07
9.13012e-06
9.55998e-06
4.62912e-08
9.5678e-06
1.33951e-07
9.56289e-06
3.52367e-08
9.55461e-06
-2.53226e-08
9.54914e-06
6.74643e-08
9.54961e-06
1.06953e-07
9.558e-06
1.26973e-07
9.56394e-06
1.52029e-07
9.55348e-06
7.09798e-08
9.545e-06
3.33742e-08
9.54436e-06
9.98076e-08
9.53594e-06
1.13182e-07
9.52891e-06
9.45907e-08
9.53437e-06
1.34225e-07
9.54142e-06
1.79012e-07
9.5429e-06
1.75937e-07
9.54566e-06
1.56526e-07
9.55422e-06
1.56309e-07
9.5626e-06
1.63108e-07
1.54971e-07
9.56669e-06
1.00157e-05
4.07624e-08
1.00242e-05
1.25401e-07
1.0019e-05
4.04675e-08
1.00117e-05
-1.8032e-08
1.00075e-05
7.16767e-08
1.00064e-05
1.08073e-07
1.00127e-05
1.20596e-07
1.0019e-05
1.45777e-07
1.00097e-05
8.03004e-08
1.00006e-05
4.2484e-08
1.00003e-05
1.00046e-07
9.99392e-06
1.1958e-07
9.98692e-06
1.01596e-07
9.99102e-06
1.30123e-07
9.99859e-06
1.7144e-07
1.00013e-05
1.73259e-07
1.00033e-05
1.54455e-07
1.00104e-05
1.49247e-07
1.00189e-05
1.54584e-07
1.49948e-07
1.00239e-05
1.04932e-05
3.62251e-08
1.05025e-05
1.1609e-07
1.04971e-05
4.58799e-08
1.04905e-05
-1.1419e-08
1.04875e-05
7.46605e-08
1.04853e-05
1.10241e-07
1.04896e-05
1.16353e-07
1.04957e-05
1.39617e-07
1.04878e-05
8.8254e-08
1.04784e-05
5.18592e-08
1.04781e-05
1.00306e-07
1.04736e-05
1.24074e-07
1.04671e-05
1.08168e-07
1.04699e-05
1.27286e-07
1.04775e-05
1.63814e-07
1.04813e-05
1.69468e-07
1.04832e-05
1.52547e-07
1.04888e-05
1.43623e-07
1.0497e-05
1.46429e-07
1.44101e-07
1.05028e-05
1.09936e-05
3.26309e-08
1.10035e-05
1.06244e-07
1.09982e-05
5.11464e-08
1.09915e-05
-4.68216e-09
1.09899e-05
7.62361e-08
1.09873e-05
1.12787e-07
1.09896e-05
1.14066e-07
1.09952e-05
1.34016e-07
1.09888e-05
9.47223e-08
1.09795e-05
6.11266e-08
1.0979e-05
1.00837e-07
1.0976e-05
1.26983e-07
1.09702e-05
1.14002e-07
1.0972e-05
1.25486e-07
1.09793e-05
1.56487e-07
1.09841e-05
1.6473e-07
1.09862e-05
1.50406e-07
1.09907e-05
1.39148e-07
1.09981e-05
1.39037e-07
1.37708e-07
1.10045e-05
1.15181e-05
2.99066e-08
1.15281e-05
9.61894e-08
1.15232e-05
5.60562e-08
1.15155e-05
3.00245e-09
1.15154e-05
7.64115e-08
1.15134e-05
1.14754e-07
1.15141e-05
1.134e-07
1.15188e-05
1.29322e-07
1.15136e-05
9.9841e-08
1.15048e-05
6.99578e-08
1.15039e-05
1.01707e-07
1.15023e-05
1.28599e-07
1.14974e-05
1.18889e-07
1.14985e-05
1.24471e-07
1.15053e-05
1.49669e-07
1.15107e-05
1.59306e-07
1.15133e-05
1.47817e-07
1.1517e-05
1.35456e-07
1.15234e-05
1.32595e-07
1.31175e-07
1.153e-05
1.20678e-05
2.79505e-08
1.20775e-05
8.64506e-08
1.2073e-05
6.05549e-08
1.2064e-05
1.20229e-08
1.20651e-05
7.53565e-08
1.20645e-05
1.1531e-07
1.20641e-05
1.13845e-07
1.20676e-05
1.2577e-07
1.20636e-05
1.03868e-07
1.20554e-05
7.80883e-08
1.20543e-05
1.02874e-07
1.20537e-05
1.29187e-07
1.20499e-05
1.2273e-07
1.20503e-05
1.24012e-07
1.20565e-05
1.43482e-07
1.20623e-05
1.53465e-07
1.20655e-05
1.44688e-07
1.20687e-05
1.32189e-07
1.20743e-05
1.27073e-07
1.24859e-07
1.20806e-05
1.26439e-05
2.6642e-08
1.26526e-05
7.77772e-08
1.26484e-05
6.47336e-08
1.26387e-05
2.16935e-08
1.26405e-05
7.36244e-08
1.26416e-05
1.14158e-07
1.26407e-05
1.14731e-07
1.2643e-05
1.23461e-07
1.26398e-05
1.07114e-07
1.26325e-05
8.53394e-08
1.26312e-05
1.04244e-07
1.26314e-05
1.28996e-07
1.26286e-05
1.25486e-07
1.26287e-05
1.23879e-07
1.26342e-05
1.37986e-07
1.26403e-05
1.47414e-07
1.26439e-05
1.41021e-07
1.26471e-05
1.29069e-07
1.26518e-05
1.22316e-07
1.19006e-07
1.26577e-05
1.32477e-05
2.58311e-08
1.32546e-05
7.09348e-08
1.32516e-05
6.77677e-08
1.32419e-05
3.13606e-08
1.32433e-05
7.22464e-08
1.32459e-05
1.1153e-07
1.32452e-05
1.15439e-07
1.32464e-05
1.2226e-07
1.32436e-05
1.0988e-07
1.32373e-05
9.16708e-08
1.32358e-05
1.05694e-07
1.32366e-05
1.28229e-07
1.32349e-05
1.27191e-07
1.32349e-05
1.23833e-07
1.32397e-05
1.33191e-07
1.32458e-05
1.4136e-07
1.32499e-05
1.36873e-07
1.32531e-05
1.25906e-07
1.32573e-05
1.18117e-07
1.13717e-07
1.32626e-05
1.38807e-05
2.53303e-08
1.38863e-05
6.53354e-08
1.38843e-05
6.96921e-08
1.38749e-05
4.07864e-08
1.38752e-05
7.20083e-08
1.38787e-05
1.08025e-07
1.38785e-05
1.15547e-07
1.3879e-05
1.21837e-07
1.38765e-05
1.12356e-07
1.3871e-05
9.71713e-08
1.38696e-05
1.0713e-07
1.38708e-05
1.27002e-07
1.38701e-05
1.27913e-07
1.38702e-05
1.23675e-07
1.38744e-05
1.29026e-07
1.38802e-05
1.3551e-07
1.38848e-05
1.32337e-07
1.38881e-05
1.22586e-07
1.3892e-05
1.14259e-07
1.08986e-07
1.38967e-05
1.4544e-05
2.49909e-08
1.45482e-05
6.11449e-08
1.45475e-05
7.03953e-08
1.45388e-05
4.9441e-08
1.45378e-05
7.3078e-08
1.45414e-05
1.04415e-07
1.4542e-05
1.14881e-07
1.45421e-05
1.21763e-07
1.45399e-05
1.14619e-07
1.45351e-05
1.01946e-07
1.45337e-05
1.08497e-07
1.45353e-05
1.25441e-07
1.45354e-05
1.2774e-07
1.45359e-05
1.23243e-07
1.45395e-05
1.25378e-07
1.4545e-05
1.29994e-07
1.45498e-05
1.27552e-07
1.45534e-05
1.19044e-07
1.45571e-05
1.10571e-07
1.04717e-07
1.45613e-05
1.52392e-05
2.46985e-08
1.52423e-05
5.79918e-08
1.52424e-05
7.0319e-08
1.52349e-05
5.69895e-08
1.52326e-05
7.53074e-08
1.52357e-05
1.01381e-07
1.5237e-05
1.13506e-07
1.52372e-05
1.21602e-07
1.52351e-05
1.16682e-07
1.5231e-05
1.0606e-07
1.52298e-05
1.09758e-07
1.52315e-05
1.23709e-07
1.52325e-05
1.26729e-07
1.52333e-05
1.22455e-07
1.52365e-05
1.22119e-07
1.52417e-05
1.24835e-07
1.52466e-05
1.22682e-07
1.52504e-05
1.15266e-07
1.5254e-05
1.06933e-07
1.00761e-07
1.52579e-05
1.59676e-05
2.43912e-08
1.59699e-05
5.57099e-08
1.59704e-05
6.98101e-08
1.59642e-05
6.31983e-08
1.59612e-05
7.8315e-08
1.59633e-05
9.93398e-08
1.59651e-05
1.11704e-07
1.59656e-05
1.21072e-07
1.59638e-05
1.18421e-07
1.59603e-05
1.09571e-07
1.59592e-05
1.10894e-07
1.5961e-05
1.2189e-07
1.59627e-05
1.2503e-07
1.5964e-05
1.2122e-07
1.59669e-05
1.19142e-07
1.59717e-05
1.20024e-07
1.59766e-05
1.17829e-07
1.59805e-05
1.11311e-07
1.59842e-05
1.0326e-07
9.69823e-08
1.5988e-05
1.67309e-05
2.4065e-08
1.67323e-05
5.43395e-08
1.6733e-05
6.90992e-08
1.67283e-05
6.78956e-08
1.6725e-05
8.16185e-08
1.6726e-05
9.83943e-08
1.67278e-05
1.09872e-07
1.67288e-05
1.20106e-07
1.67275e-05
1.19626e-07
1.67246e-05
1.12498e-07
1.67236e-05
1.11912e-07
1.67255e-05
1.20006e-07
1.67277e-05
1.22855e-07
1.67294e-05
1.19476e-07
1.67323e-05
1.16283e-07
1.67367e-05
1.15563e-07
1.67415e-05
1.13029e-07
1.67456e-05
1.07267e-07
1.67493e-05
9.95389e-08
9.32805e-08
1.6753e-05
1.75307e-05
2.37365e-08
1.75316e-05
5.34609e-08
1.7532e-05
6.86174e-08
1.75286e-05
7.12954e-08
1.75255e-05
8.47466e-08
1.75255e-05
9.83919e-08
1.7527e-05
1.0838e-07
1.75283e-05
1.18793e-07
1.75278e-05
1.20147e-07
1.75255e-05
1.14786e-07
1.75247e-05
1.12769e-07
1.75265e-05
1.18137e-07
1.7529e-05
1.20338e-07
1.75312e-05
1.17281e-07
1.75342e-05
1.13367e-07
1.75383e-05
1.1142e-07
1.7543e-05
1.08338e-07
1.75471e-05
1.03153e-07
1.75508e-05
9.58163e-08
8.95729e-08
1.75545e-05
1.83686e-05
2.34393e-08
1.83692e-05
5.29308e-08
1.83693e-05
6.84766e-08
1.83669e-05
7.36815e-08
1.83643e-05
8.73362e-08
1.83637e-05
9.90488e-08
1.83646e-05
1.07451e-07
1.83661e-05
1.17292e-07
1.83662e-05
1.20015e-07
1.83647e-05
1.16334e-07
1.83641e-05
1.13359e-07
1.83659e-05
1.16355e-07
1.83687e-05
1.17564e-07
1.83712e-05
1.14731e-07
1.83742e-05
1.10329e-07
1.83782e-05
1.0746e-07
1.83827e-05
1.03826e-07
1.83869e-05
9.89391e-08
1.83906e-05
9.21089e-08
8.58551e-08
1.83944e-05
1.92466e-05
2.31999e-08
1.9247e-05
5.25757e-08
1.92467e-05
6.8713e-08
1.9245e-05
7.53986e-08
1.92431e-05
8.924e-08
1.92422e-05
1.00024e-07
1.92425e-05
1.07078e-07
1.9244e-05
1.15818e-07
1.92447e-05
1.19342e-07
1.92439e-05
1.17091e-07
1.92437e-05
1.1361e-07
1.92454e-05
1.1462e-07
1.92483e-05
1.14668e-07
1.92512e-05
1.11852e-07
1.92543e-05
1.0719e-07
1.92582e-05
1.03556e-07