/*--------------------------------*- C++ -*----------------------------------*\
| =========                 |                                                 |
| \\      /  F ield         | OpenFOAM: The Open Source CFD Toolbox           |
|  \\    /   O peration     | Version:  v1906                                 |
|   \\  /    A nd           | Web:      www.OpenFOAM.com                      |
|    \\/     M anipulation  |                                                 |
\*---------------------------------------------------------------------------*/
FoamFile
{
    version     2.0;
    format      ascii;
    class       surfaceScalarField;
    location    "7.6";
    object      phi;
}
// * * * * * * * * * * * * * * * * * * * * * * * * * * * * * * * * * * * * * //

dimensions      [0 3 -1 0 0 0 0];
oriented        oriented;


internalField   nonuniform List<scalar> 
19000
(
1.14122e-06
3.29055e-08
1.15145e-06
-2.28094e-07
1.17714e-06
-1.51149e-07
1.16524e-06
-1.29745e-06
1.18981e-06
2.07963e-06
1.14311e-06
1.33969e-07
1.12028e-06
6.76774e-07
1.12992e-06
-2.22393e-07
1.11351e-06
-8.97846e-07
1.12401e-06
-1.20882e-06
1.18498e-06
-1.29718e-07
1.14305e-06
-1.55047e-06
1.21063e-06
8.67713e-07
1.1612e-06
-4.17612e-07
1.21151e-06
7.4359e-07
1.16065e-06
2.05881e-07
1.19555e-06
6.60211e-07
1.1557e-06
4.66592e-07
1.15541e-06
4.08555e-07
4.25543e-07
1.13604e-06
1.19747e-06
5.96936e-08
1.20725e-06
-2.3787e-07
1.23315e-06
-1.77053e-07
1.22333e-06
-1.28762e-06
1.24185e-06
2.0611e-06
1.2026e-06
1.73224e-07
1.17261e-06
7.06767e-07
1.18357e-06
-2.33352e-07
1.16826e-06
-8.8254e-07
1.17615e-06
-1.2167e-06
1.2324e-06
-1.85971e-07
1.19607e-06
-1.51414e-06
1.25542e-06
8.08362e-07
1.22064e-06
-3.82833e-07
1.24784e-06
7.1639e-07
1.23095e-06
2.22773e-07
1.22759e-06
6.63577e-07
1.23282e-06
4.61361e-07
1.18704e-06
4.54336e-07
3.94863e-07
1.21772e-06
1.2582e-06
8.42747e-08
1.26562e-06
-2.45289e-07
1.2923e-06
-2.03732e-07
1.28224e-06
-1.27756e-06
1.29859e-06
2.04474e-06
1.26673e-06
2.0509e-07
1.23538e-06
7.3812e-07
1.24366e-06
-2.41637e-07
1.23002e-06
-8.68895e-07
1.23278e-06
-1.21947e-06
1.2832e-06
-2.36394e-07
1.25525e-06
-1.48619e-06
1.30669e-06
7.56923e-07
1.28551e-06
-3.61657e-07
1.29914e-06
7.02763e-07
1.29863e-06
2.23286e-07
1.28442e-06
6.77783e-07
1.29395e-06
4.51833e-07
1.26414e-06
4.84147e-07
4.00536e-07
1.25847e-06
1.32334e-06
1.05042e-07
1.32726e-06
-2.49212e-07
1.35319e-06
-2.29661e-07
1.34384e-06
-1.26821e-06
1.35934e-06
2.02925e-06
1.33512e-06
2.29307e-07
1.3065e-06
7.66743e-07
1.30944e-06
-2.44585e-07
1.29573e-06
-8.55179e-07
1.29354e-06
-1.21728e-06
1.33683e-06
-2.79685e-07
1.31953e-06
-1.46889e-06
1.36436e-06
7.12088e-07
1.35583e-06
-3.53128e-07
1.36438e-06
6.94218e-07
1.36757e-06
2.20097e-07
1.35991e-06
6.85441e-07
1.35918e-06
4.52566e-07
1.34931e-06
4.94011e-07
4.17785e-07
1.33206e-06
1.39257e-06
1.20829e-07
1.39296e-06
-2.49603e-07
1.4155e-06
-2.522e-07
1.40763e-06
-1.26035e-06
1.42427e-06
2.01261e-06
1.40595e-06
2.47622e-07
1.38326e-06
7.89431e-07
1.38091e-06
-2.42235e-07
1.36538e-06
-8.39649e-07
1.3584e-06
-1.21029e-06
1.39464e-06
-3.1593e-07
1.38499e-06
-1.45923e-06
1.42724e-06
6.69845e-07
1.42691e-06
-3.52801e-07
1.43763e-06
6.83492e-07
1.43753e-06
2.20205e-07
1.43962e-06
6.83346e-07
1.43184e-06
4.60347e-07
1.43116e-06
4.94687e-07
4.33723e-07
1.41523e-06
1.46519e-06
1.3132e-07
1.46328e-06
-2.47693e-07
1.47943e-06
-2.68354e-07
1.4729e-06
-1.25382e-06
1.49236e-06
1.99315e-06
1.47803e-06
2.61949e-07
1.46332e-06
8.04136e-07
1.45726e-06
-2.36167e-07
1.43884e-06
-8.21235e-07
1.42738e-06
-1.19883e-06
1.45688e-06
-3.45425e-07
1.45001e-06
-1.45236e-06
1.49289e-06
6.26959e-07
1.49698e-06
-3.5689e-07
1.5126e-06
6.67873e-07
1.50851e-06
2.24293e-07
1.51776e-06
6.741e-07
1.50745e-06
4.70654e-07
1.51177e-06
4.90373e-07
4.47489e-07
1.498e-06
1.54037e-06
1.37162e-07
1.53797e-06
-2.45293e-07
1.54555e-06
-2.75933e-07
1.53928e-06
-1.24755e-06
1.56245e-06
1.96999e-06
1.55111e-06
2.73288e-07
1.54571e-06
8.09535e-07
1.5378e-06
-2.28252e-07
1.51637e-06
-7.99811e-07
1.50087e-06
-1.18333e-06
1.52348e-06
-3.68036e-07
1.51557e-06
-1.44446e-06
1.56059e-06
5.81946e-07
1.56648e-06
-3.62785e-07
1.58774e-06
6.46619e-07
1.58128e-06
2.30747e-07
1.59598e-06
6.59406e-07
1.58491e-06
4.81721e-07
1.59328e-06
4.81996e-07
4.59733e-07
1.58104e-06
1.61768e-06
1.39608e-07
1.61621e-06
-2.43819e-07
1.61459e-06
-2.74313e-07
1.60728e-06
-1.24024e-06
1.63441e-06
1.94286e-06
1.62601e-06
2.81689e-07
1.63048e-06
8.05062e-07
1.62188e-06
-2.19651e-07
1.59795e-06
-7.75881e-07
1.57908e-06
-1.16446e-06
1.59451e-06
-3.83466e-07
1.58343e-06
-1.43339e-06
1.63071e-06
5.34668e-07
1.63654e-06
-3.68619e-07
1.6638e-06
6.19364e-07
1.65646e-06
2.38089e-07
1.67632e-06
6.39543e-07
1.66494e-06
4.93104e-07
1.67635e-06
4.70588e-07
4.70527e-07
1.66555e-06
1.69723e-06
1.3995e-07
1.69718e-06
-2.43764e-07
1.68727e-06
-2.64402e-07
1.67829e-06
-1.23126e-06
1.70946e-06
1.91169e-06
1.70418e-06
2.86961e-07
1.71793e-06
7.91319e-07
1.70885e-06
-2.10577e-07
1.68324e-06
-7.50269e-07
1.66189e-06
-1.1431e-06
1.67025e-06
-3.91826e-07
1.65491e-06
-1.41805e-06
1.7038e-06
4.85777e-07
1.70811e-06
-3.72923e-07
1.74147e-06
5.86003e-07
1.7339e-06
2.45655e-07
1.75892e-06
6.14524e-07
1.74753e-06
5.0449e-07
1.76059e-06
4.57531e-07
4.79683e-07
1.75144e-06
1.77953e-06
1.39143e-07
1.78059e-06
-2.44821e-07
1.7643e-06
-2.48112e-07
1.75394e-06
-1.2209e-06
1.78937e-06
1.87626e-06
1.78694e-06
2.89393e-07
1.80802e-06
7.70241e-07
1.79809e-06
-2.00646e-07
1.77172e-06
-7.23901e-07
1.74874e-06
-1.12013e-06
1.75099e-06
-3.94072e-07
1.73077e-06
-1.39783e-06
1.78017e-06
4.36378e-07
1.78163e-06
-3.74382e-07
1.82064e-06
5.4699e-07
1.81286e-06
2.53438e-07
1.84256e-06
5.84822e-07
1.8317e-06
5.15347e-07
1.84514e-06
4.44097e-07
4.86803e-07
1.83802e-06
1.86516e-06
1.37732e-07
1.86666e-06
-2.4632e-07
1.84632e-06
-2.27772e-07
1.83533e-06
-1.20992e-06
1.8752e-06
1.83639e-06
1.87469e-06
2.899e-07
1.90031e-06
7.44621e-07
1.88912e-06
-1.89449e-07
1.86293e-06
-6.9772e-07
1.83888e-06
-1.09607e-06
1.83687e-06
-3.92057e-07
1.81138e-06
-1.37234e-06
1.85999e-06
3.8776e-07
1.85739e-06
-3.71781e-07
1.90087e-06
5.03515e-07
1.89257e-06
2.61734e-07
1.92589e-06
5.51507e-07
1.91628e-06
5.2495e-07
1.92916e-06
4.3122e-07
4.91201e-07
1.92476e-06
1.95461e-06
1.35964e-07
1.9559e-06
-2.47609e-07
1.93383e-06
-2.05707e-07
1.92264e-06
-1.19873e-06
1.96663e-06
1.7924e-06
1.96696e-06
2.89576e-07
1.99435e-06
7.17232e-07
1.98186e-06
-1.76961e-07
1.95678e-06
-6.72644e-07
1.9317e-06
-1.07099e-06
1.92776e-06
-3.88109e-07
1.89682e-06
-1.3414e-06
1.94356e-06
3.4102e-07
1.93597e-06
-3.64195e-07
1.98212e-06
4.57363e-07
1.97302e-06
2.70839e-07
2.00847e-06
5.16053e-07
2.00091e-06
5.32513e-07
2.01249e-06
4.19642e-07
4.91966e-07
2.01172e-06
2.04823e-06
1.33922e-07
2.04888e-06
-2.48258e-07
2.02705e-06
-1.83879e-07
2.01531e-06
-1.18699e-06
2.06246e-06
1.74525e-06
2.06288e-06
2.89154e-07
2.0901e-06
6.90019e-07
2.07671e-06
-1.63569e-07
2.05356e-06
-6.495e-07
2.02714e-06
-1.04457e-06
2.02332e-06
-3.84297e-07
1.98707e-06
-1.30515e-06
2.03136e-06
2.96724e-07
2.0184e-06
-3.51232e-07
2.06532e-06
4.10447e-07
2.05528e-06
2.80875e-07
2.09127e-06
4.8006e-07
2.08644e-06
5.37347e-07
2.0959e-06
4.10179e-07
4.88244e-07
2.09962e-06
2.14629e-06
1.31632e-07
2.14615e-06
-2.48121e-07
2.12589e-06
-1.63611e-07
2.11269e-06
-1.17379e-06
2.1616e-06
1.69633e-06
2.16192e-06
2.88842e-07
2.18816e-06
6.63772e-07
2.17441e-06
-1.49815e-07
2.15384e-06
-6.28927e-07
2.12568e-06
-1.01641e-06
2.12322e-06
-3.81838e-07
2.08213e-06
-1.26406e-06
2.12403e-06
2.54819e-07
2.10592e-06
-3.33115e-07
2.15205e-06
3.64317e-07
2.14119e-06
2.9173e-07
2.17623e-06
4.45018e-07
2.1746e-06
5.38978e-07
2.18109e-06
4.03697e-07
4.79708e-07
2.18962e-06
2.249e-06
1.29124e-07
2.24818e-06
-2.47308e-07
2.23005e-06
-1.45481e-07
2.21444e-06
-1.15818e-06
2.26381e-06
1.64696e-06
2.26411e-06
2.88546e-07
2.28956e-06
6.38317e-07
2.27586e-06
-1.36107e-07
2.25821e-06
-6.11279e-07
2.22813e-06
-9.86327e-07
2.22732e-06
-3.81031e-07
2.18213e-06
-1.21887e-06
2.22205e-06
2.14901e-07
2.19946e-06
-3.10525e-07
2.24382e-06
3.19952e-07
2.2325e-06
3.03056e-07
2.26528e-06
4.12231e-07
2.26717e-06
5.37093e-07
2.27018e-06
4.00682e-07
4.66953e-07
2.28294e-06
2.35654e-06
1.26457e-07
2.35531e-06
-2.4608e-07
2.33929e-06
-1.29459e-07
2.32065e-06
-1.13954e-06
2.36964e-06
1.59797e-06
2.37003e-06
2.88161e-07
2.39534e-06
6.13008e-07
2.38182e-06
-1.22594e-07
2.36713e-06
-5.96585e-07
2.3352e-06
-9.54402e-07
2.33581e-06
-3.81632e-07
2.28727e-06
-1.17034e-06
2.32557e-06
1.76603e-07
2.29939e-06
-2.84348e-07
2.34142e-06
2.77927e-07
2.33013e-06
3.14349e-07
2.35957e-06
3.82782e-07
2.36522e-06
5.31445e-07
2.36491e-06
4.00995e-07
4.5131e-07
2.38055e-06
2.46914e-06
1.23714e-07
2.46778e-06
-2.44718e-07
2.45349e-06
-1.1517e-07
2.43168e-06
-1.11773e-06
2.47999e-06
1.54966e-06
2.48045e-06
2.87707e-07
2.50628e-06
5.8718e-07
2.4929e-06
-1.09217e-07
2.48089e-06
-5.8458e-07
2.44737e-06
-9.20878e-07
2.44903e-06
-3.83289e-07
2.39783e-06
-1.11913e-06
2.43458e-06
1.39846e-07
2.40574e-06
-2.55503e-07
2.44497e-06
2.38698e-07
2.4343e-06
3.25019e-07
2.45957e-06
3.57505e-07
2.46917e-06
5.21848e-07
2.46616e-06
4.04005e-07
4.34226e-07
2.48325e-06
2.58703e-06
1.20979e-07
2.58576e-06
-2.43445e-07
2.57271e-06
-1.0212e-07
2.54795e-06
-1.09298e-06
2.59574e-06
1.50187e-06
2.59613e-06
2.87313e-07
2.62292e-06
5.60392e-07
2.6095e-06
-9.57971e-08
2.59974e-06
-5.74823e-07
2.56489e-06
-8.86025e-07
2.56731e-06
-3.85712e-07
2.51407e-06
-1.06589e-06
2.5491e-06
1.04821e-07
2.51853e-06
-2.24936e-07
2.55451e-06
2.02721e-07
2.54508e-06
3.34443e-07
2.56562e-06
3.36968e-07
2.57919e-06
5.08279e-07
2.57448e-06
4.08708e-07
4.16997e-07
2.59171e-06
2.71048e-06
1.18326e-07
2.70945e-06
-2.4241e-07
2.69716e-06
-8.98347e-08
2.6699e-06
-1.06572e-06
2.71753e-06
1.45424e-06
2.71768e-06
2.87162e-07
2.74562e-06
5.32446e-07
2.73195e-06
-8.21236e-08
2.72393e-06
-5.66803e-07
2.68799e-06
-8.50083e-07
2.6909e-06
-3.88617e-07
2.63632e-06
-1.01131e-06
2.66931e-06
7.18293e-08
2.63799e-06
-1.93623e-07
2.67032e-06
1.70395e-07
2.66276e-06
3.42002e-07
2.67833e-06
3.21397e-07
2.69555e-06
4.91067e-07
2.69038e-06
4.13877e-07
4.0072e-07
2.70665e-06
2.83978e-06
1.15813e-07
2.83908e-06
-2.41709e-07
2.82716e-06
-7.79139e-08
2.79789e-06
-1.03645e-06
2.84578e-06
1.40635e-06
2.8455e-06
2.87448e-07
2.87464e-06
5.03305e-07
2.86052e-06
-6.80003e-08
2.85374e-06
-5.60026e-07
2.81695e-06
-8.13291e-07
2.81996e-06
-3.91629e-07
2.76485e-06
-9.562e-07
2.7955e-06
4.11724e-08
2.76443e-06
-1.62547e-07
2.79287e-06
1.41953e-07
2.78774e-06
3.47128e-07
2.79853e-06
3.10614e-07
2.81872e-06
4.70878e-07
2.81421e-06
4.18385e-07
3.86179e-07
2.82875e-06
2.97522e-06
1.13486e-07
2.97491e-06
-2.41398e-07
2.96306e-06
-6.606e-08
2.93225e-06
-1.00564e-06
2.98077e-06
1.35783e-06
2.97987e-06
2.8835e-07
3.01017e-06
4.73007e-07
2.99546e-06
-5.32863e-08
2.98946e-06
-5.54034e-07
2.9521e-06
-7.75931e-07
2.95472e-06
-3.94244e-07
2.89996e-06
-9.01442e-07
2.928e-06
1.31313e-08
2.89803e-06
-1.32574e-07
2.92257e-06
1.17413e-07
2.92028e-06
3.49412e-07
2.92685e-06
3.0405e-07
2.94905e-06
4.48679e-07
2.94618e-06
4.21257e-07
3.73885e-07
2.95847e-06
3.11712e-06
1.11375e-07
3.11722e-06
-2.41505e-07
3.10525e-06
-5.40829e-08
3.07324e-06
-9.73638e-07
3.12268e-06
1.30839e-06
3.12102e-06
2.90017e-07
3.15241e-06
4.41617e-07
3.13705e-06
-3.79261e-08
3.13141e-06
-5.48398e-07
3.09384e-06
-7.38358e-07
3.09546e-06
-3.95865e-07
3.04193e-06
-8.47918e-07
3.0671e-06
-1.20321e-08
3.03892e-06
-1.04399e-07
3.05968e-06
9.66551e-08
3.06046e-06
3.48631e-07
3.06356e-06
3.00952e-07
3.08679e-06
4.25441e-07
3.08626e-06
4.21789e-07
3.6407e-07
3.09608e-06
3.26578e-06
1.09503e-07
3.26631e-06
-2.42036e-07
3.25413e-06
-4.18954e-08
3.22114e-06
-9.40655e-07
3.2717e-06
1.25783e-06
3.26914e-06
2.92569e-07
3.30155e-06
4.09212e-07
3.28559e-06
-2.19661e-08
3.27988e-06
-5.42692e-07
3.24253e-06
-7.01004e-07
3.24252e-06
-3.95856e-07
3.19101e-06
-7.96405e-07
3.21311e-06
-3.41353e-08
3.18718e-06
-7.8465e-08
3.20438e-06
7.94536e-08
3.20827e-06
3.44738e-07
3.20866e-06
3.00562e-07
3.23207e-06
4.0203e-07
3.23437e-06
4.1949e-07
3.56751e-07
3.24169e-06
3.42155e-06
1.07882e-07
3.42249e-06
-2.42971e-07
3.4101e-06
-2.95045e-08
3.37624e-06
-9.068e-07
3.42802e-06
1.20605e-06
3.4245e-06
2.96094e-07
3.45783e-06
3.75881e-07
3.44142e-06
-5.55996e-09
3.43521e-06
-5.36485e-07
3.3986e-06
-6.64388e-07
3.39629e-06
-3.93552e-07
3.34742e-06
-7.47532e-07
3.36642e-06
-5.31357e-08
3.3429e-06
-5.49426e-08
3.35684e-06
6.55088e-08
3.36372e-06
3.37865e-07
3.36215e-06
3.0213e-07
3.38497e-06
3.79206e-07
3.39041e-06
4.14056e-07
3.51697e-07
3.39546e-06
3.58477e-06
1.06523e-07
3.58607e-06
-2.44271e-07
3.57357e-06
-1.70028e-08
3.53885e-06
-8.72081e-07
3.59191e-06
1.15299e-06
3.58736e-06
3.0065e-07
3.6215e-06
3.41741e-07
3.6049e-06
1.10393e-08
3.59774e-06
-5.29328e-07
3.56245e-06
-6.29096e-07
3.55724e-06
-3.88344e-07
3.51139e-06
-7.01684e-07
3.52741e-06
-6.91528e-08
3.50623e-06
-3.37595e-08
3.51725e-06
5.44845e-08
3.52687e-06
3.28245e-07
3.52403e-06
3.04973e-07
3.54558e-06
3.57654e-07
3.55433e-06
4.0531e-07
3.48451e-07
3.55757e-06
3.7558e-06
1.05429e-07
3.7574e-06
-2.45874e-07
3.74495e-06
-4.55343e-09
3.7093e-06
-8.36428e-07
3.76365e-06
1.09864e-06
3.75805e-06
3.06251e-07
3.79284e-06
3.06956e-07
3.77639e-06
2.74861e-08
3.76782e-06
-5.2076e-07
3.73448e-06
-5.95758e-07
3.7259e-06
-3.7976e-07
3.68313e-06
-6.58912e-07
3.6965e-06
-8.25237e-08
3.67738e-06
-1.4645e-08
3.68576e-06
4.61093e-08
3.69789e-06
3.16114e-07
3.69443e-06
3.08437e-07
3.71403e-06
3.38046e-07
3.72617e-06
3.93174e-07
3.46353e-07
3.72827e-06
3.93502e-06
1.04601e-07
3.93684e-06
-2.477e-07
3.92466e-06
7.6273e-09
3.88795e-06
-7.99718e-07
3.94356e-06
1.04303e-06
3.93695e-06
3.12856e-07
3.97215e-06
2.71759e-07
3.95628e-06
4.33551e-08
3.94581e-06
-5.10295e-07
3.91498e-06
-5.64922e-07
3.90284e-06
-3.67624e-07
3.86285e-06
-6.18919e-07
3.87407e-06
-9.37402e-08
3.85664e-06
2.77657e-09
3.86257e-06
4.01855e-08
3.87697e-06
3.01712e-07
3.87352e-06
3.11884e-07
3.89061e-06
3.20959e-07
3.90595e-06
3.77833e-07
3.44475e-07
3.90783e-06
4.12282e-06
1.04035e-07
4.12476e-06
-2.49647e-07
4.1131e-06
1.92895e-08
4.07518e-06
-7.61796e-07
4.13199e-06
9.86227e-07
4.12448e-06
3.20358e-07
4.15977e-06
2.36468e-07
4.14496e-06
5.81683e-08
4.13213e-06
-4.97462e-07
4.10418e-06
-5.3697e-07
4.08866e-06
-3.52105e-07
4.05085e-06
-5.81114e-07
4.06044e-06
-1.0333e-07
4.04445e-06
1.87705e-08
4.04792e-06
3.67178e-08
4.06433e-06
2.85294e-07
4.06159e-06
3.1463e-07
4.07571e-06
3.06841e-07
4.09372e-06
3.59816e-07
3.41668e-07
4.09653e-06
4.31962e-06
1.03718e-07
4.32157e-06
-2.51599e-07
4.31069e-06
3.01698e-08
4.2714e-06
-7.22509e-07
4.32932e-06
9.28307e-07
4.32112e-06
3.28559e-07
4.35607e-06
2.01517e-07
4.34283e-06
7.14133e-08
4.32721e-06
-4.81843e-07
4.30234e-06
-5.12098e-07
4.2839e-06
-3.33669e-07
4.24751e-06
-5.44719e-07
4.25596e-06
-1.11782e-07
4.24123e-06
3.34981e-08
4.24216e-06
3.57895e-08
4.26028e-06
2.67179e-07
4.25891e-06
3.15999e-07
4.26989e-06
2.95862e-07
4.28962e-06
3.40081e-07
3.36746e-07
4.29454e-06
4.52587e-06
1.03625e-07
4.52769e-06
-2.53422e-07
4.51785e-06
4.00061e-08
4.47708e-06
-6.81732e-07
4.53598e-06
8.69404e-07
4.52737e-06
3.37172e-07
4.56144e-06
1.6744e-07
4.55028e-06
8.25751e-08
4.53157e-06
-4.63134e-07
4.50975e-06
-4.90272e-07
4.48906e-06
-3.12985e-07
4.45329e-06
-5.08949e-07
4.46096e-06
-1.19444e-07
4.44751e-06
4.69479e-08
4.44573e-06
3.75605e-08
4.4651e-06
2.47811e-07
4.46583e-06
3.1527e-07
4.47379e-06
2.87907e-07
4.49396e-06
3.19906e-07
3.28794e-07
4.50191e-06
4.74202e-06
1.0372e-07
4.74357e-06
-2.54969e-07
4.73502e-06
4.85486e-08
4.69269e-06
-6.39397e-07
4.75238e-06
8.09714e-07
4.74371e-06
3.45838e-07
4.77631e-06
1.34839e-07
4.76772e-06
9.11693e-08
4.74575e-06
-4.41168e-07
4.72671e-06
-4.71231e-07
4.70464e-06
-2.90908e-07
4.66874e-06
-4.7305e-07
4.67584e-06
-1.2655e-07
4.66383e-06
5.89611e-08
4.65921e-06
4.21756e-08
4.67924e-06
2.27791e-07
4.68266e-06
3.11842e-07
4.68809e-06
2.82483e-07
4.70734e-06
3.00649e-07
3.17453e-07
4.71868e-06
4.96856e-06
1.03954e-07
4.96967e-06
-2.56074e-07
4.96264e-06
5.55776e-08
4.91876e-06
-5.95522e-07
4.97896e-06
7.49518e-07
4.97067e-06
3.54134e-07
5.00115e-06
1.04351e-07
4.99555e-06
9.67767e-08
4.97035e-06
-4.15968e-07
4.95358e-06
-4.5447e-07
4.93108e-06
-2.68403e-07
4.89448e-06
-4.36451e-07
4.90096e-06
-1.33031e-07
4.89083e-06
6.90874e-08
4.88333e-06
4.96751e-08
4.90319e-06
2.07936e-07
4.90975e-06
3.05285e-07
4.91344e-06
2.7879e-07
4.93057e-06
2.83519e-07
3.03051e-07
4.94497e-06
5.206e-06
1.04267e-07
5.20649e-06
-2.56561e-07
5.20114e-06
6.09237e-08
5.15585e-06
-5.50231e-07
5.21619e-06
6.8918e-07
5.20874e-06
3.61583e-07
5.23647e-06
7.66225e-08
5.23417e-06
9.90737e-08
5.20595e-06
-3.87749e-07
5.1908e-06
-4.39317e-07
5.16884e-06
-2.46437e-07
5.13119e-06
-3.98802e-07
5.13673e-06
-1.38575e-07
5.12908e-06
7.67392e-08
5.11898e-06
5.97703e-08
5.13753e-06
1.89393e-07
5.14743e-06
2.95381e-07
5.15036e-06
2.75858e-07
5.16461e-06
2.69269e-07
2.86614e-07
5.18105e-06
5.45486e-06
1.04591e-07
5.45455e-06
-2.56246e-07
5.45099e-06
6.44824e-08
5.40453e-06
-5.03766e-07
5.46457e-06
6.29138e-07
5.45845e-06
3.67706e-07
5.48281e-06
5.22643e-08
5.484e-06
9.78747e-08
5.4532e-06
-3.56945e-07
5.43886e-06
-4.24977e-07
5.41834e-06
-2.25917e-07
5.37953e-06
-3.59993e-07
5.38369e-06
-1.42737e-07
5.37894e-06
8.14874e-08
5.36694e-06
7.17738e-08
5.38308e-06
1.73252e-07
5.39608e-06
2.82385e-07
5.39925e-06
2.72681e-07
5.41049e-06
2.58035e-07
2.69562e-07
5.42754e-06
5.7157e-06
1.04851e-07
5.71439e-06
-2.54942e-07
5.71266e-06
6.62199e-08
5.66538e-06
-4.56495e-07
5.72461e-06
5.69911e-07
5.7203e-06
3.72019e-07
5.74076e-06
3.17988e-08
5.74546e-06
9.3183e-08
5.71272e-06
-3.24213e-07
5.69833e-06
-4.10582e-07
5.67997e-06
-2.0756e-07
5.64026e-06
-3.2028e-07
5.64239e-06
-1.44863e-07
5.64081e-06
8.30601e-08
5.6278e-06
8.47841e-08
5.64075e-06
1.60303e-07
5.65612e-06
2.67015e-07
5.66044e-06
2.68367e-07
5.66906e-06
2.49414e-07
2.53301e-07
5.68532e-06
5.98907e-06
1.0497e-07
5.9866e-06
-2.52471e-07
5.98664e-06
6.61806e-08
5.93903e-06
-4.08885e-07
5.99688e-06
5.12064e-07
5.99483e-06
3.74069e-07
6.01102e-06
1.56111e-08
6.01897e-06
8.5231e-08
5.98515e-06
-2.90389e-07
5.96986e-06
-3.95299e-07
5.9541e-06
-1.91793e-07
5.91408e-06
-2.80264e-07
5.91347e-06
-1.44252e-07
5.91508e-06
8.14446e-08
5.90205e-06
9.78178e-08
5.91138e-06
1.50971e-07
5.92817e-06
2.50228e-07
5.9342e-06
2.62339e-07
5.94107e-06
2.42546e-07
2.3894e-07
5.95543e-06
6.27559e-06
1.04866e-07
6.2718e-06
-2.48676e-07
6.27351e-06
6.44668e-08
6.22612e-06
-3.61491e-07
6.28196e-06
4.56217e-07
6.2826e-06
3.73437e-07
6.29427e-06
3.93683e-09
6.30507e-06
7.44327e-08
6.27106e-06
-2.5638e-07
6.25418e-06
-3.78418e-07
6.24112e-06
-1.78739e-07
6.20164e-06
-2.4078e-07
6.19765e-06
-1.40264e-07
6.20214e-06
7.69547e-08
6.19011e-06
1.09845e-07
6.19584e-06
1.45242e-07
6.21294e-06
2.33132e-07
6.22092e-06
2.54358e-07
6.22697e-06
2.365e-07
2.26945e-07
6.23896e-06
6.57588e-06
1.04458e-07
6.57062e-06
-2.43417e-07
6.57387e-06
6.12147e-08
6.52729e-06
-3.14905e-07
6.5805e-06
4.03003e-07
6.58419e-06
3.69745e-07
6.59126e-06
-3.12902e-09
6.60429e-06
6.14e-08
6.57107e-06
-2.23165e-07
6.55203e-06
-3.59371e-07
6.54153e-06
-1.68245e-07
6.5035e-06
-2.02749e-07
6.49576e-06
-1.32526e-07
6.50249e-06
7.02264e-08
6.49237e-06
1.19971e-07
6.49491e-06
1.427e-07
6.5113e-06
2.16744e-07
6.52113e-06
2.44523e-07
6.52708e-06
2.30554e-07
2.1713e-07
6.53689e-06
6.89059e-06
1.03659e-07
6.88374e-06
-2.36565e-07
6.88845e-06
5.65041e-08
6.8432e-06
-2.69659e-07
6.89315e-06
3.53054e-07
6.9002e-06
3.62696e-07
6.90275e-06
-5.67431e-09
6.91723e-06
4.69184e-08
6.88575e-06
-1.91692e-07
6.86425e-06
-3.37863e-07
6.85584e-06
-1.59842e-07
6.82022e-06
-1.6713e-07
6.80867e-06
-1.20976e-07
6.8167e-06
6.21968e-08
6.8092e-06
1.27472e-07
6.80923e-06
1.42673e-07
6.82408e-06
2.01888e-07
6.83542e-06
2.33187e-07
6.84188e-06
2.24098e-07
2.0903e-07
6.84998e-06
7.22042e-06
1.02377e-07
7.21181e-06
-2.27959e-07
7.21802e-06
5.02944e-08
7.17439e-06
-2.26031e-07
7.22069e-06
3.06762e-07
7.23126e-06
3.52117e-07
7.22955e-06
-3.96096e-09
7.24453e-06
3.19392e-08
7.21564e-06
-1.62802e-07
7.19173e-06
-3.13952e-07
7.18466e-06
-1.52776e-07
7.1522e-06
-1.34665e-07
7.13731e-06
-1.06089e-07
7.14539e-06
5.41215e-08
7.14107e-06
1.31788e-07
7.13941e-06
1.44336e-07
7.15215e-06
1.89145e-07
7.16455e-06
2.20785e-07
7.17176e-06
2.16889e-07
2.01914e-07
7.17888e-06
7.56608e-06
1.0052e-07
7.55555e-06
-2.17427e-07
7.56334e-06
4.2508e-08
7.52155e-06
-1.84244e-07
7.56382e-06
2.64489e-07
7.57805e-06
3.37891e-07
7.57257e-06
1.51799e-09
7.58692e-06
1.75871e-08
7.56126e-06
-1.37145e-07
7.53527e-06
-2.87954e-07
7.52876e-06
-1.4627e-07
7.49992e-06
-1.05822e-07
7.48233e-06
-8.84981e-08
7.4894e-06
4.70466e-08
7.48839e-06
1.32801e-07
7.486e-06
1.46724e-07
7.49641e-06
1.78737e-07
7.50924e-06
2.07956e-07
7.5174e-06
2.08727e-07
1.95293e-07
7.52402e-06
7.92833e-06
9.80057e-08
7.9157e-06
-2.04803e-07
7.92512e-06
3.30908e-08
7.88547e-06
-1.44592e-07
7.92327e-06
2.26684e-07
7.94115e-06
3.20011e-07
7.93274e-06
9.92629e-09
7.94523e-06
5.09699e-09
7.92312e-06
-1.1503e-07
7.89557e-06
-2.60402e-07
7.88898e-06
-1.39684e-07
7.8638e-06
-8.06384e-08
7.84433e-06
-6.90279e-08
7.84966e-06
4.17118e-08
7.85163e-06
1.30837e-07
7.84958e-06
1.48771e-07
7.85768e-06
1.70638e-07
7.87026e-06
1.9537e-07
7.87941e-06
1.99582e-07
1.88781e-07
7.88592e-06
8.30791e-06
9.47769e-08
8.29312e-06
-1.90014e-07
8.30403e-06
2.21806e-08
8.26698e-06
-1.07544e-07
8.29981e-06
1.93856e-07
8.32106e-06
2.98765e-07
8.31087e-06
2.01088e-08
8.32037e-06
-4.40211e-09
8.30168e-06
-9.63353e-08
8.27333e-06
-2.32052e-07
8.26597e-06
-1.32322e-07
8.2444e-06
-5.90753e-08
8.22401e-06
-4.86377e-08
8.22709e-06
3.86353e-08
8.23147e-06
1.26452e-07
8.2306e-06
1.49647e-07
8.23686e-06
1.64373e-07
8.24857e-06
1.83663e-07
8.25845e-06
1.897e-07
1.81933e-07
8.2653e-06
8.70562e-06
9.08226e-08
8.68878e-06
-1.73177e-07
8.70076e-06
1.02014e-08
8.66698e-06
-7.3768e-08
8.69426e-06
1.66576e-07
8.71819e-06
2.74843e-07
8.70749e-06
3.08005e-08
8.7134e-06
-1.03129e-08
8.69754e-06
-8.0468e-08
8.66902e-06
-2.03531e-07
8.6604e-06
-1.23709e-07
8.64242e-06
-4.10885e-08
8.62217e-06
-2.83951e-08
8.6228e-06
3.80056e-08
8.62888e-06
1.20375e-07
8.62967e-06
1.48863e-07
8.63472e-06
1.59321e-07
8.64517e-06
1.73211e-07
8.65536e-06
1.79511e-07
1.74469e-07
8.66282e-06
9.12225e-06
8.61966e-08
9.10377e-06
-1.54704e-07
9.11596e-06
-1.98153e-09
9.08639e-06
-4.41991e-08
9.10762e-06
1.45343e-07
9.13317e-06
2.49292e-07
9.12318e-06
4.07903e-08
9.12539e-06
-1.25205e-08
9.11151e-06
-6.65886e-08
9.08326e-06
-1.75281e-07
9.07321e-06
-1.13663e-07
9.05875e-06
-2.66211e-08
9.03977e-06
-9.42383e-09
9.03807e-06
3.97106e-08
9.04495e-06
1.13497e-07
9.04752e-06
1.46289e-07
9.05191e-06
1.54929e-07
9.06112e-06
1.64001e-07
9.07121e-06
1.69422e-07
1.66486e-07
9.07919e-06
9.55864e-06
8.10167e-08
9.53921e-06
-1.35276e-07
9.55048e-06
-1.32476e-08
9.52601e-06
-1.97314e-08
9.54114e-06
1.30219e-07
9.56682e-06
2.23602e-07
9.55841e-06
4.92008e-08
9.5573e-06
-1.14033e-08
9.54467e-06
-5.39606e-08
9.51738e-06
-1.47994e-07
9.50589e-06
-1.02175e-07
9.49458e-06
-1.53135e-08
9.47771e-06
7.45394e-09
9.47407e-06
4.33452e-08
9.48082e-06
1.06751e-07
9.48506e-06
1.42043e-07
9.48926e-06
1.50736e-07
9.4973e-06
1.55961e-07
9.50706e-06
1.5966e-07
1.58252e-07
9.51529e-06
1.00157e-05
7.54527e-08
9.99613e-06
-1.15709e-07
1.00054e-05
-2.25187e-08
9.98654e-06
-8.66495e-10
9.99638e-06
1.20377e-07
1.00204e-05
1.99597e-07
1.00137e-05
5.58385e-08
1.00101e-05
-7.80392e-09
9.9985e-06
-4.23176e-08
9.97255e-06
-1.22037e-07
9.95993e-06
-8.95559e-08
9.95119e-06
-6.57852e-09
9.93675e-06
2.19007e-08
9.93176e-06
4.83305e-08
9.93771e-06
1.00805e-07
9.94325e-06
1.36501e-07
9.94765e-06
1.46332e-07
9.95468e-06
1.48937e-07
9.96392e-06
1.50416e-07
1.4999e-07
9.97218e-06
1.04944e-05
6.97127e-08
1.04755e-05
-9.6795e-08
1.0482e-05
-2.90034e-08
1.04686e-05
1.25295e-08
1.04746e-05
1.14302e-07
1.04957e-05
1.78546e-07
1.04907e-05
6.07859e-08
1.04853e-05
-2.3568e-09
1.04743e-05
-3.13575e-08
1.04499e-05
-9.76287e-08
1.04365e-05
-7.61672e-08
1.04295e-05
4.30822e-10
1.04178e-05
3.36291e-08
1.0412e-05
5.4087e-08
1.04168e-05
9.6009e-08
1.04231e-05
1.30258e-07
1.04281e-05
1.4132e-07
1.04343e-05
1.42734e-07
1.04427e-05
1.41983e-07
1.41663e-07
1.0451e-05
1.09957e-05
6.39876e-08
1.09781e-05
-7.91376e-08
1.09815e-05
-3.23827e-08
1.09727e-05
2.13059e-08
1.09768e-05
1.10167e-07
1.09944e-05
1.60982e-07
1.09908e-05
6.43359e-08
1.09841e-05
4.42828e-09
1.09734e-05
-2.06613e-08
1.09508e-05
-7.50791e-08
1.09367e-05
-6.20938e-08
1.09308e-05
6.33314e-09
1.09216e-05
4.28293e-08
1.09158e-05
5.99259e-08
1.09193e-05
9.24623e-08
1.09258e-05
1.23846e-07
1.09314e-05
1.3569e-07
1.09371e-05
1.36984e-07
1.09447e-05
1.34412e-07
1.33426e-07
1.09529e-05
1.15209e-05
5.84494e-08
1.15049e-05
-6.31355e-08
1.15053e-05
-3.28295e-08
1.14999e-05
2.67743e-08
1.15036e-05
1.0643e-07
1.15179e-05
1.46719e-07
1.1515e-05
6.71879e-08
1.15074e-05
1.20566e-08
1.14969e-05
-1.02046e-08
1.14763e-05
-5.44395e-08
1.14617e-05
-4.74686e-08
1.14563e-05
1.17063e-08
1.14493e-05
4.9855e-08
1.14439e-05
6.53356e-08
1.14464e-05
8.99255e-08
1.14526e-05
1.17698e-07
1.14587e-05
1.29592e-07
1.14643e-05
1.3134e-07
1.14711e-05
1.2761e-07
1.25645e-07
1.14789e-05
1.2071e-05
5.32315e-08
1.20569e-05
-4.89975e-08
1.20549e-05
-3.08283e-08
1.20515e-05
3.01886e-08
1.20556e-05
1.02323e-07
1.20674e-05
1.34959e-07
1.20645e-05
7.00723e-08
1.20562e-05
2.03051e-08
1.2046e-05
-1.19521e-11
1.20273e-05
-3.57406e-08
1.20126e-05
-3.27242e-08
1.20071e-05
1.7174e-08
1.2002e-05
5.50039e-08
1.19972e-05
7.00763e-08
1.19991e-05
8.80987e-08
1.20048e-05
1.11977e-07
1.2011e-05
1.23334e-07
1.20168e-05
1.25558e-07
1.2023e-05
1.21384e-07
1.18476e-07
1.20302e-05
1.26474e-05
4.84143e-08
1.26351e-05
-3.67367e-08
1.26314e-05
-2.70597e-08
1.26289e-05
3.26385e-08
1.26336e-05
9.7604e-08
1.26438e-05
1.24822e-07
1.26405e-05
7.33403e-08
1.26316e-05
2.92543e-08
1.26216e-05
9.96322e-09
1.26049e-05
-1.90329e-08
1.25906e-05
-1.8441e-08
1.25847e-05
2.30717e-08
1.25809e-05
5.8789e-08
1.25771e-05
7.39302e-08
1.25783e-05
8.68951e-08
1.25837e-05
1.06546e-07
1.25898e-05
1.17198e-07
1.25958e-05
1.19629e-07
1.26017e-05
1.15457e-07
1.1194e-07
1.26082e-05
1.32513e-05
4.40238e-08
1.32408e-05
-2.62022e-08
1.3236e-05
-2.22931e-08
1.32337e-05
3.49626e-08
1.32388e-05
9.24928e-08
1.32481e-05
1.15571e-07
1.32444e-05
7.6979e-08
1.32346e-05
3.90591e-08
1.32248e-05
1.98081e-08
1.32101e-05
-4.31941e-09
1.31967e-05
-5.09707e-09
1.31905e-05
2.92705e-08
1.31875e-05
6.17976e-08
1.31846e-05
7.68096e-08
1.31854e-05
8.61384e-08
1.31904e-05
1.01545e-07
1.31966e-05
1.11023e-07
1.32024e-05
1.1384e-07
1.32083e-05
1.09526e-07
1.05977e-07
1.32142e-05
1.38842e-05
4.00265e-08
1.38751e-05
-1.71853e-08
1.387e-05
-1.7131e-08
1.38674e-05
3.75099e-08
1.38723e-05
8.7608e-08
1.38808e-05
1.0705e-07
1.38771e-05
8.06696e-08
1.38667e-05
4.94965e-08
1.38568e-05
2.97019e-08
1.3844e-05
8.47002e-09
1.3832e-05
6.91286e-09
1.38258e-05
3.55172e-08
1.38233e-05
6.42871e-08
1.38211e-05
7.90153e-08
1.38218e-05
8.54399e-08
1.38261e-05
9.7177e-08
1.38324e-05
1.04807e-07
1.3838e-05
1.0817e-07
1.38439e-05
1.03665e-07
1.00248e-07
1.38496e-05
1.45473e-05
3.63775e-08
1.45391e-05
-9.01907e-09
1.45343e-05
-1.22931e-08
1.45319e-05
3.99486e-08
1.45354e-05
8.4127e-08
1.45425e-05
9.98765e-08
1.45394e-05
8.37625e-08
1.45293e-05
5.96739e-08
1.45193e-05
3.96224e-08
1.45081e-05
1.97263e-08
1.44977e-05
1.72986e-08
1.44918e-05
4.14097e-08
1.44896e-05
6.64724e-08
1.4488e-05
8.06136e-08
1.44887e-05
8.47375e-08
1.44925e-05
9.34025e-08
1.44985e-05
9.87921e-08
1.45043e-05
1.02389e-07
1.45099e-05
9.80221e-08
9.46082e-08
1.45156e-05
1.52422e-05
3.30906e-08
1.52345e-05
-1.33407e-09
1.52314e-05
-9.19233e-09
1.52283e-05
4.30722e-08
1.52286e-05
8.37906e-08
1.5234e-05
9.44705e-08
1.52328e-05
8.49935e-08
1.52238e-05
6.86527e-08
1.5214e-05
4.94011e-08
1.52037e-05
3.00871e-08
1.51949e-05
2.6066e-08
1.51898e-05
4.64924e-08
1.5188e-05
6.82855e-08
1.51869e-05
8.17057e-08
1.51876e-05
8.40198e-08
1.51909e-05
9.00747e-08
1.51966e-05
9.31511e-08
1.52025e-05
9.64794e-08
1.52079e-05
9.25839e-08
8.90389e-08
1.52135e-05
1.59708e-05
2.96622e-08
1.59695e-05
-6.97148e-11
1.59642e-05
-3.92096e-09
1.59559e-05
5.14334e-08
1.59538e-05
8.58064e-08
1.59585e-05
8.98319e-08
1.59595e-05
8.39929e-08
1.59521e-05
7.59931e-08
1.59425e-05
5.90081e-08
1.59327e-05
3.99641e-08
1.59251e-05
3.36289e-08
1.59211e-05
5.05105e-08
1.59199e-05
6.94629e-08
1.59193e-05
8.23082e-08
1.592e-05
8.32991e-08
1.5923e-05
8.71226e-08
1.59281e-05
8.80245e-08
1.5934e-05
9.05512e-08
1.59394e-05
8.71803e-08
8.3675e-08
1.59448e-05
1.6733e-05
2.72444e-08
1.67209e-05
1.20327e-08
1.67156e-05
1.39561e-09
1.67152e-05
5.1876e-08
1.67147e-05
8.62325e-08
1.67183e-05
8.63115e-08
1.67209e-05
8.13263e-08
1.67157e-05
8.12423e-08
1.67064e-05
6.8237e-08
1.66969e-05
4.95451e-08
1.669e-05
4.05199e-08
1.66869e-05
5.35815e-08
1.66866e-05
6.97138e-08
1.66867e-05
8.22267e-08
1.66876e-05
8.24253e-08
1.66902e-05
8.44896e-08
1.66948e-05
8.34493e-08
1.67006e-05
8.47966e-08
1.67061e-05
8.16621e-08
7.85795e-08
1.67112e-05
1.7533e-05
2.45887e-08
1.75265e-05
1.85108e-08
1.75184e-05
9.56059e-09
1.75145e-05
5.57803e-08
1.7513e-05
8.76577e-08
1.75147e-05
8.46606e-08
1.75183e-05
7.76824e-08
1.75157e-05
8.38341e-08
1.75076e-05
7.64089e-08
1.74982e-05
5.89663e-08
1.74916e-05
4.70828e-08
1.74891e-05
5.60931e-08
1.74897e-05
6.90606e-08
1.74907e-05
8.12765e-08
1.74918e-05
8.12702e-08
1.74943e-05
8.20342e-08
1.74984e-05
7.93577e-08
1.75037e-05
7.95152e-08
1.75093e-05
7.59859e-08
7.37111e-08
1.75142e-05
1.83704e-05
2.25725e-08
1.83623e-05
2.65969e-08
1.83551e-05
1.6734e-08
1.8353e-05
5.78823e-08
1.83514e-05
8.92586e-08
1.83506e-05
8.5453e-08
1.83535e-05
7.47473e-08
1.83535e-05
8.38805e-08
1.83473e-05
8.26375e-08
1.83382e-05
6.80011e-08
1.83318e-05
5.35452e-08
1.83295e-05
5.83893e-08
1.83307e-05
6.78092e-08
1.83326e-05
7.93725e-08
1.83344e-05
7.94949e-08
1.83369e-05
7.95865e-08
1.83406e-05
7.56176e-08
1.83453e-05
7.47715e-08
1.83509e-05
7.0426e-08
6.8718e-08
1.83559e-05
1.92483e-05
2.07068e-08
1.92415e-05
3.3309e-08
1.92335e-05
2.48159e-08
1.92317e-05
5.96644e-08
1.92307e-05
9.02783e-08
1.92279e-05