/*--------------------------------*- C++ -*----------------------------------*\
| =========                 |                                                 |
| \\      /  F ield         | OpenFOAM: The Open Source CFD Toolbox           |
|  \\    /   O peration     | Version:  v1906                                 |
|   \\  /    A nd           | Web:      www.OpenFOAM.com                      |
|    \\/     M anipulation  |                                                 |
\*---------------------------------------------------------------------------*/
FoamFile
{
    version     2.0;
    format      ascii;
    class       volScalarField;
    location    "10.4";
    object      p;
}
// * * * * * * * * * * * * * * * * * * * * * * * * * * * * * * * * * * * * * //

dimensions      [0 2 -2 0 0 0 0];


internalField   nonuniform List<scalar> 
9600
(
6.55081e-10
0.00287591
0.00808362
0.00232579
1.64931e-05
0.00673683
0.00764592
0.00702316
0.0112606
0.0129006
0.0115563
0.0138355
0.0146352
0.0161995
0.016473
0.0171647
0.0180243
0.0200716
0.0223354
0.025921
3.23655e-06
0.00286536
0.00808343
0.00234941
2.96586e-05
0.00670696
0.00762895
0.00699106
0.0112683
0.0129075
0.011559
0.0138244
0.0146323
0.0162014
0.0164786
0.0171582
0.0180364
0.0200429
0.0223496
0.0255565
4.88664e-06
0.00286218
0.00809341
0.00237221
4.39748e-05
0.00666213
0.00760771
0.00700526
0.0112819
0.0129102
0.0115619
0.0137989
0.014639
0.0162013
0.0164847
0.0171475
0.0180473
0.020006
0.0223384
0.0251352
7.41584e-06
0.00288576
0.0081019
0.00240202
7.60431e-05
0.00662683
0.00758868
0.00704843
0.0113
0.0129073
0.0115705
0.01376
0.0146503
0.0161933
0.0164881
0.0171337
0.0180541
0.019966
0.0222983
0.0247367
1.59002e-05
0.00293504
0.00809744
0.00243894
0.000138918
0.00660309
0.00756839
0.00712216
0.0113242
0.0128998
0.0115867
0.0137095
0.0146627
0.016179
0.0164904
0.0171163
0.0180605
0.0199202
0.0222366
0.0243644
3.38864e-05
0.00300173
0.00807027
0.00248442
0.000236897
0.00658626
0.00754665
0.00722961
0.0113556
0.0128898
0.0116099
0.0136524
0.0146752
0.0161619
0.0164924
0.0170959
0.0180665
0.0198678
0.0221565
0.0240089
6.31286e-05
0.00307711
0.0080168
0.00253863
0.000364829
0.00657321
0.00752624
0.00735434
0.0113949
0.0128793
0.0116395
0.0135945
0.0146878
0.0161438
0.016494
0.0170729
0.0180704
0.0198106
0.0220576
0.0236643
0.000103606
0.00315436
0.00794084
0.00260133
0.000512585
0.00656226
0.00750839
0.00748951
0.0114408
0.0128687
0.0116748
0.0135397
0.0147008
0.0161258
0.0164951
0.0170476
0.0180706
0.0197501
0.021938
0.0233286
0.000153786
0.00323008
0.00785093
0.00267192
0.000671074
0.00655166
0.00749146
0.00762992
0.0114904
0.0128577
0.0117147
0.0134898
0.0147145
0.0161086
0.016495
0.0170205
0.0180661
0.0196866
0.0217978
0.0230019
0.000211526
0.00330391
0.00775618
0.00274958
0.000835923
0.00654012
0.00747286
0.00776838
0.0115397
0.0128449
0.0117581
0.0134455
0.0147294
0.0160925
0.0164929
0.0169926
0.0180551
0.0196199
0.0216397
0.0226844
0.000274979
0.00337697
0.00766266
0.00283305
0.0010071
0.00652783
0.00745122
0.00789922
0.0115851
0.0128295
0.0118034
0.0134064
0.0147449
0.0160778
0.0164882
0.0169644
0.0180367
0.0195503
0.021468
0.0223757
0.00034299
0.00345046
0.00757315
0.00292058
0.00118624
0.00651627
0.00742707
0.0080192
0.0116243
0.0128109
0.0118491
0.0133718
0.0147607
0.016065
0.0164807
0.0169362
0.0180108
0.0194782
0.0212867
0.0220752
0.000415027
0.0035249
0.00748807
0.00301038
0.0013744
0.00650748
0.00740224
0.00812746
0.011657
0.0127893
0.0118938
0.0133411
0.0147759
0.0160547
0.0164702
0.0169082
0.017978
0.019403
0.0210996
0.0217834
0.00049091
0.00360022
0.00740662
0.00310117
0.00157135
0.0065032
0.00737881
0.008225
0.0116841
0.0127652
0.0119364
0.0133139
0.0147898
0.0160472
0.0164566
0.0168801
0.0179395
0.0193237
0.0209094
0.0215008
0.000570575
0.0036761
0.00732795
0.00319245
0.00177576
0.00650399
0.0073583
0.00831369
0.0117075
0.0127397
0.0119763
0.01329
0.0148019
0.0160425
0.0164402
0.0168509
0.0178962
0.019239
0.0207179
0.0212275
0.000653978
0.00375235
0.00725162
0.00328424
0.00198597
0.0065019
0.00734138
0.00839544
0.0117289
0.0127139
0.0120127
0.0132695
0.0148116
0.0160403
0.0164211
0.0168192
0.0178486
0.0191482
0.0205252
0.0209629
0.000741089
0.0038289
0.00717768
0.00337672
0.00220042
0.00651196
0.00732823
0.00847194
0.0117498
0.0126888
0.0120454
0.0132523
0.0148188
0.0160398
0.0163999
0.0167834
0.0177969
0.0190505
0.0203305
0.020706
0.000831909
0.00390569
0.00710648
0.00347014
0.00241767
0.00652574
0.00731885
0.00854445
0.0117712
0.0126655
0.012074
0.0132384
0.0148233
0.0160402
0.0163772
0.0167423
0.0177406
0.0189466
0.0201332
0.0204557
0.000926478
0.00398266
0.0070385
0.00356481
0.00263663
0.00654283
0.00731304
0.00861382
0.0117936
0.0126446
0.0120982
0.0132276
0.0148255
0.0160402
0.0163537
0.0166955
0.017679
0.0188375
0.0199334
0.0202109
0.00102486
0.00405976
0.00697427
0.00366099
0.00285644
0.00656323
0.00731075
0.00868069
0.0118173
0.0126269
0.0121182
0.0132193
0.0148258
0.016039
0.0163295
0.0166427
0.0176114
0.0187245
0.0197313
0.0199709
0.00112716
0.0041369
0.00691434
0.00375898
0.0030764
0.00658718
0.00731203
0.0087455
0.011842
0.0126128
0.0121338
0.0132132
0.0148252
0.0160357
0.0163045
0.016584
0.0175373
0.0186082
0.0195271
0.0197355
0.00123352
0.00421391
0.00685919
0.00385907
0.00329593
0.00661496
0.0073169
0.00880862
0.0118677
0.0126027
0.0121453
0.0132083
0.0148248
0.0160302
0.0162784
0.0165196
0.0174563
0.0184899
0.0193212
0.0195036
0.00134412
0.00429066
0.00680928
0.00396157
0.00351445
0.00664687
0.00732544
0.00887037
0.011894
0.0125968
0.0121533
0.0132038
0.0148253
0.016022
0.016251
0.0164499
0.0173674
0.0183706
0.0191145
0.0192723
0.00145914
0.00436698
0.00676501
0.00406684
0.00373139
0.00668313
0.00733774
0.008931
0.0119209
0.0125949
0.0121583
0.0131994
0.0148286
0.0160107
0.0162219
0.0163758
0.0172699
0.0182511
0.01891
0.0190375
0.00157879
0.00444274
0.00672665
0.00417523
0.00394628
0.00672396
0.00735385
0.00899069
0.0119485
0.0125969
0.0121609
0.0131943
0.0148306
0.0159964
0.0161905
0.0162977
0.0171632
0.0181312
0.0187123
0.0187977
0.00170327
0.00451787
0.00669436
0.00428711
0.00415864
0.00676953
0.00737391
0.00904938
0.0119766
0.0126026
0.0121615
0.0131881
0.014833
0.0159792
0.0161565
0.0162166
0.0170465
0.0180088
0.018526
0.018557
0.00183281
0.00459232
0.00666819
0.00440283
0.0043681
0.00681995
0.00739813
0.00910693
0.0120053
0.0126122
0.0121607
0.0131801
0.0148357
0.015959
0.0161189
0.0161342
0.0169205
0.0178793
0.0183514
0.0183243
0.00196761
0.00466611
0.00664812
0.00452276
0.00457441
0.00687523
0.00742677
0.0091633
0.0120345
0.0126258
0.012159
0.0131695
0.0148391
0.0159363
0.0160759
0.0160518
0.0167892
0.01774
0.0181828
0.0181056
0.00210782
0.00473937
0.00663401
0.00464724
0.00477748
0.00693534
0.00746014
0.00921852
0.012064
0.0126433
0.0121568
0.0131554
0.0148428
0.0159126
0.0160266
0.0159682
0.0166562
0.0175933
0.0180145
0.0178997
0.00225358
0.00481233
0.00662572
0.00477646
0.00497728
0.00700022
0.00749871
0.00927261
0.0120935
0.0126644
0.0121546
0.0131373
0.0148462
0.015889
0.0159715
0.0158819
0.0165219
0.0174434
0.017846
0.0177011
0.00240494
0.00488534
0.00662313
0.00491053
0.00517393
0.00706954
0.00754287
0.0093257
0.0121227
0.0126891
0.0121531
0.0131148
0.0148477
0.0158656
0.0159114
0.0157926
0.0163855
0.0172912
0.0176814
0.0175075
0.00256187
0.00495883
0.0066261
0.00504945
0.00536774
0.00714284
0.00759285
0.00937792
0.012151
0.0127176
0.0121532
0.0130879
0.0148455
0.0158428
0.0158468
0.0157009
0.0162482
0.0171349
0.0175215
0.0173219
0.00272433
0.00503339
0.00663442
0.00519298
0.00555937
0.0072198
0.00764861
0.00943022
0.012178
0.0127492
0.0121554
0.0130561
0.0148391
0.015821
0.0157784
0.0156068
0.0161138
0.0169743
0.0173623
0.0171478
0.00289227
0.00510961
0.00664801
0.00534065
0.00574938
0.0073004
0.00771035
0.00948302
0.0122041
0.0127833
0.0121599
0.0130196
0.0148282
0.0158003
0.0157064
0.0155089
0.015985
0.0168141
0.0171997
0.0169835
0.00306557
0.00518805
0.00666713
0.00549203
0.00593799
0.00738458
0.00777634
0.00953656
0.0122296
0.0128194
0.0121663
0.0129785
0.0148105
0.0157804
0.0156315
0.015405
0.0158616
0.0166609
0.0170337
0.0168234
0.00324414
0.00526918
0.00669212
0.00564661
0.00612551
0.00747248
0.00784685
0.00959119
0.0122549
0.0128574
0.0121745
0.0129325
0.014782
0.0157613
0.0155547
0.015294
0.0157409
0.0165189
0.0168692
0.0166621
0.00342788
0.0053534
0.00672348
0.0058038
0.00631198
0.00756481
0.00792101
0.00964657
0.0122803
0.0128977
0.0121847
0.0128813
0.0147445
0.0157439
0.0154781
0.0151752
0.0156202
0.0163895
0.0167129
0.0164969
0.00361678
0.00544098
0.00676192
0.00596341
0.00649688
0.00766238
0.00799853
0.00970188
0.0123061
0.012941
0.0121977
0.0128241
0.0146991
0.0157288
0.0154048
0.0150477
0.0154956
0.0162727
0.0165719
0.0163297
0.00381086
0.00553186
0.00680825
0.00612577
0.00667957
0.00776592
0.00807975
0.00975603
0.0123316
0.0129879
0.0122143
0.0127606
0.0146442
0.0157167
0.0153398
0.0149115
0.0153613
0.0161664
0.0164544
0.0161686
0.00401012
0.00562587
0.00686311
0.00629139
0.00685906
0.00787605
0.00816555
0.00980832
0.0123557
0.0130385
0.0122366
0.0126913
0.0145757
0.0157061
0.0152885
0.014771
0.0152105
0.0160627
0.0163657
0.0160291
0.00421472
0.00572291
0.00692648
0.00646126
0.00703434
0.00799258
0.00825747
0.00985841
0.0123766
0.0130925
0.0122673
0.0126183
0.0144982
0.0156917
0.0152559
0.0146353
0.0150399
0.0159494
0.0163019
0.0159286
0.00442481
0.00582302
0.00699802
0.00663689
0.00720508
0.00811446
0.00835696
0.00990615
0.0123926
0.0131489
0.0123085
0.0125451
0.0144059
0.0156669
0.0152439
0.014514
0.0148527
0.0158157
0.0162499
0.0158755
0.00464043
0.00592657
0.00707678
0.00681968
0.00737194
0.00823953
0.00846566
0.00995269
0.0124018
0.0132055
0.0123611
0.0124753
0.0142745
0.0156245
0.0152496
0.0144164
0.014656
0.0156574
0.0161955
0.0158632
0.00486169
0.00603439
0.00716091
0.00701058
0.00753682
0.00836465
0.00858451
0.0100006
0.0124022
0.0132592
0.0124253
0.012414
0.0141259
0.0155587
0.0152676
0.0143504
0.0144579
0.0154726
0.0161294
0.0158762
0.0050886
0.00614757
0.00724819
0.00720959
0.00770284
0.00848692
0.00871266
0.0100529
0.0123928
0.0133067
0.0125007
0.0123658
0.0139656
0.015466
0.0152897
0.0143216
0.0142706
0.0152599
0.0160457
0.0159018
0.00532088
0.00626758
0.00733661
0.0074157
0.00787405
0.00860489
0.00884779
0.0101119
0.0123747
0.0133443
0.0125848
0.012335
0.013801
0.0153473
0.0153056
0.0143268
0.0141102
0.0150231
0.0159344
0.0159318
0.00555804
0.00639613
0.00742494
0.00762657
0.00805459
0.00871876
0.00898575
0.0101796
0.0123505
0.0133687
0.0126736
0.0123247
0.0136398
0.0152068
0.0153066
0.0143558
0.0139891
0.0147772
0.0157844
0.0159566
0.00579957
0.00653472
0.0075127
0.00783847
0.00824796
0.00882994
0.00912089
0.0102574
0.0123257
0.0133786
0.0127622
0.0123355
0.0134886
0.0150487
0.0152907
0.014398
0.0139079
0.0145415
0.015593
0.0159607
0.00604471
0.00668468
0.0076006
0.00804667
0.00845562
0.008942
0.00924738
0.0103441
0.0123078
0.0133758
0.0128449
0.012365
0.0133521
0.0148789
0.0152589
0.014448
0.0138616
0.0143295
0.0153684
0.0159262
0.00629251
0.00684728
0.00769048
0.00824616
0.00867649
0.00906131
0.00936175
0.010435
0.0123021
0.0133656
0.0129182
0.0124085
0.0132338
0.0147028
0.0152106
0.0145047
0.0138469
0.0141482
0.0151256
0.0158412
0.00654195
0.0070235
0.00778489
0.00843268
0.00890769
0.00919511
0.00946404
0.0105216
0.0123093
0.0133572
0.0129829
0.0124607
0.0131354
0.0145252
0.0151442
0.0145621
0.0138619
0.0140033
0.0148816
0.0157059
0.00679183
0.00721378
0.00788756
0.00860332
0.00914403
0.0093492
0.00955745
0.010594
0.0123254
0.0133586
0.013044
0.0125178
0.0130554
0.0143516
0.015061
0.0146135
0.0139014
0.0138991
0.0146534
0.0155313
0.00704129
0.00741766
0.0080024
0.00875641
0.0093785
0.00952746
0.00965014
0.010647
0.0123413
0.0133732
0.0131095
0.0125799
0.0129914
0.0141849
0.0149633
0.0146568
0.0139594
0.0138347
0.0144542
0.0153349
0.0072896
0.00763488
0.00813351
0.00889203
0.00960071
0.0097284
0.00975441
0.0106811
0.0123454
0.0133999
0.0131877
0.0126504
0.0129429
0.0140246
0.014851
0.0146905
0.0140329
0.0138058
0.0142904
0.0151354
0.00753668
0.00786266
0.00828428
0.00901541
0.00980358
0.0099469
0.00987874
0.0106993
0.0123274
0.0134335
0.013285
0.0127351
0.0129122
0.0138716
0.0147227
0.0147091
0.014119
0.0138107
0.0141639
0.0149477
0.00778257
0.00809869
0.00845259
0.00913139
0.00998522
0.0101792
0.0100321
0.0107096
0.0122798
0.0134594
0.0134016
0.0128402
0.0129005
0.0137257
0.0145806
0.0147048
0.0142102
0.0138487
0.0140756
0.0147806
0.00802833
0.00833551
0.00864043
0.009242
0.010137
0.0104125
0.0102227
0.0107359
0.0122066
0.0134612
0.0135303
0.0129712
0.0129128
0.0136034
0.0144333
0.0146745
0.0142962
0.0139163
0.0140277
0.0146392
0.00827676
0.00859058
0.00884873
0.00934899
0.0102436
0.0106241
0.0104467
0.0108026
0.0121255
0.0134297
0.0136551
0.0131291
0.012957
0.0135029
0.0142859
0.0146214
0.0143671
0.0140042
0.0140218
0.0145289
0.00852535
0.00882819
0.00907077
0.00947042
0.0103338
0.010817
0.0106939
0.0109112
0.01205
0.0133596
0.0137539
0.0133064
0.0130386
0.0134325
0.0141433
0.0145484
0.0144179
0.0141007
0.0140555
0.0144584
0.00877371
0.00907224
0.0093001
0.00961079
0.0104131
0.0109819
0.0109427
0.011057
0.011999
0.0132615
0.0138142
0.013489
0.0131578
0.0134017
0.0140129
0.0144573
0.0144451
0.0141937
0.0141195
0.0144345
0.00902082
0.00930801
0.00953705
0.00977429
0.0104878
0.0111142
0.0111789
0.0112359
0.0119891
0.0131573
0.0138324
0.0136606
0.0133083
0.0134142
0.0139082
0.0143567
0.0144469
0.0142755
0.0141993
0.014452
0.00926462
0.00953574
0.00977398
0.00996099
0.0105751
0.0112224
0.0113932
0.0114353
0.0120221
0.013063
0.013811
0.0138036
0.0134786
0.0134684
0.0138421
0.0142593
0.0144256
0.0143423
0.0142835
0.0144976
0.00950616
0.00975189
0.0100091
0.0101663
0.0106749
0.0113131
0.0115842
0.0116434
0.0120958
0.0129951
0.013765
0.0139095
0.0136548
0.0135613
0.0138149
0.01418
0.0143904
0.0143909
0.0143654
0.0145578
0.00975038
0.00998146
0.0102306
0.0103659
0.0107845
0.0113958
0.0117518
0.0118517
0.0122058
0.0129639
0.0137124
0.0139781
0.0138207
0.0136868
0.0138287
0.0141286
0.0143532
0.0144228
0.0144426
0.014626
0.00999204
0.010198
0.0104417
0.0105678
0.0109126
0.0114803
0.0118978
0.0120507
0.0123417
0.0129714
0.0136678
0.0140167
0.0139646
0.0138319
0.0138822
0.014112
0.0143254
0.0144417
0.0145128
0.0147019
0.0102263
0.01041
0.0106455
0.0107751
0.0110594
0.0115668
0.0120197
0.0122318
0.0124928
0.0130158
0.0136439
0.0140398
0.0140857
0.0139859
0.0139939
0.0141389
0.0143189
0.0144565
0.0145734
0.0147815
0.0104535
0.0106142
0.0108435
0.010978
0.0112151
0.011661
0.0121282
0.0123957
0.0126513
0.0130925
0.0136474
0.0140601
0.0141878
0.0141363
0.0141222
0.0142038
0.0143438
0.014481
0.0146276
0.0148598
0.0106747
0.0108209
0.0110309
0.0111654
0.0113726
0.0117647
0.0122292
0.0125425
0.0128108
0.0131952
0.0136812
0.0140885
0.0142758
0.0142772
0.0142503
0.0142991
0.0144038
0.0145269
0.0146835
0.0149347
0.0108846
0.0110177
0.0112117
0.0113465
0.0115345
0.0118786
0.0123248
0.0126712
0.0129629
0.0133142
0.0137441
0.0141367
0.0143612
0.0144121
0.0143901
0.0144013
0.0144897
0.0145985
0.0147508
0.0150104
0.0110812
0.0111982
0.0113837
0.0115205
0.0116964
0.0119999
0.0124206
0.0127884
0.0131068
0.0134408
0.0138276
0.0142038
0.0144567
0.0145563
0.014565
0.0145682
0.0146308
0.0147177
0.014855
0.015107
0.0112674
0.0113813
0.0115453
0.0116729
0.0118445
0.0121228
0.0125167
0.0128952
0.0132451
0.0135799
0.0139344
0.0142846
0.0145462
0.0146764
0.0147216
0.0147237
0.0147412
0.0148236
0.0149637
0.015209
0.0114372
0.0115453
0.0116941
0.0118122
0.0119834
0.0122506
0.0126212
0.0129907
0.0133581
0.0137165
0.0140823
0.014442
0.0147198
0.0148882
0.014957
0.0149867
0.0149962
0.0150383
0.0151279
0.0153338
0.0115858
0.0116915
0.0118367
0.0119439
0.0121051
0.0123611
0.0127254
0.0130917
0.0134458
0.0137817
0.0141431
0.0145056
0.0148054
0.0150425
0.0151667
0.0152642
0.0153079
0.0153536
0.0154529
0.0156569
0.011717
0.0118271
0.0119706
0.0120664
0.012223
0.012461
0.0128089
0.0132074
0.0136112
0.0140002
0.0143939
0.014776
0.0151351
0.0153603
0.0155163
0.0156343
0.0157041
0.0157379
0.015777
0.0158741
0.0118164
0.0119065
0.0120348
0.0121542
0.0123438
0.0125889
0.0128829
0.0131393
0.0134286
0.0137832
0.0142471
0.0147823
0.0152615
0.0156311
0.015928
0.0161966
0.0165272
0.0169106
0.0173292
0.0177036
0.0119403
0.012038
0.0121584
0.0122147
0.0123835
0.0126767
0.0130747
0.0134944
0.0138978
0.0142576
0.0146261
0.0150073
0.0153583
0.0156917
0.0159954
0.0162823
0.0166127
0.0169519
0.0172793
0.0175267
0.0118603
0.0119494
0.0121877
0.0124262
0.0126796
0.0129422
0.0132465
0.0135473
0.0138468
0.0141632
0.0145174
0.0149115
0.0153109
0.0157346
0.0162037
0.0166928
0.0171865
0.0176558
0.0180561
0.0183488
0.0120986
0.0122329
0.0124264
0.0125503
0.0127483
0.0130079
0.0133349
0.0136843
0.014069
0.0144758
0.014868
0.0152491
0.0155914
0.0158459
0.0160465
0.0161506
0.0161829
0.0161728
0.0161359
0.0161159
0.011956
0.0120713
0.012366
0.0126619
0.0129336
0.0131868
0.0134791
0.0137793
0.0140722
0.0143898
0.0147391
0.0151057
0.015513
0.015922
0.016353
0.0168153
0.0172641
0.0176852
0.0180599
0.0183096
0.0121068
0.0122466
0.012569
0.0128228
0.0130691
0.0132951
0.0135679
0.0138663
0.0141793
0.0145392
0.0149358
0.0153002
0.0156527
0.0159742
0.0162612
0.0165435
0.0168449
0.0171698
0.0174573
0.0176356
0.0292027
0.0240156
0.0162399
0.0107581
0.00979401
0.0113681
0.0130567
0.0141689
0.0148698
0.0154159
0.0159411
0.0165081
0.0171036
0.0176025
0.0179689
0.0183572
0.0188298
0.0192654
0.0196053
0.0199551
0.0204279
0.0209877
0.0214985
0.02191
0.0223208
0.022845
0.0234421
0.0239695
0.0244099
0.0249083
0.02549
0.0260274
0.0265085
0.0270105
0.0275513
0.0281283
0.0287707
0.0294579
0.0301224
0.030755
0.0313969
0.0320493
0.0326903
0.0333039
0.0338899
0.0344953
0.035153
0.0358451
0.0365229
0.0372177
0.0379647
0.038736
0.0394738
0.0402235
0.0410458
0.0418921
0.0427271
0.0435624
0.0443764
0.0451523
0.0459526
0.0468192
0.0477723
0.0487395
0.0497044
0.0506876
0.0516661
0.0526081
0.0535953
0.0546063
0.0556303
0.0566912
0.0577871
0.0588811
0.0599815
0.0611188
0.0622832
0.0634889
0.0646974
0.0659517
0.0671993
0.068498
0.0698329
0.0711872
0.0725603
0.0739543
0.0754019
0.0768732
0.0783628
0.0798631
0.0813379
0.0829058
0.0844747
0.0860807
0.0876949
0.0893046
0.0909045
0.0924252
0.0938666
0.0951612
0.0285012
0.0238692
0.0163269
0.010903
0.00988169
0.0114105
0.0130829
0.0141873
0.0148834
0.0154265
0.0159495
0.0165151
0.01711
0.0176083
0.0179739
0.0183614
0.0188337
0.019269
0.0196085
0.0199577
0.0204302
0.0209899
0.0215007
0.021912
0.0223224
0.0228464
0.0234434
0.0239709
0.0244111
0.0249093
0.025491
0.0260284
0.0265094
0.0270113
0.0275521
0.028129
0.0287714
0.0294586
0.0301231
0.0307557
0.0313975
0.03205
0.0326909
0.0333045
0.0338905
0.0344959
0.0351536
0.0358456
0.0365234
0.0372182
0.0379652
0.0387365
0.0394743
0.0402239
0.0410462
0.0418925
0.0427275
0.0435627
0.0443768
0.0451527
0.0459529
0.0468195
0.0477725
0.0487397
0.0497047
0.0506879
0.0516663
0.0526083
0.0535955
0.0546065
0.0556304
0.0566914
0.0577873
0.0588813
0.0599816
0.061119
0.0622834
0.0634891
0.0646976
0.0659518
0.0671994
0.0684981
0.069833
0.0711874
0.0725604
0.0739544
0.075402
0.0768733
0.0783629
0.0798632
0.081338
0.0829059
0.0844748
0.0860808
0.087695
0.0893047
0.0909046
0.0924252
0.0938666
0.0951612
0.0278305
0.0237263
0.0165064
0.0111699
0.0100318
0.011466
0.0131092
0.0142068
0.0148996
0.01544
0.0159604
0.0165235
0.0171167
0.0176143
0.0179791
0.0183659
0.0188376
0.0192725
0.0196116
0.0199603
0.0204325
0.0209921
0.0215028
0.0219138
0.022324
0.0228478
0.0234448
0.0239722
0.0244121
0.0249102
0.0254919
0.0260293
0.0265102
0.027012
0.0275528
0.0281296
0.028772
0.0294592
0.0301238
0.0307563
0.0313981
0.0320505
0.0326915
0.0333051
0.0338911
0.0344963
0.035154
0.0358461
0.0365239
0.0372186
0.0379656
0.0387369
0.0394746
0.0402242
0.0410465
0.0418928
0.0427278
0.0435631
0.0443771
0.045153
0.0459531
0.0468197
0.0477728
0.04874
0.0497049
0.0506881
0.0516665
0.0526085
0.0535957
0.0546067
0.0556306
0.0566915
0.0577875
0.0588814
0.0599818
0.0611191
0.0622835
0.0634892
0.0646977
0.065952
0.0671995
0.0684982
0.0698331
0.0711875
0.0725605
0.0739545
0.0754021
0.0768734
0.078363
0.0798633
0.0813381
0.082906
0.0844749
0.0860809
0.087695
0.0893047
0.0909047
0.0924253
0.0938667
0.0951613
0.0271999
0.0235853
0.0167353
0.0115086
0.0102387
0.011545
0.0131471
0.014235
0.0149234
0.0154604
0.0159769
0.0165353
0.0171249
0.017621
0.0179859
0.0183723
0.018843
0.0192769
0.0196156
0.0199641
0.0204357
0.0209947
0.0215051
0.0219161
0.0223263
0.0228498
0.0234465
0.0239737
0.0244134
0.0249113
0.025493
0.0260303
0.026511
0.0270128
0.0275534
0.0281302
0.0287726
0.0294599
0.0301245
0.0307569
0.0313987
0.0320512
0.0326921
0.0333057
0.0338916
0.0344968
0.0351545
0.0358466
0.0365243
0.037219
0.037966
0.0387373
0.039475
0.0402245
0.0410468
0.0418931
0.0427282
0.0435634
0.0443775
0.0451532
0.0459533
0.0468199
0.047773
0.0487402
0.0497051
0.0506883
0.0516668
0.0526087
0.0535959
0.0546069
0.0556308
0.0566917
0.0577876
0.0588816
0.0599819
0.0611192
0.0622836
0.0634893
0.0646978
0.0659521
0.0671997
0.0684983
0.0698332
0.0711876
0.0725606
0.0739546
0.0754022
0.0768735
0.0783631
0.0798634
0.0813382
0.082906
0.084475
0.086081
0.0876951
0.0893048
0.0909048
0.0924254
0.0938669
0.0951615
0.0265758
0.0234214
0.0169733
0.0118719
0.0104712
0.0116368
0.0131911
0.01427
0.014955
0.0154887
0.0160005
0.0165523
0.0171353
0.0176289
0.0179946
0.0183815
0.0188505
0.0192829
0.0196216
0.0199703
0.0204407
0.0209979
0.0215076
0.0219192
0.0223299
0.022853
0.0234489
0.0239757
0.0244154
0.0249132
0.0254946
0.0260316
0.0265121
0.0270137
0.0275542
0.0281308
0.0287733
0.0294606
0.0301252
0.0307576
0.0313995
0.0320519
0.0326927
0.0333063
0.0338922
0.0344973
0.035155
0.0358471
0.0365248
0.0372195
0.0379664
0.0387378
0.0394755
0.0402249
0.0410472
0.0418935
0.0427285
0.0435638
0.0443779
0.0451536
0.0459535
0.0468201
0.0477733
0.0487405
0.0497054
0.0506886
0.051667
0.0526089
0.053596
0.0546071
0.0556309
0.0566918
0.0577878
0.0588818
0.0599821
0.0611194
0.0622838
0.0634895
0.064698
0.0659522
0.0671998
0.0684984
0.0698334
0.0711877
0.0725607
0.0739547
0.0754023
0.0768736
0.0783632
0.0798635
0.0813382
0.0829061
0.0844751
0.0860811
0.0876952
0.0893049
0.090905
0.0924256
0.0938671
0.0951618
0.0259492
0.0232261
0.0172063
0.0122452
0.0107194
0.0117358
0.0132362
0.0143071
0.0149911
0.0155225
0.0160297
0.0165735
0.0171479
0.0176376
0.0180049
0.0183931
0.01886
0.0192904
0.0196299
0.0199797
0.0204484
0.0210021
0.0215103
0.0219231
0.0223352
0.0228578
0.0234521
0.0239783
0.0244184
0.0249162
0.025497
0.0260333
0.0265136
0.0270149
0.0275552
0.0281316
0.028774
0.0294613
0.0301258
0.0307584
0.0314003
0.0320527
0.0326934
0.0333069
0.0338928
0.034498
0.0351556
0.0358476
0.0365253
0.03722
0.037967
0.0387383
0.039476
0.0402254
0.0410476
0.0418939
0.042729
0.0435643
0.0443784
0.0451539
0.0459538
0.0468203
0.0477736
0.0487409
0.0497057
0.0506889
0.0516674
0.0526092
0.0535963
0.0546073
0.0556311
0.056692
0.057788
0.0588819
0.0599822
0.0611195
0.0622839
0.0634896
0.0646981
0.0659523
0.0671999
0.0684985
0.0698335
0.0711878
0.0725609
0.0739548
0.0754024
0.0768738
0.0783633
0.0798636
0.0813383
0.0829062
0.0844752
0.0860812
0.0876954
0.0893051
0.0909051
0.0924258
0.0938676
0.0951622
0.025325
0.0230016
0.0174297
0.012625
0.0109826
0.0118425
0.0132819
0.0143451
0.0150303
0.0155603
0.0160626
0.0165975
0.0171619
0.0176469
0.0180161
0.0184059
0.0188705
0.0192989
0.0196401
0.019992
0.0204588
0.0210078
0.0215134
0.0219278
0.0223421
0.0228639
0.0234558
0.0239814
0.0244225
0.0249204
0.0255002
0.0260358
0.0265158
0.0270168
0.0275565
0.0281327
0.0287748
0.0294618
0.0301262
0.030759
0.0314013
0.0320537
0.0326942
0.0333076
0.0338936
0.0344989
0.0351562
0.0358481
0.036526
0.0372207
0.0379676
0.0387388
0.0394765
0.0402259
0.0410481
0.0418944
0.0427295
0.0435649
0.0443789
0.0451543
0.0459541
0.0468206
0.047774
0.0487413
0.049706
0.0506893
0.0516678
0.0526095
0.0535965
0.0546076
0.0556314
0.0566923
0.0577882
0.0588822
0.0599824
0.0611197
0.0622841
0.0634898
0.0646982
0.0659525
0.0672001
0.0684987
0.0698336
0.0711879
0.072561
0.0739549
0.0754025
0.0768739
0.0783635
0.0798638
0.0813384
0.0829063
0.0844753
0.0860813
0.0876955
0.0893052
0.0909054
0.0924262
0.0938682
0.0951627
0.0247128
0.022751
0.0176386
0.0130084
0.0112618
0.0119595
0.0133294
0.0143839
0.0150721
0.0156014
0.0160985
0.0166237
0.0171772
0.0176571
0.018028
0.0184194
0.0188815
0.019308
0.0196516
0.0200066
0.0204714
0.0210148
0.0215172
0.0219333
0.0223502
0.022871
0.02346
0.0239849
0.0244274
0.0249257
0.0255043
0.0260391
0.026519
0.0270196
0.0275586
0.0281342
0.0287759
0.0294623
0.0301264
0.0307595
0.0314022
0.0320547
0.032695
0.0333083
0.0338947
0.0345001
0.0351571
0.0358487
0.0365267
0.0372216
0.0379683
0.0387394
0.0394771
0.0402265
0.0410487
0.0418948
0.0427301
0.0435656
0.0443795
0.0451547
0.0459544
0.0468209
0.0477743
0.0487417
0.0497064
0.0506897
0.0516682
0.0526099
0.0535969
0.0546079
0.0556317
0.0566926
0.0577885
0.0588824
0.0599826
0.0611199
0.0622843
0.06349
0.0646984
0.0659527
0.0672002
0.0684988
0.0698338
0.0711881
0.0725611
0.073955
0.0754026
0.076874
0.0783636
0.0798639
0.0813385
0.0829065
0.0844755
0.0860814
0.0876957
0.0893054
0.0909057
0.0924268
0.0938691
0.0951635
0.0241209
0.0224771
0.0178276
0.0133921
0.0115574
0.0120892
0.0133796
0.0144228
0.0151158
0.0156456
0.0161371
0.0166519
0.0171938
0.017668
0.0180405
0.0184335
0.0188928
0.0193173
0.0196638
0.0200223
0.0204854
0.021023
0.0215219
0.0219397
0.0223593
0.0228788
0.0234643
0.0239885
0.024433
0.0249318
0.0255088
0.0260428
0.026523
0.0270234
0.0275615
0.0281365
0.0287774
0.0294629
0.0301264
0.0307597
0.0314029
0.0320556
0.0326956
0.0333091
0.033896
0.0345017
0.0351583
0.0358495
0.0365276
0.0372227
0.0379691
0.0387399
0.0394778
0.0402273
0.0410492
0.0418952
0.0427307
0.0435664
0.0443802
0.0451552
0.0459548
0.0468212
0.0477748
0.0487422
0.0497069
0.0506902
0.0516688
0.0526104
0.0535973
0.0546083
0.0556321
0.056693
0.0577889
0.0588828
0.059983
0.0611202
0.0622845
0.0634902
0.0646986
0.0659528
0.0672004
0.0684989
0.0698339
0.0711882
0.0725613
0.0739552
0.0754028
0.0768742
0.0783638
0.079864
0.0813387
0.0829066
0.0844756
0.0860815
0.087696
0.0893056
0.090906
0.0924275
0.0938702
0.0951644
0.023556
0.0221843
0.0179936
0.0137727
0.0118679
0.0122325
0.0134329
0.0144609
0.0151605
0.0156925
0.0161786
0.0166822
0.0172117
0.0176796
0.0180537
0.0184483
0.0189048
0.0193269
0.0196763
0.0200387
0.0205004
0.0210321
0.0215273
0.0219468
0.022369
0.022887
0.0234687
0.0239922
0.0244389
0.0249382
0.0255135
0.0260467
0.0265274
0.0270279
0.0275653
0.0281395
0.0287795
0.0294638
0.0301265
0.0307598
0.0314034
0.0320561
0.032696
0.0333097
0.0338976
0.0345037
0.0351599
0.0358505
0.0365288
0.0372241
0.0379702
0.0387406
0.0394785
0.0402281
0.0410496
0.0418955
0.0427311
0.0435672
0.0443811
0.0451559
0.0459554
0.0468217
0.0477753
0.0487426
0.0497072
0.0506907
0.0516693
0.0526109
0.0535978
0.0546088
0.0556327
0.0566935
0.0577893
0.0588832
0.0599834
0.0611206
0.0622849
0.0634905
0.0646989
0.0659531
0.0672006
0.0684991
0.0698341
0.0711884
0.0725614
0.0739553
0.0754029
0.0768744
0.0783639
0.0798642
0.0813388
0.0829067
0.0844758
0.0860817
0.0876963
0.0893059
0.0909065
0.0924286
0.0938717
0.0951654
0.0230226
0.0218794
0.0181355
0.0141459
0.0121899
0.0123891
0.0134895
0.0144974
0.0152054
0.0157419
0.0162229
0.0167145
0.0172308
0.017692
0.0180675
0.018464
0.0189175
0.019337
0.0196891
0.0200556
0.0205161
0.0210419
0.0215333
0.0219545
0.0223793
0.0228958
0.0234735
0.0239961
0.0244451
0.024945
0.0255183
0.0260506
0.0265321
0.0270329
0.0275698
0.0281432
0.0287821
0.0294649
0.0301267
0.0307598
0.0314037
0.0320563
0.0326959
0.0333101
0.0338991
0.0345061
0.0351618
0.0358518
0.0365302
0.0372258
0.0379714
0.0387413
0.0394795
0.0402292
0.0410501
0.0418955
0.0427314
0.0435678
0.0443818
0.0451567
0.0459562
0.0468225
0.0477759
0.0487431
0.0497076
0.050691
0.0516699
0.0526115
0.0535983
0.0546093
0.0556333
0.0566941
0.0577899
0.0588837
0.0599839
0.0611211
0.0622853
0.063491
0.0646992
0.0659534
0.0672009
0.0684994
0.0698343
0.0711886
0.0725616
0.0739554
0.0754031
0.0768745
0.0783641
0.0798644
0.0813389
0.0829069
0.084476
0.0860819
0.0876966
0.0893062
0.090907
0.0924299
0.0938736
0.0951668
0.0225242
0.0215699
0.0182529
0.0145065
0.0125187
0.012559
0.0135506
0.0145323
0.0152495
0.0157933
0.0162698
0.0167487
0.0172509
0.017705
0.0180822
0.0184807
0.0189312
0.0193477
0.0197023
0.0200731
0.0205325
0.0210522
0.0215397
0.0219626
0.0223902
0.022905
0.0234785
0.0240001
0.0244515
0.024952
0.0255233
0.0260545
0.0265368
0.0270382
0.0275747
0.0281474
0.0287852
0.0294664
0.030127
0.03076
0.0314039
0.0320562
0.0326954
0.0333101
0.0339007
0.0345087
0.035164
0.0358533
0.036532
0.0372279
0.0379729
0.0387423
0.0394807
0.0402306
0.0410507
0.0418954
0.0427314
0.0435681
0.0443823
0.0451574
0.0459572
0.0468236
0.0477769
0.0487436
0.0497078
0.0506912
0.0516702
0.0526121
0.0535989
0.0546099
0.055634
0.0566948
0.0577905
0.0588844
0.0599846
0.0611217
0.0622859
0.0634915
0.0646997
0.0659538
0.0672012
0.0684997
0.0698346
0.0711888
0.0725618
0.0739556
0.0754032
0.0768747
0.0783643
0.0798645
0.0813391
0.082907
0.0844762
0.086082
0.087697
0.0893066
0.0909076
0.0924316
0.093876
0.0951683
0.0220624
0.0212613
0.0183451
0.0148498
0.0128508
0.0127426
0.0136177
0.0145656
0.0152918
0.0158458
0.0163192
0.0167849
0.0172722
0.0177188
0.0180977
0.0184985
0.0189459
0.0193592
0.0197161
0.0200911
0.0205494
0.021063
0.0215465
0.0219712
0.0224017
0.0229147
0.0234838
0.0240044
0.0244582
0.0249594
0.0255285
0.0260585
0.0265416
0.0270436
0.0275799
0.0281521
0.0287887
0.0294681
0.0301275
0.0307602
0.031404
0.0320559
0.0326946
0.0333098
0.0339021
0.0345114
0.0351664
0.0358551
0.036534
0.0372301
0.0379745
0.0387433
0.0394821
0.0402322
0.0410515
0.0418953
0.0427311
0.0435679
0.0443823
0.0451578
0.0459582
0.0468251
0.0477783
0.0487445
0.0497081
0.0506912
0.0516704
0.0526125
0.0535993
0.0546104
0.0556348
0.0566956
0.0577911
0.058885
0.0599854
0.0611225
0.0622866
0.0634922
0.0647003
0.0659543
0.0672017
0.0685001
0.069835
0.071189
0.072562
0.0739557
0.0754034
0.076875
0.0783645
0.0798647
0.0813393
0.0829072
0.0844764
0.0860822