/*--------------------------------*- C++ -*----------------------------------*\
| =========                 |                                                 |
| \\      /  F ield         | OpenFOAM: The Open Source CFD Toolbox           |
|  \\    /   O peration     | Version:  v1906                                 |
|   \\  /    A nd           | Web:      www.OpenFOAM.com                      |
|    \\/     M anipulation  |                                                 |
\*---------------------------------------------------------------------------*/
FoamFile
{
    version     2.0;
    format      ascii;
    class       surfaceScalarField;
    location    "10.4";
    object      phi;
}
// * * * * * * * * * * * * * * * * * * * * * * * * * * * * * * * * * * * * * //

dimensions      [0 3 -1 0 0 0 0];
oriented        oriented;


internalField   nonuniform List<scalar> 
19000
(
1.19509e-06
-4.57709e-07
1.08702e-06
1.3914e-06
1.09306e-06
-1.14439e-06
1.27636e-06
-2.00944e-06
1.30542e-06
-7.77523e-07
1.19236e-06
9.043e-07
1.14567e-06
5.49677e-07
1.13323e-06
3.98297e-08
1.16977e-06
-7.82094e-07
1.19187e-06
-7.06084e-07
1.19174e-06
-5.52622e-07
1.17792e-06
-5.57197e-08
1.17031e-06
1.12425e-08
1.18595e-06
2.77754e-07
1.18619e-06
1.847e-07
1.18514e-06
2.34508e-07
1.18996e-06
1.78163e-07
1.17807e-06
1.52311e-07
1.17584e-06
1.2984e-07
9.87273e-08
1.14199e-06
1.25408e-06
-4.87527e-07
1.17766e-06
1.46781e-06
1.16061e-06
-1.12734e-06
1.31633e-06
-2.16515e-06
1.35958e-06
-8.20777e-07
1.26821e-06
9.95668e-07
1.21174e-06
6.06145e-07
1.21292e-06
3.8654e-08
1.24784e-06
-8.17015e-07
1.2637e-06
-7.21946e-07
1.26177e-06
-5.50685e-07
1.24769e-06
-4.16428e-08
1.23017e-06
2.87577e-08
1.25477e-06
2.53163e-07
1.24325e-06
1.9621e-07
1.25706e-06
2.20701e-07
1.24288e-06
1.92344e-07
1.25402e-06
1.41174e-07
1.22382e-06
1.60034e-07
9.12821e-08
1.23127e-06
1.31533e-06
-5.20075e-07
1.27904e-06
1.50411e-06
1.22863e-06
-1.07693e-06
1.34951e-06
-2.28603e-06
1.41206e-06
-8.83332e-07
1.3574e-06
1.05034e-06
1.29397e-06
6.69566e-07
1.30295e-06
2.96805e-08
1.3264e-06
-8.40465e-07
1.34215e-06
-7.37703e-07
1.3339e-06
-5.42429e-07
1.3269e-06
-3.46461e-08
1.29606e-06
5.96006e-08
1.32375e-06
2.25471e-07
1.3081e-06
2.11862e-07
1.32295e-06
2.05853e-07
1.31032e-06
2.04973e-07
1.31649e-06
1.35004e-07
1.29899e-06
1.7753e-07
1.0364e-07
1.28663e-06
1.3777e-06
-5.53667e-07
1.38246e-06
1.49934e-06
1.29478e-06
-9.89253e-07
1.37848e-06
-2.36973e-06
1.46065e-06
-9.65506e-07
1.45041e-06
1.06058e-06
1.38932e-06
7.30657e-07
1.39716e-06
2.18401e-08
1.40162e-06
-8.44931e-07
1.41649e-06
-7.52566e-07
1.40432e-06
-5.30257e-07
1.40187e-06
-3.22011e-08
1.36846e-06
9.30101e-08
1.38709e-06
2.06838e-07
1.37992e-06
2.19034e-07
1.38807e-06
1.97708e-07
1.38403e-06
2.09006e-07
1.3846e-06
1.34441e-07
1.37534e-06
1.86783e-07
1.20383e-07
1.3586e-06
1.44032e-06
-5.85638e-07
1.47765e-06
1.46202e-06
1.35808e-06
-8.69681e-07
1.40713e-06
-2.41879e-06
1.50669e-06
-1.06507e-06
1.54021e-06
1.02706e-06
1.49432e-06
7.76545e-07
1.49193e-06
2.42355e-08
1.4741e-06
-8.27108e-07
1.48253e-06
-7.60995e-07
1.47139e-06
-5.19115e-07
1.47078e-06
-3.15918e-08
1.44472e-06
1.19068e-07
1.45301e-06
1.98555e-07
1.45434e-06
2.17696e-07
1.46002e-06
1.92032e-07
1.46051e-06
2.08521e-07
1.4604e-06
1.34553e-07
1.45408e-06
1.93094e-07
1.36745e-07
1.43772e-06
1.50353e-06
-6.13491e-07
1.55892e-06
1.40663e-06
1.42138e-06
-7.32148e-07
1.44062e-06
-2.43803e-06
1.55335e-06
-1.17779e-06
1.62522e-06
9.55189e-07
1.60429e-06
7.97478e-07
1.58679e-06
4.17323e-08
1.54678e-06
-7.87096e-07
1.54324e-06
-7.57456e-07
1.53507e-06
-5.10948e-07
1.53727e-06
-3.37835e-08
1.52174e-06
1.34591e-07
1.52528e-06
1.95019e-07
1.53073e-06
2.1225e-07
1.5375e-06
1.85256e-07
1.54045e-06
2.05573e-07
1.54065e-06
1.34349e-07
1.53646e-06
1.97282e-07
1.52584e-07
1.52063e-06
1.56871e-06
-6.35981e-07
1.62809e-06
1.34725e-06
1.49036e-06
-5.94422e-07
1.48448e-06
-2.43214e-06
1.60424e-06
-1.29755e-06
1.70765e-06
8.51776e-07
1.71318e-06
7.9195e-07
1.68129e-06
7.3617e-08
1.62151e-06
-7.27312e-07
1.60333e-06
-7.39279e-07
1.59626e-06
-5.03872e-07
1.60328e-06
-4.08088e-08
1.59811e-06
1.39759e-07
1.60245e-06
1.90685e-07
1.60981e-06
2.04892e-07
1.61807e-06
1.76996e-07
1.62294e-06
2.00701e-07
1.62318e-06
1.3411e-07
1.62074e-06
1.99722e-07
1.67855e-07
1.60547e-06
1.63744e-06
-6.53297e-07
1.69234e-06
1.29235e-06
1.56957e-06
-4.71648e-07
1.54253e-06
-2.4051e-06
1.66126e-06
-1.41628e-06
1.78851e-06
7.24529e-07
1.81496e-06
7.65498e-07
1.77312e-06
1.15461e-07
1.69807e-06
-6.5227e-07
1.66593e-06
-7.07134e-07
1.65691e-06
-4.94858e-07
1.66911e-06
-5.30012e-08
1.67347e-06
1.35399e-07
1.68178e-06
1.82372e-07
1.69095e-06
1.95722e-07
1.70005e-06
1.67892e-07
1.7062e-06
1.94555e-07
1.70604e-06
1.34274e-07
1.70486e-06
2.00896e-07
1.82411e-07
1.6903e-06
1.71053e-06
-6.66257e-07
1.75913e-06
1.24376e-06
1.65944e-06
-3.71959e-07
1.61532e-06
-2.36098e-06
1.72419e-06
-1.52515e-06
1.86567e-06
5.83049e-07
1.90509e-06
7.2607e-07
1.85911e-06
1.61445e-07
1.77535e-06
-5.68507e-07
1.73262e-06
-6.6441e-07
1.71963e-06
-4.81869e-07
1.73526e-06
-6.86297e-08
1.74762e-06
1.23042e-07
1.7608e-06
1.69195e-07
1.77214e-06
1.84378e-07
1.7816e-06
1.58428e-07
1.78842e-06
1.87742e-07
1.78745e-06
1.35243e-07
1.78709e-06
2.01258e-07
1.95986e-07
1.77351e-06
1.78787e-06
-6.75404e-07
1.8325e-06
1.19912e-06
1.75699e-06
-2.96443e-07
1.70053e-06
-2.30452e-06
1.79187e-06
-1.61649e-06
1.9362e-06
4.38722e-07
1.98166e-06
6.80612e-07
1.93725e-06
2.05851e-07
1.85248e-06
-4.83735e-07
1.80431e-06
-6.16246e-07
1.78689e-06
-4.6444e-07
1.80312e-06
-8.48608e-08
1.82076e-06
1.05399e-07
1.83776e-06
1.52195e-07
1.85114e-06
1.71001e-07
1.86068e-06
1.48885e-07
1.8679e-06
1.8052e-07
1.86611e-06
1.3704e-07
1.86627e-06
2.01092e-07
2.08118e-07
1.85414e-06
1.86914e-06
-6.80792e-07
1.9128e-06
1.15546e-06
1.85846e-06
-2.42108e-07
1.79478e-06
-2.24085e-06
1.86353e-06
-1.68524e-06
1.99942e-06
3.02829e-07
2.046e-06
6.34029e-07
2.00795e-06
2.43905e-07
1.92946e-06
-4.05244e-07
1.88149e-06
-5.68279e-07
1.86054e-06
-4.43486e-07
1.87457e-06
-9.88933e-08
1.89396e-06
8.60065e-08
1.91243e-06
1.33728e-07
1.92696e-06
1.56475e-07
1.93625e-06
1.39588e-07
1.94387e-06
1.72901e-07
1.94171e-06
1.39199e-07
1.94241e-06
2.00397e-07
2.18192e-07
1.93233e-06
1.95442e-06
-6.82375e-07
1.99846e-06
1.11143e-06
1.96114e-06
-2.04789e-07
1.89505e-06
-2.17475e-06
1.93924e-06
-1.72942e-06
2.05789e-06
1.84174e-07
2.10257e-06
5.89345e-07
2.07418e-06
2.72302e-07
2.00725e-06
-3.38315e-07
1.9642e-06
-5.25232e-07
1.94152e-06
-4.20805e-07
1.9515e-06
-1.08879e-07
1.96932e-06
6.81885e-08
1.98655e-06
1.16503e-07
2.00089e-06
1.42137e-07
2.00946e-06
1.31017e-07
2.01741e-06
1.64952e-07
2.01555e-06
1.41054e-07
2.01696e-06
1.98984e-07
2.25619e-07
2.00954e-06
2.04419e-06
-6.80377e-07
2.08818e-06
1.06744e-06
2.06391e-06
-1.80522e-07
1.99924e-06
-2.11008e-06
2.01991e-06
-1.7501e-06
2.11658e-06
8.75044e-08
2.15784e-06
5.48091e-07
2.1406e-06
2.89541e-07
2.08759e-06
-2.85309e-07
2.05219e-06
-4.89826e-07
2.02978e-06
-3.98403e-07
2.03529e-06
-1.14382e-07
2.04948e-06
5.39957e-08
2.06343e-06
1.02557e-07
2.07632e-06
1.29244e-07
2.0836e-06
1.23734e-07
2.09153e-06
1.57023e-07
2.09042e-06
1.42164e-07
2.09266e-06
1.9674e-07
2.30119e-07
2.08816e-06
2.13895e-06
-6.75325e-07
2.18176e-06
1.02462e-06
2.16711e-06
-1.65865e-07
2.10628e-06
-2.04925e-06
2.10685e-06
-1.75067e-06
2.18111e-06
1.32489e-08
2.2185e-06
5.10701e-07
2.21209e-06
2.95946e-07
2.17254e-06
-2.45757e-07
2.1452e-06
-4.62479e-07
2.12466e-06
-3.77864e-07
2.12647e-06
-1.16199e-07
2.13671e-06
4.37604e-08
2.14662e-06
9.26459e-08
2.15733e-06
1.18537e-07
2.16289e-06
1.18172e-07
2.17017e-06
1.49739e-07
2.16979e-06
1.42552e-07
2.17266e-06
1.9387e-07
2.31893e-07
2.17088e-06
2.23903e-06
-6.67868e-07
2.27987e-06
9.8378e-07
2.27194e-06
-1.57937e-07
2.21593e-06
-1.99323e-06
2.20103e-06
-1.73577e-06
2.25575e-06
-4.14752e-08
2.28955e-06
4.76909e-07
2.29228e-06
2.93208e-07
2.26385e-06
-2.17329e-07
2.24323e-06
-4.41855e-07
2.22536e-06
-3.59997e-07
2.22486e-06
-1.15697e-07
2.23214e-06
3.64838e-08
2.23849e-06
8.62941e-08
2.24693e-06
1.10099e-07
2.25066e-06
1.1444e-07
2.25663e-06
1.4377e-07
2.25657e-06
1.42606e-07
2.25956e-06
1.90879e-07
2.31603e-07
2.25985e-06
2.3446e-06
-6.58593e-07
2.38335e-06
9.45035e-07
2.37985e-06
-1.54438e-07
2.32847e-06
-1.94186e-06
2.3027e-06
-1.71e-06
2.34237e-06
-8.11441e-08
2.37322e-06
4.46059e-07
2.38281e-06
2.83619e-07
2.36257e-06
-1.97092e-07
2.34657e-06
-4.25845e-07
2.33142e-06
-3.44851e-07
2.32983e-06
-1.14104e-07
2.33561e-06
3.07038e-08
2.33957e-06
8.23273e-08
2.34614e-06
1.0353e-07
2.34833e-06
1.12256e-07
2.35255e-06
1.3955e-07
2.35236e-06
1.4279e-07
2.35491e-06
1.8833e-07
2.30141e-07
2.35638e-06
2.45575e-06
-6.47949e-07
2.49279e-06
9.07994e-07
2.49198e-06
-1.5363e-07
2.44449e-06
-1.89436e-06
2.41161e-06
-1.67712e-06
2.44072e-06
-1.10253e-07
2.46938e-06
4.17397e-07
2.48362e-06
2.69377e-07
2.46899e-06
-1.82459e-07
2.4556e-06
-4.12452e-07
2.44276e-06
-3.32017e-07
2.4408e-06
-1.12144e-07
2.44625e-06
2.52599e-08
2.44906e-06
7.9516e-08
2.45432e-06
9.82708e-08
2.45551e-06
1.11064e-07
2.45794e-06
1.37123e-07
2.45732e-06
1.43402e-07
2.45911e-06
1.86547e-07
2.28317e-07
2.46093e-06
2.57259e-06
-6.36242e-07
2.60854e-06
8.72045e-07
2.60916e-06
-1.54248e-07
2.56459e-06
-1.84979e-06
2.52732e-06
-1.63986e-06
2.5495e-06
-1.32429e-07
2.57665e-06
3.90247e-07
2.59378e-06
2.52238e-07
2.58289e-06
-1.71569e-07
2.57068e-06
-4.00234e-07
2.55962e-06
-3.20962e-07
2.55755e-06
-1.1007e-07
2.5632e-06
1.96089e-08
2.56573e-06
7.69875e-08
2.57011e-06
9.38911e-08
2.57089e-06
1.10278e-07
2.57182e-06
1.36196e-07
2.57069e-06
1.44527e-07
2.57174e-06
1.85501e-07
2.2664e-07
2.57342e-06
2.69527e-06
-6.23683e-07
2.73074e-06
8.36577e-07
2.73191e-06
-1.55418e-07
2.68935e-06
-1.80724e-06
2.64949e-06
-1.6e-06
2.66729e-06
-1.50229e-07
2.69346e-06
3.64078e-07
2.71226e-06
2.33443e-07
2.70393e-06
-1.63244e-07
2.69204e-06
-3.88347e-07
2.68231e-06
-3.11231e-07
2.68014e-06
-1.07896e-07
2.68601e-06
1.37402e-08
2.68868e-06
7.43134e-08
2.69237e-06
9.02071e-08
2.69316e-06
1.09485e-07
2.69304e-06
1.36314e-07
2.69145e-06
1.46121e-07
2.69206e-06
1.84888e-07
2.2526e-07
2.69344e-06
2.824e-06
-6.10419e-07
2.8595e-06
8.0108e-07
2.86065e-06
-1.56569e-07
2.81933e-06
-1.76591e-06
2.77794e-06
-1.55862e-06
2.79301e-06
-1.65293e-07
2.81864e-06
3.38448e-07
2.83831e-06
2.13766e-07
2.83186e-06
-1.56786e-07
2.81988e-06
-3.76373e-07
2.81112e-06
-3.02466e-07
2.80881e-06
-1.05586e-07
2.81462e-06
7.93175e-09
2.81755e-06
7.13807e-08
2.82054e-06
8.7218e-08
2.8215e-06
1.08523e-07
2.82078e-06
1.37033e-07
2.81882e-06
1.48084e-07
2.81937e-06
1.84338e-07
2.24033e-07
2.8206e-06
2.95903e-06
-5.96556e-07
2.99496e-06
7.65149e-07
2.99575e-06
-1.57357e-07
2.95499e-06
-1.72515e-06
2.91267e-06
-1.5163e-06
2.92598e-06
-1.78603e-07
2.95148e-06
3.12955e-07
2.97162e-06
1.93618e-07
2.96661e-06
-1.51772e-07
2.95437e-06
-3.6413e-07
2.94625e-06
-2.94345e-07
2.9438e-06
-1.0314e-07
2.94919e-06
2.53748e-09
2.95236e-06
6.82163e-08
2.95462e-06
8.49602e-08
2.95573e-06
1.07414e-07
2.9548e-06
1.37962e-07
2.95255e-06
1.50327e-07
2.9533e-06
1.83587e-07
2.22653e-07
2.95468e-06
3.10061e-06
-5.82155e-07
3.13729e-06
7.28468e-07
3.13752e-06
-1.57591e-07
3.0968e-06
-1.68443e-06
3.05388e-06
-1.47338e-06
3.066e-06
-1.90729e-07
3.0917e-06
2.87258e-07
3.11212e-06
1.73199e-07
3.10826e-06
-1.47905e-07
3.09569e-06
-3.5156e-07
3.08791e-06
-2.86566e-07
3.08535e-06
-1.00587e-07
3.09003e-06
-2.14326e-09
3.09338e-06
6.48663e-08
3.09494e-06
8.34043e-08
3.0961e-06
1.0626e-07
3.0953e-06
1.38761e-07
3.09288e-06
1.52744e-07
3.09389e-06
1.82574e-07
2.20767e-07
3.09578e-06
3.24899e-06
-5.6724e-07
3.28666e-06
6.90807e-07
3.28625e-06
-1.57181e-07
3.24518e-06
-1.64336e-06
3.20191e-06
-1.43011e-06
3.21318e-06
-2.01998e-07
3.23929e-06
2.61143e-07
3.25987e-06
1.52624e-07
3.2569e-06
-1.44939e-07
3.24404e-06
-3.387e-07
3.23635e-06
-2.78874e-07
3.23375e-06
-9.79901e-08
3.23753e-06
-5.92179e-09
3.24103e-06
6.13688e-08
3.242e-06
8.24307e-08
3.2431e-06
1.05159e-07
3.2427e-06
1.39165e-07
3.24029e-06
1.55147e-07
3.24144e-06
1.81431e-07
2.18098e-07
3.24411e-06
3.40449e-06
-5.51798e-07
3.44325e-06
6.52041e-07
3.44219e-06
-1.56119e-07
3.40052e-06
-1.60168e-06
3.35717e-06
-1.38677e-06
3.36776e-06
-2.12591e-07
3.39434e-06
2.3456e-07
3.41497e-06
1.32e-07
3.4127e-06
-1.42667e-07
3.39964e-06
-3.25648e-07
3.39187e-06
-2.71102e-07
3.38932e-06
-9.54414e-08
3.39213e-06
-8.72499e-09
3.39573e-06
5.77624e-08
3.3963e-06
8.18649e-08
3.39726e-06
1.04195e-07
3.39741e-06
1.3902e-07
3.39527e-06
1.57283e-07
3.39635e-06
1.80353e-07
2.14572e-07
3.39988e-06
3.56741e-06
-5.35795e-07
3.60729e-06
6.12159e-07
3.60565e-06
-1.54477e-07
3.56317e-06
-1.5592e-06
3.52003e-06
-1.34363e-06
3.53005e-06
-2.22612e-07
3.55702e-06
2.07593e-07
3.5776e-06
1.1142e-07
3.57586e-06
-1.40931e-07
3.56276e-06
-3.12542e-07
3.55483e-06
-2.63172e-07
3.55244e-06
-9.30487e-08
3.55428e-06
-1.05718e-08
3.55793e-06
5.41118e-08
3.55831e-06
8.14921e-08
3.55904e-06
1.03463e-07
3.55977e-06
1.38287e-07
3.55815e-06
1.58906e-07
3.55907e-06
1.79428e-07
2.10395e-07
3.56325e-06
3.73811e-06
-5.19199e-07
3.779e-06
5.71264e-07
3.77695e-06
-1.52418e-07
3.7335e-06
-1.51576e-06
3.69084e-06
-1.30097e-06
3.70036e-06
-2.32129e-07
3.72756e-06
1.80393e-07
3.74802e-06
9.09514e-08
3.74672e-06
-1.39624e-07
3.73369e-06
-2.99515e-07
3.7256e-06
-2.55078e-07
3.72345e-06
-9.09002e-08
3.72442e-06
-1.15466e-08
3.72801e-06
5.05186e-08
3.72842e-06
8.10888e-08
3.72885e-06
1.03033e-07
3.73008e-06
1.37056e-07
3.72916e-06
1.59823e-07
3.72997e-06
1.78621e-07
2.05911e-07
3.73445e-06
3.91698e-06
-5.01994e-07
3.9587e-06
5.29551e-07
3.95647e-06
-1.50192e-07
3.9119e-06
-1.47119e-06
3.8699e-06
-1.25897e-06
3.87898e-06
-2.41207e-07
3.90625e-06
1.53126e-07
3.92657e-06
7.06354e-08
3.92563e-06
-1.38684e-07
3.91278e-06
-2.86666e-07
3.90455e-06
-2.46847e-07
3.9027e-06
-8.90565e-08
3.90293e-06
-1.17748e-08
3.90633e-06
4.71151e-08
3.90694e-06
8.04846e-08
3.90709e-06
1.02879e-07
3.90866e-06
1.35491e-07
3.9085e-06
1.59979e-07
3.90937e-06
1.77754e-07
2.01451e-07
3.91383e-06
4.10445e-06
-4.84189e-07
4.14671e-06
4.87287e-07
4.14464e-06
-1.48121e-07
4.0988e-06
-1.42535e-06
4.05757e-06
-1.21774e-06
4.06629e-06
-2.49923e-07
4.09345e-06
1.25967e-07
4.1136e-06
5.04827e-08
4.11299e-06
-1.38078e-07
4.10039e-06
-2.74066e-07
4.09207e-06
-2.3852e-07
4.09054e-06
-8.75341e-08
4.09018e-06
-1.14148e-08
4.09325e-06
4.40469e-08
4.09416e-06
7.95781e-08
4.09412e-06
1.02918e-07
4.09586e-06
1.33746e-07
4.09639e-06
1.5945e-07
4.09753e-06
1.76616e-07
1.97131e-07
4.10185e-06
4.30093e-06
-4.65821e-07
4.34344e-06
4.44782e-07
4.34187e-06
-1.46556e-07
4.2947e-06
-1.37817e-06
4.25423e-06
-1.17727e-06
4.26265e-06
-2.58345e-07
4.28953e-06
9.90897e-08
4.30951e-06
3.04955e-08
4.30923e-06
-1.3779e-07
4.29692e-06
-2.61765e-07
4.28854e-06
-2.30138e-07
4.28733e-06
-8.63207e-08
4.28653e-06
-1.06153e-08
4.28918e-06
4.14006e-08
4.29036e-06
7.83911e-08
4.29025e-06
1.03027e-07
4.29205e-06
1.31947e-07
4.29321e-06
1.58296e-07
4.29473e-06
1.75097e-07
1.92909e-07
4.29895e-06
4.5069e-06
-4.46952e-07
4.54932e-06
4.02362e-07
4.54858e-06
-1.45813e-07
4.5001e-06
-1.32969e-06
4.4603e-06
-1.13747e-06
4.46849e-06
-2.66537e-07
4.4949e-06
7.26806e-08
4.5147e-06
1.06963e-08
4.51475e-06
-1.37835e-07
4.50278e-06
-2.49803e-07
4.49438e-06
-2.21734e-07
4.49344e-06
-8.53829e-08
4.49235e-06
-9.51883e-09
4.49451e-06
3.92322e-08
4.49591e-06
7.69921e-08
4.49584e-06
1.03103e-07
4.49758e-06
1.30204e-07
4.49934e-06
1.56537e-07
4.50122e-06
1.73217e-07
1.88636e-07
4.50549e-06
4.72282e-06
-4.27658e-07
4.76484e-06
3.60344e-07
4.76514e-06
-1.46116e-07
4.71554e-06
-1.28009e-06
4.67626e-06
-1.0982e-06
4.68429e-06
-2.74565e-07
4.71004e-06
4.69279e-08
4.72959e-06
-8.85268e-09
4.72999e-06
-1.38232e-07
4.71841e-06
-2.38223e-07
4.71001e-06
-2.13339e-07
4.70931e-06
-8.46754e-08
4.70804e-06
-8.25441e-09
4.70969e-06
3.7584e-08
4.71129e-06
7.53885e-08
4.71124e-06
1.03157e-07
4.71288e-06
1.28562e-07
4.71521e-06
1.54206e-07
4.7175e-06
1.70927e-07
1.84322e-07
4.72182e-06
4.94917e-06
-4.0803e-07
4.99049e-06
3.19018e-07
4.99193e-06
-1.47552e-07
4.94152e-06
-1.22967e-06
4.90261e-06
-1.05929e-06
4.91055e-06
-2.82509e-07
4.93548e-06
2.20011e-08
4.95466e-06
-2.80325e-08
4.95542e-06
-1.38994e-07
4.94428e-06
-2.27081e-07
4.93592e-06
-2.04986e-07
4.93539e-06
-8.41387e-08
4.93406e-06
-6.92305e-09
4.93518e-06
3.64624e-08
4.93697e-06
7.35957e-08
4.93702e-06
1.03103e-07
4.93849e-06
1.27099e-07
4.94129e-06
1.51405e-07
4.94404e-06
1.68178e-07
1.79987e-07
4.94837e-06
5.18645e-06
-3.88163e-07
5.22683e-06
2.78635e-07
5.22933e-06
-1.5005e-07
5.17854e-06
-1.17889e-06
5.13986e-06
-1.0206e-06
5.14778e-06
-2.90429e-07
5.17177e-06
-1.99082e-09
5.19042e-06
-4.66819e-08
5.19153e-06
-1.40106e-07
5.1809e-06
-2.16446e-07
5.17262e-06
-1.96704e-07
5.17221e-06
-8.37358e-08
5.17087e-06
-5.57849e-09
5.17148e-06
3.58531e-08
5.1734e-06
7.16689e-08
5.17378e-06
1.02729e-07
5.175e-06
1.25881e-07
5.17804e-06
1.48363e-07
5.18138e-06
1.64839e-07
1.75651e-07
5.18571e-06
5.43518e-06
-3.68154e-07
5.47443e-06
2.39382e-07
5.47777e-06
-1.53386e-07
5.42713e-06
-1.12825e-06
5.38856e-06
-9.82033e-07
5.39644e-06
-2.98311e-07
5.41951e-06
-2.50514e-08
5.43745e-06
-6.46253e-08
5.43886e-06
-1.41513e-07
5.42879e-06
-2.06382e-07
5.42063e-06
-1.88544e-07
5.42033e-06
-8.34323e-08
5.41901e-06
-4.26498e-09
5.41913e-06
3.5737e-08
5.42113e-06
6.96675e-08
5.42201e-06
1.01852e-07
5.42301e-06
1.24878e-07
5.42604e-06
1.45333e-07
5.42995e-06
1.60933e-07
1.71141e-07
5.43446e-06
5.6959e-06
-3.48095e-07
5.73391e-06
2.01375e-07
5.73772e-06
-1.57203e-07
5.68781e-06
-1.07833e-06
5.64928e-06
-9.43504e-07
5.65703e-06
-3.06066e-07
5.67926e-06
-4.7279e-08
5.69633e-06
-8.16904e-08
5.69796e-06
-1.43146e-07
5.6885e-06
-1.96921e-07
5.68052e-06
-1.80564e-07
5.68031e-06
-8.32253e-08
5.67907e-06
-3.02455e-09
5.67872e-06
3.6085e-08
5.68075e-06
6.76452e-08
5.68219e-06
1.00404e-07
5.68313e-06
1.2394e-07
5.68593e-06
1.42535e-07
5.69024e-06
1.56625e-07
1.66246e-07
5.69513e-06
5.96917e-06
-3.28071e-07
6.00589e-06
1.64658e-07
6.00976e-06
-1.6108e-07
5.96112e-06
-1.02969e-06
5.92262e-06
-9.05011e-07
5.93005e-06
-3.13489e-07
5.95159e-06
-6.88231e-08
5.96767e-06
-9.77729e-08
5.96943e-06
-1.44904e-07
5.96057e-06
-1.88056e-07
5.95283e-06
-1.72832e-07
5.95275e-06
-8.31433e-08
5.95166e-06
-1.9288e-09
5.95086e-06
3.68838e-08
5.95285e-06
6.56565e-08
5.95484e-06
9.8406e-08
5.95593e-06
1.22854e-07
5.9584e-06
1.4006e-07
5.96278e-06
1.52249e-07
1.60836e-07
5.96819e-06
6.25557e-06
-3.08156e-07
6.29102e-06
1.29211e-07
6.29454e-06
-1.64603e-07
6.2476e-06
-9.82742e-07
6.20926e-06
-8.66672e-07
6.21604e-06
-3.20271e-07
6.23701e-06
-8.97869e-08
6.25214e-06
-1.12907e-07
6.25388e-06
-1.46647e-07
6.24558e-06
-1.79749e-07
6.23814e-06
-1.65401e-07
6.23823e-06
-8.32294e-08
6.2374e-06
-1.09582e-09
6.23617e-06
3.81162e-08
6.23797e-06
6.38484e-08
6.24055e-06
9.58258e-08
6.24197e-06
1.21436e-07
6.24416e-06
1.37875e-07
6.24826e-06
1.4815e-07
1.55003e-07
6.25409e-06
6.55573e-06
-2.8842e-07
6.58995e-06
9.49946e-08
6.59281e-06
-1.67464e-07
6.54776e-06
-9.37691e-07
6.50989e-06
-8.28805e-07
6.51566e-06
-3.2604e-07
6.53604e-06
-1.10162e-07
6.55036e-06
-1.27232e-07
6.55198e-06
-1.48265e-07
6.54413e-06
-1.71903e-07
6.53702e-06
-1.58286e-07
6.53734e-06
-8.35482e-08
6.53692e-06
-6.82219e-10
6.53529e-06
3.97526e-08
6.53672e-06
6.2414e-08
6.53989e-06
9.26529e-08
6.54185e-06
1.19483e-07
6.54384e-06
1.35878e-07
6.54747e-06
1.44521e-07
1.4909e-07
6.55339e-06
6.87031e-06
-2.68935e-07
6.90332e-06
6.19783e-08
6.90538e-06
-1.69526e-07
6.86209e-06
-8.94398e-07
6.82521e-06
-7.91919e-07
6.82964e-06
-3.3047e-07
6.84927e-06
-1.29799e-07
6.86297e-06
-1.40926e-07
6.86442e-06
-1.49719e-07
6.85694e-06
-1.64426e-07
6.85003e-06
-1.51372e-07
6.85064e-06
-8.41535e-08
6.85085e-06
-8.93572e-10
6.84888e-06
4.17177e-08
6.84972e-06
6.15752e-08
6.85342e-06
8.89562e-08
6.85612e-06
1.1678e-07
6.85811e-06
1.3389e-07
6.86122e-06
1.41407e-07
1.43521e-07
6.86679e-06
7.19999e-06
-2.49793e-07
7.23176e-06
3.02157e-08
7.23313e-06
-1.70898e-07
7.19111e-06
-8.52384e-07
7.15584e-06
-7.56644e-07
7.15876e-06
-3.33387e-07
7.17735e-06
-1.48397e-07
7.19058e-06
-1.54157e-07
7.19193e-06
-1.51068e-07
7.1847e-06
-1.57188e-07
7.17783e-06
-1.44508e-07
7.17871e-06
-8.5036e-08
7.17969e-06
-1.87236e-09
7.17761e-06
4.38007e-08
7.1777e-06
6.14815e-08
7.18166e-06
8.49987e-08
7.18531e-06
1.13132e-07
7.18753e-06
1.31668e-07
7.19027e-06
1.38671e-07
1.38656e-07
7.19513e-06
7.54554e-06
-2.31104e-07
7.57589e-06
-1.39772e-10
7.57693e-06
-1.7194e-07
7.53545e-06
-8.10901e-07
7.50241e-06
-7.23602e-07
7.50383e-06
-3.34806e-07
7.52095e-06
-1.65514e-07
7.53385e-06
-1.67064e-07
7.5352e-06
-1.52413e-07
7.52815e-06
-1.50139e-07
7.52116e-06
-1.37524e-07
7.52212e-06
-8.59932e-08
7.52403e-06
-3.7756e-09
7.5221e-06
4.57297e-08
7.52138e-06
6.21952e-08
7.52527e-06
8.11121e-08
7.52993e-06
1.08473e-07
7.53267e-06
1.28928e-07
7.53527e-06
1.36073e-07
1.34584e-07
7.53934e-06
7.90772e-06
-2.13009e-07
7.9364e-06
-2.8825e-08
7.93766e-06
-1.73199e-07
7.89591e-06
-7.69154e-07
7.86545e-06
-6.93143e-07
7.86569e-06
-3.35043e-07
7.88083e-06
-1.80653e-07
7.8934e-06
-1.79636e-07
7.89491e-06
-1.5392e-07
7.88806e-06
-1.43289e-07
7.88079e-06
-1.30253e-07
7.88149e-06
-8.66997e-08
7.88436e-06
-6.63836e-09
7.8829e-06
4.71908e-08
7.8815e-06
6.35911e-08
7.88497e-06
7.76467e-08
7.89055e-06
1.02893e-07
7.89409e-06
1.2538e-07
7.89677e-06
1.33397e-07
1.3107e-07
7.90028e-06
8.28734e-06
-1.9567e-07
8.314e-06
-5.54839e-08
8.31615e-06
-1.75344e-07
8.27346e-06
-7.26469e-07
8.24558e-06
-6.65266e-07
8.24518e-06
-3.3464e-07
8.25789e-06
-1.93363e-07
8.2699e-06
-1.91646e-07
8.27175e-06
-1.55769e-07
8.26515e-06
-1.36688e-07
8.25745e-06
-1.2255e-07
8.25759e-06
-8.68381e-08
8.2612e-06
-1.02509e-08
8.26058e-06
4.78044e-08
8.25886e-06
6.53106e-08
8.26161e-06
7.49021e-08
8.26782e-06
9.66801e-08
8.27246e-06
1.20747e-07
8.27534e-06
1.30515e-07
1.27724e-07
8.27868e-06
8.68526e-06
-1.79265e-07
8.70949e-06
-7.97176e-08
8.71312e-06
-1.78977e-07
8.66927e-06
-6.8261e-07
8.64336e-06
-6.39356e-07
8.6431e-06
-3.34388e-07
8.6531e-06
-2.03357e-07
8.66408e-06
-2.02629e-07
8.66639e-06
-1.58075e-07
8.6601e-06
-1.30404e-07
8.65193e-06
-1.14381e-07
8.65115e-06
-8.60512e-08
8.65525e-06
-1.43597e-08
8.65581e-06
4.72439e-08
8.65429e-06
6.68306e-08
8.65622e-06
7.29815e-08
8.66255e-06
9.03476e-08
8.66846e-06
1.14834e-07
8.6717e-06
1.27272e-07
1.24302e-07
8.67513e-06
9.10233e-06
-1.63976e-07
9.12375e-06
-1.01141e-07
9.12919e-06
-1.84416e-07
9.08458e-06
-6.38001e-07
9.05943e-06
-6.14201e-07
9.06009e-06
-3.35051e-07
9.06741e-06
-2.10682e-07
9.07671e-06
-2.11925e-07
9.07942e-06
-1.60781e-07
9.07363e-06
-1.24614e-07
9.06517e-06
-1.05919e-07
9.06324e-06
-8.41211e-08
9.06751e-06
-1.86388e-08
9.06942e-06
4.53339e-08
9.06854e-06
6.77126e-08
9.06985e-06
7.16692e-08
9.07569e-06
8.45158e-08
9.08285e-06
1.07669e-07
9.08677e-06
1.2335e-07
1.20856e-07
9.09022e-06
9.53946e-06
-1.49979e-07
9.55773e-06
-1.19406e-07
9.565e-06
-1.9169e-07
9.52054e-06
-5.93542e-07
9.49472e-06
-5.88378e-07
9.49653e-06
-3.36856e-07
9.5017e-06
-2.15853e-07
9.50866e-06
-2.18882e-07
9.51151e-06
-1.63639e-07
9.50665e-06
-1.19751e-07
9.49827e-06
-9.75355e-08
9.4952e-06
-8.10577e-08
9.49927e-06
-2.27074e-08
9.50247e-06
4.21314e-08
9.50246e-06
6.77267e-08
9.50355e-06
7.05835e-08
9.50845e-06
7.96075e-08
9.51639e-06
9.97297e-08
9.52145e-06
1.18291e-07
1.17497e-07
9.52481e-06
9.99758e-06
-1.37427e-07
1.00124e-05
-1.34262e-07
1.00213e-05
-2.00517e-07
9.97816e-06
-5.50441e-07
9.9505e-06
-5.60709e-07
9.95317e-06
-3.39528e-07
9.95672e-06
-2.19407e-07
9.96089e-06
-2.23054e-07
9.9638e-06
-1.66545e-07
9.96021e-06
-1.16165e-07
9.95229e-06
-8.96115e-08
9.94826e-06
-7.70321e-08
9.95176e-06
-2.62095e-08
9.95617e-06
3.77247e-08
9.95706e-06
6.68341e-08
9.95819e-06
6.94518e-08
9.96217e-06
7.56275e-08
9.97007e-06
9.18372e-08
9.97657e-06
1.11788e-07
1.14032e-07
9.98003e-06
1.04777e-05
-1.26438e-07
1.0489e-05
-1.45572e-07
1.04988e-05
-2.104e-07
1.04585e-05
-5.1005e-07
1.04284e-05
-5.3063e-07
1.04313e-05
-3.42485e-07
1.04339e-05
-2.21966e-07
1.0435e-05
-2.24192e-07
1.04375e-05
-1.68991e-07
1.04353e-05
-1.13991e-07
1.04283e-05
-8.26155e-08
1.04236e-05
-7.2298e-08
1.04262e-05
-2.88582e-08
1.04316e-05
3.23659e-08
1.04334e-05
6.50529e-08
1.04347e-05
6.81153e-08
1.0438e-05
7.23194e-08
1.04452e-05
8.46591e-08
1.04529e-05
1.04105e-07
1.09925e-07
1.0457e-05
1.09807e-05
-1.17088e-07
1.09884e-05
-1.53309e-07
1.09988e-05
-2.20768e-07
1.09623e-05
-4.73603e-07
1.09299e-05
-4.98239e-07
1.09321e-05
-3.44606e-07
1.09349e-05
-2.24805e-07
1.09331e-05
-2.22392e-07
1.09338e-05
-1.69721e-07
1.09329e-05
-1.13113e-07
1.09274e-05
-7.70307e-08
1.09223e-05
-6.7242e-08
1.09239e-05
-3.05005e-08
1.09298e-05
2.65018e-08
1.09325e-05
6.23901e-08
1.0934e-05
6.65418e-08
1.0937e-05
6.93939e-08
1.09432e-05
7.84343e-08
1.09514e-05
9.59448e-08
1.04695e-07
1.09566e-05
1.15077e-05
-1.09391e-07
1.1512e-05
-1.57633e-07
1.15222e-05
-2.30989e-07
1.14905e-05
-4.41912e-07
1.14564e-05
-4.64162e-07
1.14564e-05
-3.44553e-07
1.14603e-05
-2.28696e-07
1.14566e-05
-2.18735e-07
1.14547e-05
-1.67828e-07
1.14543e-05
-1.12721e-07
1.14503e-05
-7.29583e-08
1.14456e-05
-6.254e-08
1.14461e-05
-3.10442e-08
1.1452e-05
2.05901e-08
1.14555e-05
5.89017e-08
1.14574e-05
6.46974e-08
1.14601e-05
6.66786e-08
1.14655e-05
7.30388e-08
1.14734e-05
8.80078e-08
9.83286e-08
1.14798e-05
1.20597e-05
-1.03273e-07
1.2061e-05
-1.58951e-07
1.20703e-05
-2.40285e-07
1.20438e-05
-4.15436e-07
1.2009e-05
-4.29354e-07
1.20057e-05
-3.4124e-07
1.20104e-05
-2.33392e-07
1.20067e-05
-2.15011e-07
1.20021e-05
-1.63271e-07
1.20009e-05
-1.1148e-07
1.19981e-05
-7.0136e-08
1.19941e-05
-5.86114e-08
1.19939e-05
-3.0814e-08
1.19995e-05
1.50349e-08
1.20037e-05
5.47193e-08
1.20058e-05
6.25487e-08
1.20084e-05
6.40695e-08
1.20131e-05
6.83092e-08
1.20204e-05
8.07007e-08
9.12155e-08
1.20276e-05
1.26379e-05
-9.8562e-08
1.26368e-05
-1.57908e-07
1.26443e-05
-2.47775e-07
1.26231e-05
-3.94225e-07
1.25887e-05
-3.94984e-07
1.25816e-05
-3.34072e-07
1.25862e-05
-2.37961e-07
1.25838e-05
-2.12688e-07
1.25773e-05
-1.56752e-07
1.25743e-05
-1.08479e-07
1.2572e-05
-6.78763e-08
1.2569e-05
-5.56028e-08
1.25685e-05
-3.02424e-08
1.25734e-05
1.00594e-08
1.25781e-05
5.00369e-08
1.25806e-05
6.00427e-08
1.25832e-05
6.15178e-08
1.25874e-05
6.40887e-08
1.2594e-05
7.41427e-08
8.38903e-08
1.26013e-05
1.32434e-05
-9.49884e-08
1.32408e-05
-1.55303e-07
1.32456e-05
-2.5266e-07
1.32292e-05
-3.77794e-07
1.31967e-05
-3.62484e-07
1.31855e-05
-3.22843e-07
1.31887e-05
-2.41207e-07
1.31884e-05
-2.12353e-07
1.31811e-05
-1.49494e-07
1.31762e-05
-1.03528e-07
1.31736e-05
-6.53112e-08
1.31714e-05
-5.34181e-08
1.31708e-05
-2.96475e-08
1.31753e-05
5.63599e-09
1.31803e-05
4.50383e-08
1.31831e-05
5.72051e-08
1.31856e-05
5.8994e-08
1.31895e-05
6.02366e-08
1.31953e-05
6.83113e-08
7.67704e-08
1.32024e-05
1.38774e-05
-9.21776e-08
1.38743e-05
-1.52252e-07
1.38758e-05
-2.54111e-07
1.38631e-05
-3.65147e-07
1.38338e-05
-3.3318e-07
1.3819e-05
-3.08002e-07
1.38195e-05
-2.41747e-07
1.38208e-05
-2.13631e-07
1.38144e-05
-1.4313e-07
1.38079e-05
-9.70197e-08
1.38044e-05
-6.18311e-08
1.38027e-05
-5.17181e-08
1.38022e-05
-2.91057e-08
1.38062e-05
1.64981e-09
1.38114e-05
3.98165e-08
1.38146e-05
5.40251e-08
1.38171e-05
5.64908e-08
1.38207e-05
5.6659e-08
1.38259e-05
6.30877e-08
7.01547e-08
1.38325e-05
1.45412e-05
-8.97389e-08
1.45384e-05
-1.49391e-07
1.4535e-05
-2.50703e-07
1.45259e-05
-3.56073e-07
1.45012e-05
-3.08537e-07
1.44835e-05
-2.90296e-07
1.44799e-05
-2.38092e-07
1.44816e-05
-2.15313e-07
1.44777e-05
-1.39302e-07
1.44708e-05
-9.00886e-08
1.44661e-05
-5.71601e-08
1.44643e-05
-4.98718e-08
1.44639e-05
-2.87267e-08
1.44675e-05
-1.89506e-09
1.44729e-05
3.44042e-08
1.44764e-05
5.04521e-08
1.44789e-05
5.40176e-08
1.44822e-05
5.33407e-08
1.4487e-05
5.82986e-08
6.41478e-08
1.4493e-05
1.52364e-05
-8.72617e-08
1.52294e-05
-1.42349e-07
1.52231e-05
-2.44462e-07
1.52189e-05
-3.51868e-07
1.52001e-05
-2.89728e-07
1.51799e-05
-2.70057e-07
1.51712e-05
-2.2944e-07
1.51721e-05
-2.16222e-07
1.51717e-05
-1.38857e-07
1.5166e-05
-8.44531e-08
1.51602e-05
-5.13108e-08
1.51578e-05
-4.74322e-08
1.51574e-05
-2.83299e-08
1.51605e-05
-5.07261e-09
1.5166e-05
2.89324e-08
1.51701e-05
4.63793e-08
1.51726e-05
5.1467e-08
1.51756e-05
5.03347e-08
1.518e-05
5.39103e-08
5.86794e-08
1.51855e-05
1.59649e-05
-8.48372e-08
1.59732e-05
-1.50637e-07
1.59666e-05
-2.37892e-07
1.59551e-05
-3.40366e-07
1.59324e-05
-2.66991e-07
1.59084e-05
-2.46057e-07
1.5896e-05
-2.17014e-07
1.58948e-05
-2.15089e-07
1.58975e-05
-1.41496e-07
1.58946e-05
-8.16273e-08
1.58883e-05
-4.49508e-08
1.58848e-05
-4.39478e-08
1.58841e-05
-2.76441e-08
1.58869e-05
-7.88418e-09
1.58923e-05
2.35999e-08
1.58968e-05
4.18441e-08
1.58996e-05
4.86468e-08
1.59024e-05
4.75824e-08
1.59063e-05
4.99971e-08
5.36099e-08
1.59113e-05
1.67267e-05
-8.09682e-08
1.6718e-05
-1.4193e-07
1.67048e-05
-2.24617e-07
1.66993e-05
-3.34873e-07
1.66907e-05
-2.58445e-07
1.66736e-05
-2.28943e-07
1.66588e-05
-2.02167e-07
1.66533e-05
-2.09627e-07
1.66565e-05
-1.44732e-07
1.66573e-05
-8.23593e-08
1.66517e-05
-3.94207e-08
1.66473e-05
-3.94898e-08
1.6646e-05
-2.63717e-08
1.66484e-05
-1.02642e-08
1.66535e-05
1.84817e-08
1.66584e-05
3.69663e-08
1.66616e-05
4.54361e-08
1.66642e-05
4.49182e-08
1.66677e-05
4.65687e-08
4.89482e-08
1.66723e-05
1.75263e-05
-7.68738e-08
1.75312e-05
-1.46878e-07
1.75128e-05
-2.06239e-07
1.7496e-05
-3.18034e-07
1.74879e-05
-2.50324e-07
1.74745e-05
-2.15553e-07
1.74591e-05
-1.86772e-07
1.745e-05
-2.00521e-07
1.74513e-05
-1.46059e-07
1.74551e-05
-8.61374e-08
1.74517e-05
-3.60054e-08
1.74466e-05
-3.44213e-08
1.74446e-05
-2.43904e-08
1.74463e-05
-1.19523e-08
1.74511e-05
1.37151e-08
1.74562e-05
3.18476e-08
1.74597e-05
4.18826e-08
1.74626e-05
4.2109e-08
1.74657e-05
4.34676e-08
4.47558e-08
1.74699e-05
1.83632e-05
-7.17018e-08
1.83584e-05
-1.42059e-07
1.83438e-05
-1.91672e-07
1.83287e-05
-3.02964e-07
1.8323e-05
-2.4465e-07
1.83135e-05
-2.06055e-07
1.82985e-05
-1.71692e-07
1.82868e-05
-1.88863e-07
1.8285e-05
-1.442e-07
1.82899e-05
-9.10911e-08
1.82893e-05
-3.53845e-08
1.82845e-05
-2.96467e-08
1.82818e-05
-2.17146e-08
1.82827e-05
-1.27836e-08
1.82869e-05
9.45519e-09
1.82921e-05
2.66255e-08
1.8296e-05