/*--------------------------------*- C++ -*----------------------------------*\
| =========                 |                                                 |
| \\      /  F ield         | OpenFOAM: The Open Source CFD Toolbox           |
|  \\    /   O peration     | Version:  v1906                                 |
|   \\  /    A nd           | Web:      www.OpenFOAM.com                      |
|    \\/     M anipulation  |                                                 |
\*---------------------------------------------------------------------------*/
FoamFile
{
    version     2.0;
    format      ascii;
    class       volVectorField;
    location    "10.4";
    object      U;
}
// * * * * * * * * * * * * * * * * * * * * * * * * * * * * * * * * * * * * * //

dimensions      [0 1 -1 0 0 0 0];


internalField   nonuniform List<vector> 
9600
(
(0.622755 -0.00437745 0)
(1.39095 0.014444 0)
(0.508146 -0.0137076 0)
(1.32741 -0.0241482 0)
(0.876027 -0.010558 0)
(1.33646 0.012837 0)
(0.729775 0.00859277 0)
(1.212 0.000524373 0)
(0.747267 -0.0149472 0)
(1.23663 -0.0147988 0)
(0.816376 -0.0129284 0)
(1.21237 -0.00168618 0)
(0.817851 5.53047e-05 0)
(1.17198 0.00874617 0)
(0.867403 0.00599967 0)
(1.15307 0.00851466 0)
(0.883076 0.00692971 0)
(1.14592 0.00635584 0)
(0.873006 0.00564174 0)
(1.13518 0.00434818 0)
(0.637518 -0.00475181 0)
(1.37971 0.0154716 0)
(0.579461 -0.0135485 0)
(1.28562 -0.0272711 0)
(0.880985 -0.0113515 0)
(1.32272 0.0142568 0)
(0.771701 0.00955427 0)
(1.19052 0.000772833 0)
(0.807371 -0.0158799 0)
(1.21567 -0.0153708 0)
(0.859367 -0.013034 0)
(1.19153 -0.00120818 0)
(0.859579 0.000499823 0)
(1.13886 0.00814673 0)
(0.919026 0.00622819 0)
(1.10438 0.00817772 0)
(0.954576 0.00724474 0)
(1.07225 0.00606934 0)
(0.977497 0.00694654 0)
(1.02265 0.00377279 0)
(0.666821 -0.00509819 0)
(1.35477 0.0163377 0)
(0.66965 -0.0131798 0)
(1.22172 -0.0289672 0)
(0.895199 -0.0120562 0)
(1.29075 0.0157942 0)
(0.843891 0.0106947 0)
(1.16082 0.000634851 0)
(0.88233 -0.0165338 0)
(1.17522 -0.0157202 0)
(0.923344 -0.0128595 0)
(1.15057 -0.000918157 0)
(0.926485 0.00122245 0)
(1.08795 0.00718584 0)
(0.979203 0.00676583 0)
(1.05721 0.00756949 0)
(1.00665 0.00780137 0)
(1.03623 0.00578076 0)
(1.01508 0.00783258 0)
(1.01228 0.00471692 0)
(0.709793 -0.00542362 0)
(1.31461 0.0165656 0)
(0.766705 -0.0123535 0)
(1.14338 -0.0302996 0)
(0.916432 -0.0130375 0)
(1.24403 0.0164497 0)
(0.927043 0.011752 0)
(1.13255 0.000455616 0)
(0.953592 -0.0168038 0)
(1.12673 -0.0161156 0)
(0.98231 -0.0125626 0)
(1.10599 -0.000850086 0)
(0.98395 0.00215812 0)
(1.05 0.0064274 0)
(1.01409 0.00715343 0)
(1.03844 0.00717451 0)
(1.02667 0.00810243 0)
(1.03344 0.00570161 0)
(1.02573 0.00835884 0)
(1.02209 0.00576128 0)
(0.763262 -0.00574808 0)
(1.26116 0.0163225 0)
(0.85523 -0.0110782 0)
(1.0642 -0.0311564 0)
(0.938427 -0.0142853 0)
(1.19121 0.016252 0)
(1.00351 0.012671 0)
(1.11523 0.000385076 0)
(1.00731 -0.0166429 0)
(1.0849 -0.0164308 0)
(1.01845 -0.0122719 0)
(1.07276 -0.000817397 0)
(1.01714 0.0030165 0)
(1.03421 0.00605302 0)
(1.02802 0.00721517 0)
(1.03716 0.00696805 0)
(1.03561 0.00816304 0)
(1.03903 0.00568485 0)
(1.0344 0.00875069 0)
(1.03119 0.00658833 0)
(0.821247 -0.00604029 0)
(1.20065 0.0157912 0)
(0.924368 -0.00951627 0)
(0.998827 -0.0315991 0)
(0.954574 -0.0157416 0)
(1.14319 0.0154192 0)
(1.06246 0.0132676 0)
(1.11156 0.00056784 0)
(1.04099 -0.0160408 0)
(1.05683 -0.0164972 0)
(1.03107 -0.0120533 0)
(1.0525 -0.000817215 0)
(1.03087 0.00359922 0)
(1.03183 0.00591974 0)
(1.03386 0.00709028 0)
(1.04068 0.00675389 0)
(1.04257 0.00810119 0)
(1.04552 0.00568794 0)
(1.04274 0.00900406 0)
(1.03976 0.00735826 0)
(0.876155 -0.00628137 0)
(1.14202 0.0151192 0)
(0.971274 -0.00786404 0)
(0.957267 -0.0316746 0)
(0.961731 -0.0173627 0)
(1.10742 0.0140549 0)
(1.1012 0.0134085 0)
(1.11631 0.00103652 0)
(1.05946 -0.015021 0)
(1.04079 -0.0162344 0)
(1.02895 -0.0118894 0)
(1.03926 -0.00092792 0)
(1.03388 0.00387942 0)
(1.03342 0.00583864 0)
(1.0377 0.0068859 0)
(1.04439 0.00647592 0)
(1.04819 0.00795243 0)
(1.05104 0.00568678 0)
(1.04935 0.00913108 0)
(1.04675 0.00812526 0)
(0.921353 -0.00647329 0)
(1.09325 0.0144495 0)
(0.999663 -0.00630914 0)
(0.940872 -0.0314392 0)
(0.96153 -0.0190838 0)
(1.08412 0.0122376 0)
(1.12168 0.0131196 0)
(1.12144 0.00173036 0)
(1.06804 -0.0136488 0)
(1.03169 -0.0156461 0)
(1.02085 -0.0117119 0)
(1.02809 -0.00117364 0)
(1.03147 0.00388499 0)
(1.03424 0.00566881 0)
(1.04025 0.00661536 0)
(1.04688 0.00616077 0)
(1.05171 0.00772685 0)
(1.05424 0.00567946 0)
(1.05323 0.00918407 0)
(1.05088 0.00887918 0)
(0.953433 -0.00662503 0)
(1.05809 0.0138631 0)
(1.01564 -0.00497322 0)
(0.943224 -0.0309518 0)
(0.958321 -0.0207548 0)
(1.06824 0.010101 0)
(1.12683 0.0125296 0)
(1.12089 0.00255359 0)
(1.06969 -0.0120393 0)
(1.02563 -0.0147937 0)
(1.01201 -0.0114545 0)
(1.01746 -0.00153517 0)
(1.02597 0.00363952 0)
(1.0325 0.00534002 0)
(1.0404 0.00627276 0)
(1.04699 0.00583094 0)
(1.05227 0.00745038 0)
(1.05421 0.00570228 0)
(1.05355 0.00920653 0)
(1.05142 0.00959227 0)
(0.972837 -0.00674131 0)
(1.03567 0.0133589 0)
(1.02428 -0.00391098 0)
(0.955193 -0.0302669 0)
(0.955961 -0.0222278 0)
(1.05435 0.0078209 0)
(1.11945 0.0117762 0)
(1.11235 0.00338918 0)
(1.06573 -0.0103425 0)
(1.02075 -0.0137765 0)
(1.00476 -0.0110919 0)
(1.00785 -0.00196051 0)
(1.01869 0.00319694 0)
(1.02775 0.00486265 0)
(1.03713 0.00585762 0)
(1.04365 0.00549288 0)
(1.04909 0.00715516 0)
(1.05047 0.00577735 0)
(1.04996 0.0092123 0)
(1.04816 0.0102344 0)
(0.98276 -0.00682043 0)
(1.02243 0.0128913 0)
(1.02852 -0.00312133 0)
(0.969558 -0.0294489 0)
(0.956103 -0.0233924 0)
(1.03968 0.00559474 0)
(1.10271 0.0109639 0)
(1.09675 0.00413765 0)
(1.05733 -0.00871288 0)
(1.01634 -0.0127143 0)
(0.999769 -0.0106363 0)
(1.00014 -0.00236715 0)
(1.01079 0.00265477 0)
(1.02053 0.00430208 0)
(1.03036 0.00538465 0)
(1.03666 0.00515739 0)
(1.04203 0.00685448 0)
(1.04315 0.0058843 0)
(1.04284 0.0091987 0)
(1.04156 0.0107843 0)
(0.987197 -0.00685801 0)
(1.01457 0.0124205 0)
(1.02966 -0.00257279 0)
(0.982356 -0.0285742 0)
(0.958539 -0.0241896 0)
(1.0242 0.00360072 0)
(1.08045 0.0101707 0)
(1.07694 0.00473234 0)
(1.04614 -0.00727416 0)
(1.01219 -0.0117206 0)
(0.996823 -0.0101194 0)
(0.994814 -0.00268351 0)
(1.00343 0.00211919 0)
(1.01212 0.00374549 0)
(1.02126 0.00489364 0)
(1.02701 0.00484301 0)
(1.0321 0.00654434 0)
(1.03326 0.0059843 0)
(1.0333 0.00916234 0)
(1.03275 0.0112188 0)
(0.989318 -0.00685477 0)
(1.00942 0.011936 0)
(1.02855 -0.0022175 0)
(0.992076 -0.0277096 0)
(0.962327 -0.0246256 0)
(1.00937 0.00194547 0)
(1.05685 0.00944211 0)
(1.05642 0.00513803 0)
(1.0342 -0.00609798 0)
(1.00825 -0.0108748 0)
(0.995273 -0.00958425 0)
(0.991735 -0.00287819 0)
(0.997571 0.00166863 0)
(1.00414 0.00327253 0)
(1.0118 0.00443385 0)
(1.01666 0.00456745 0)
(1.02121 0.00622817 0)
(1.02248 0.00604839 0)
(1.02298 0.00909784 0)
(1.02322 0.0115098 0)
(0.990848 -0.006817 0)
(1.00559 0.0114519 0)
(1.02609 -0.00200323 0)
(0.99861 -0.026897 0)
(0.966544 -0.0247453 0)
(0.996833 0.000653622 0)
(1.03555 0.00879078 0)
(1.03813 0.00534446 0)
(1.02334 -0.00519829 0)
(1.00464 -0.0102087 0)
(0.994436 -0.0090759 0)
(0.990313 -0.00296183 0)
(0.993644 0.00133385 0)
(0.997885 0.00292443 0)
(1.00385 0.00403863 0)
(1.00761 0.00434457 0)
(1.0114 0.00592793 0)
(1.01263 0.00606569 0)
(1.01347 0.00900173 0)
(1.01437 0.0116486 0)
(0.992351 -0.00675207 0)
(1.00258 0.010986 0)
(1.02319 -0.0018874 0)
(1.00254 -0.0261496 0)
(0.970534 -0.0246213 0)
(0.987547 -0.00030562 0)
(1.01879 0.00820553 0)
(1.02377 0.00537152 0)
(1.01468 -0.00454077 0)
(1.00155 -0.00970611 0)
(0.993852 -0.00862505 0)
(0.98984 -0.00296702 0)
(0.991514 0.00109854 0)
(0.993887 0.00269639 0)
(0.998425 0.00372004 0)
(1.00111 0.00418187 0)
(1.00402 0.0056738 0)
(1.00495 0.00604697 0)
(1.00588 0.00888568 0)
(1.00713 0.0116648 0)
(0.99381 -0.0066665 0)
(1.00028 0.0105456 0)
(1.02046 -0.00183635 0)
(1.00466 -0.0254643 0)
(0.973935 -0.0243222 0)
(0.981514 -0.00100675 0)
(1.00706 0.00767717 0)
(1.01362 0.00525207 0)
(1.00849 -0.00407061 0)
(0.999116 -0.00932367 0)
(0.993347 -0.00824191 0)
(0.989765 -0.00293048 0)
(0.990655 0.000920683 0)
(0.991867 0.00255667 0)
(0.99547 0.00347349 0)
(0.997294 0.00407568 0)
(0.999376 0.00548669 0)
(0.999831 0.00602218 0)
(1.00057 0.00877366 0)
(1.00184 0.0116119 0)
(0.995069 -0.00656557 0)
(0.998616 0.0101286 0)
(1.01816 -0.00182355 0)
(1.00567 -0.0248328 0)
(0.976636 -0.0238984 0)
(0.978107 -0.00151391 0)
(0.999641 0.00719341 0)
(1.00703 0.00502667 0)
(1.00441 -0.00373466 0)
(0.997387 -0.0090149 0)
(0.992933 -0.00792047 0)
(0.989804 -0.00287874 0)
(0.990478 0.000763077 0)
(0.991131 0.00246612 0)
(0.994262 0.00328417 0)
(0.995537 0.00400868 0)
(0.99695 0.00537179 0)
(0.996915 0.00601998 0)
(0.997324 0.00868283 0)
(0.998369 0.0115366 0)
(0.996033 -0.00645282 0)
(0.997527 0.00972779 0)
(1.01631 -0.0018285 0)
(1.00604 -0.0242447 0)
(0.978681 -0.0233976 0)
(0.976533 -0.0018933 0)
(0.995303 0.00673486 0)
(1.003 0.00473789 0)
(1.00185 -0.00348896 0)
(0.99627 -0.00874298 0)
(0.99267 -0.00764796 0)
(0.989884 -0.00282405 0)
(0.990567 0.000605816 0)
(0.991016 0.00239084 0)
(0.993955 0.00313648 0)
(0.994961 0.00395963 0)
(0.995903 0.00532015 0)
(0.995494 0.00605201 0)
(0.995567 0.00861535 0)
(0.996304 0.0114629 0)
(0.996694 -0.00633054 0)
(0.996909 0.00933633 0)
(1.01483 -0.00184186 0)
(1.0061 -0.0236877 0)
(0.980175 -0.0228489 0)
(0.976106 -0.00219601 0)
(0.992917 0.00629411 0)
(1.00063 0.0044092 0)
(1.00025 -0.00330494 0)
(0.995616 -0.00848382 0)
(0.992586 -0.00741161 0)
(0.990026 -0.00277137 0)
(0.990719 0.00044229 0)
(0.991099 0.00230934 0)
(0.993937 0.00301926 0)
(0.99486 0.00391739 0)
(0.995488 0.00531225 0)
(0.994864 0.00611708 0)
(0.994692 0.00856907 0)
(0.99517 0.0113978 0)
(0.997087 -0.00620051 0)
(0.996661 0.00894854 0)
(1.01362 -0.0018582 0)
(1.00602 -0.0231492 0)
(0.981235 -0.0222717 0)
(0.976321 -0.0024413 0)
(0.991652 0.00586396 0)
(0.999269 0.00406042 0)
(0.999215 -0.00316394 0)
(0.99528 -0.00822715 0)
(0.992657 -0.00719615 0)
(0.990249 -0.00271705 0)
(0.990863 0.000278543 0)
(0.991193 0.00221478 0)
(0.993901 0.0029236 0)
(0.994834 0.0038792 0)
(0.995237 0.0053268 0)
(0.994535 0.00620438 0)
(0.99423 0.00854061 0)
(0.994564 0.0113417 0)
(0.997255 -0.00606416 0)
(0.996694 0.0085583 0)
(1.01259 -0.0018698 0)
(1.00591 -0.0226198 0)
(0.981975 -0.0216786 0)
(0.976847 -0.00265488 0)
(0.990991 0.0054372 0)
(0.998515 0.00370101 0)
(0.998538 -0.00305488 0)
(0.995155 -0.00796345 0)
(0.99284 -0.00700208 0)
(0.990535 -0.00265502 0)
(0.990976 0.00012612 0)
(0.991241 0.00210984 0)
(0.99376 0.00284301 0)
(0.994745 0.00384241 0)
(0.994968 0.00535168 0)
(0.994277 0.00630082 0)
(0.993933 0.0085172 0)
(0.994232 0.0112905 0)
(0.997239 -0.00592209 0)
(0.996934 0.00816094 0)
(1.0117 -0.0018741 0)
(1.00582 -0.0220925 0)
(0.982505 -0.0210751 0)
(0.977512 -0.00284697 0)
(0.990664 0.00501029 0)
(0.998126 0.0033342 0)
(0.998095 -0.00297002 0)
(0.99516 -0.00769033 0)
(0.993088 -0.00682322 0)
(0.990856 -0.00258909 0)
(0.991056 -6.93868e-06 0)
(0.991243 0.00200086 0)
(0.993543 0.00278071 0)
(0.9946 0.00380438 0)
(0.99468 0.00538014 0)
(0.994049 0.00640245 0)
(0.993735 0.00848131 0)
(0.994075 0.0112306 0)
(0.997085 -0.00577434 0)
(0.997303 0.0077527 0)
(1.0109 -0.00187034 0)
(1.00573 -0.021563 0)
(0.98293 -0.0204665 0)
(0.978245 -0.00302211 0)
(0.99055 0.00457672 0)
(0.997945 0.00296372 0)
(0.997801 -0.00290551 0)
(0.995228 -0.00741447 0)
(0.993369 -0.00664109 0)
(0.991187 -0.00252575 0)
(0.99112 -0.000117355 0)
(0.99123 0.00189142 0)
(0.993315 0.00273945 0)
(0.994458 0.00376824 0)
(0.994437 0.00539978 0)
(0.993883 0.00650626 0)
(0.993651 0.00842655 0)
(0.994074 0.011135 0)
(0.996854 -0.00562177 0)
(0.997721 0.00733374 0)
(1.01017 -0.00186005 0)
(1.00562 -0.0210269 0)
(0.983329 -0.0198564 0)
(0.979017 -0.00318676 0)
(0.990594 0.00413533 0)
(0.997856 0.00258993 0)
(0.997587 -0.00285738 0)
(0.995305 -0.0071368 0)
(0.99366 -0.00645429 0)
(0.991522 -0.00246664 0)
(0.991198 -0.000205182 0)
(0.991235 0.001782 0)
(0.99314 0.00270924 0)
(0.994363 0.00373709 0)
(0.994295 0.00540506 0)
(0.993809 0.0066041 0)
(0.993696 0.00835992 0)
(0.994219 0.0109756 0)
(0.996614 -0.00546396 0)
(0.998114 0.00690331 0)
(1.00951 -0.00184253 0)
(1.00546 -0.0204809 0)
(0.98375 -0.0192471 0)
(0.979805 -0.00334323 0)
(0.990758 0.00368661 0)
(0.997785 0.0022157 0)
(0.997404 -0.00282072 0)
(0.995361 -0.00686028 0)
(0.993947 -0.00626423 0)
(0.991861 -0.00240455 0)
(0.991318 -0.000268455 0)
(0.991282 0.0016766 0)
(0.993055 0.00268448 0)
(0.994338 0.0037066 0)
(0.994272 0.00539696 0)
(0.993823 0.00669562 0)
(0.99385 0.00829801 0)
(0.994475 0.010747 0)
(0.996424 -0.00529977 0)
(0.998428 0.00645992 0)
(1.00891 -0.00182038 0)
(1.00523 -0.0199228 0)
(0.984206 -0.0186446 0)
(0.980581 -0.00349103 0)
(0.991004 0.00323126 0)
(0.997695 0.00184237 0)
(0.997228 -0.00278813 0)
(0.995388 -0.00658294 0)
(0.994227 -0.00606998 0)
(0.992203 -0.00234666 0)
(0.991487 -0.000308175 0)
(0.991377 0.0015721 0)
(0.993071 0.00266817 0)
(0.994383 0.00367829 0)
(0.994362 0.00536285 0)
(0.99391 0.00677432 0)
(0.994075 0.0082632 0)
(0.994794 0.0104812 0)
(0.996321 -0.00512945 0)
(0.998639 0.00600619 0)
(1.00836 -0.00179552 0)
(1.00494 -0.0193525 0)
(0.984694 -0.0180488 0)
(0.981329 -0.00363223 0)
(0.991299 0.00277584 0)
(0.997586 0.00146982 0)
(0.997045 -0.00275918 0)
(0.995393 -0.00630713 0)
(0.994493 -0.00587544 0)
(0.992545 -0.00229796 0)
(0.9917 -0.00032787 0)
(0.991514 0.00146364 0)
(0.993176 0.00265313 0)
(0.994483 0.0036651 0)
(0.994546 0.0052949 0)
(0.994055 0.0068071 0)
(0.994343 0.00825283 0)
(0.995131 0.0102321 0)
(0.996314 -0.0049534 0)
(0.998749 0.00554607 0)
(1.00787 -0.00177114 0)
(1.00463 -0.0187644 0)
(0.985199 -0.0174631 0)
(0.982044 -0.00376922 0)
(0.991608 0.00232314 0)
(0.997467 0.00110199 0)
(0.99685 -0.0027387 0)
(0.995379 -0.00603512 0)
(0.99474 -0.00568448 0)
(0.992881 -0.00225214 0)
(0.99194 -0.000326316 0)
(0.991681 0.00135914 0)
(0.993346 0.00262593 0)
(0.994624 0.00367082 0)
(0.994796 0.00521887 0)
(0.99425 0.00677755 0)
(0.99464 0.00822413 0)
(0.995464 0.0100274 0)
(0.996389 -0.00477098 0)
(0.998783 0.00508073 0)
(1.0074 -0.0017514 0)
(1.00433 -0.018157 0)
(0.985715 -0.0168903 0)
(0.982735 -0.00389914 0)
(0.991906 0.00186865 0)
(0.997346 0.000734261 0)
(0.996639 -0.00272929 0)
(0.995348 -0.00576918 0)
(0.994963 -0.00548923 0)
(0.993209 -0.00221094 0)
(0.992188 -0.000303498 0)
(0.991864 0.00127266 0)
(0.993559 0.00258613 0)
(0.994795 0.00368076 0)
(0.995085 0.00516079 0)
(0.994481 0.00671967 0)
(0.994963 0.00814585 0)
(0.995791 0.00983986 0)
(0.996519 -0.00458326 0)
(0.998775 0.00461555 0)
(1.00695 -0.00174016 0)
(1.00404 -0.017534 0)
(0.986238 -0.0163255 0)
(0.983413 -0.00402471 0)
(0.992177 0.00142096 0)
(0.997228 0.000368259 0)
(0.996411 -0.00272771 0)
(0.9953 -0.00551217 0)
(0.99516 -0.00529221 0)
(0.993524 -0.00218176 0)
(0.992431 -0.000272696 0)
(0.992053 0.00120472 0)
(0.99379 0.00254085 0)
(0.994987 0.00368264 0)
(0.995393 0.00511097 0)
(0.994736 0.00666753 0)
(0.995298 0.00803743 0)
(0.996118 0.00962636 0)
(0.996675 -0.00439126 0)
(0.998756 0.00415459 0)
(1.0065 -0.00174027 0)
(1.00379 -0.0168964 0)
(0.986771 -0.0157685 0)
(0.984091 -0.00414764 0)
(0.992417 0.000989315 0)
(0.997114 6.69225e-06 0)
(0.996172 -0.00272905 0)
(0.995232 -0.00525567 0)
(0.99533 -0.00510093 0)
(0.993824 -0.00216372 0)
(0.992661 -0.000243295 0)
(0.992241 0.00115148 0)
(0.994024 0.0024908 0)
(0.995192 0.00368068 0)
(0.995705 0.00504959 0)
(0.995005 0.00660992 0)
(0.995627 0.00793564 0)
(0.996447 0.00938242 0)
(0.996834 -0.00419574 0)
(0.998749 0.00370134 0)
(1.00605 -0.00175323 0)
(1.00355 -0.0162445 0)
(0.987316 -0.0152176 0)
(0.984776 -0.00427112 0)
(0.992636 0.000570632 0)
(0.997004 -0.000350613 0)
(0.995932 -0.00273942 0)
(0.995146 -0.00500179 0)
(0.995476 -0.00490806 0)
(0.994111 -0.00215075 0)
(0.992876 -0.000207563 0)
(0.992425 0.0011176 0)
(0.994251 0.00243508 0)
(0.995402 0.00367878 0)
(0.996007 0.00497979 0)
(0.995285 0.00651448 0)
(0.99594 0.00784344 0)
(0.996764 0.00914093 0)
(0.996986 -0.00399727 0)
(0.998765 0.00325707 0)
(1.00558 -0.00178183 0)
(1.00332 -0.0155821 0)
(0.987872 -0.0146689 0)
(0.985469 -0.00439864 0)
(0.992846 0.000165109 0)
(0.9969 -0.000694203 0)
(0.9957 -0.00276058 0)
(0.995047 -0.00476032 0)
(0.995604 -0.00470996 0)
(0.994387 -0.00214305 0)
(0.993079 -0.0001674 0)
(0.992598 0.00110013 0)
(0.994466 0.00237762 0)
(0.995613 0.0036743 0)
(0.996289 0.00492208 0)
(0.995569 0.00637895 0)
(0.996236 0.00772773 0)
(0.99706 0.00892661 0)
(0.997127 -0.00379646 0)
(0.998805 0.0028232 0)
(1.00511 -0.00182079 0)
(1.00308 -0.0149236 0)
(0.988434 -0.0141217 0)
(0.986169 -0.0045244 0)
(0.993058 -0.000231084 0)
(0.996805 -0.00102402 0)
(0.995486 -0.00278965 0)
(0.994943 -0.00453858 0)
(0.995719 -0.0045126 0)
(0.994655 -0.00213699 0)
(0.993273 -0.000130726 0)
(0.99276 0.00109195 0)
(0.994668 0.00232049 0)
(0.995823 0.00366171 0)
(0.996545 0.00488656 0)
(0.995845 0.00623496 0)
(0.996518 0.00756387 0)
(0.997332 0.00872736 0)
(0.997258 -0.00359518 0)
(0.998867 0.00240385 0)
(1.00464 -0.0018661 0)
(1.00284 -0.0142744 0)
(0.988996 -0.0135765 0)
(0.986868 -0.00464503 0)
(0.993277 -0.000608203 0)
(0.996722 -0.00134134 0)
(0.995294 -0.00282356 0)
(0.994838 -0.0043344 0)
(0.995827 -0.00432074 0)
(0.994917 -0.00213188 0)
(0.993465 -0.000101006 0)
(0.992912 0.00108971 0)
(0.994857 0.00226094 0)
(0.996033 0.00363221 0)
(0.996776 0.00486097 0)
(0.996101 0.00610874 0)
(0.996786 0.00736271 0)
(0.997586 0.00851361 0)
(0.997383 -0.00339413 0)
(0.998944 0.00199662 0)
(1.00418 -0.00191371 0)
(1.00259 -0.013637 0)
(0.989552 -0.013027 0)
(0.987562 -0.00476385 0)
(0.993503 -0.000970702 0)
(0.996652 -0.00163813 0)
(0.995125 -0.00286046 0)
(0.994737 -0.00414199 0)
(0.995927 -0.0041334 0)
(0.995175 -0.00212423 0)
(0.993658 -7.36781e-05 0)
(0.993055 0.00109665 0)
(0.995033 0.00219772 0)
(0.996243 0.00358209 0)
(0.996989 0.00482802 0)
(0.996333 0.00599987 0)
(0.997032 0.00715027 0)
(0.997829 0.00826596 0)
(0.997502 -0.003194 0)
(0.999031 0.00160365 0)
(1.00373 -0.0019591 0)
(1.00233 -0.0130226 0)
(0.990097 -0.0124781 0)
(0.988243 -0.00487436 0)
(0.993735 -0.00133035 0)
(0.996595 -0.00191103 0)
(0.994978 -0.00289239 0)
(0.99464 -0.00395862 0)
(0.996018 -0.00395769 0)
(0.995432 -0.00212035 0)
(0.993856 -4.82523e-05 0)
(0.993188 0.00111745 0)
(0.995197 0.00213086 0)
(0.996452 0.00350945 0)
(0.997189 0.00478636 0)
(0.99654 0.00589991 0)
(0.99725 0.00694298 0)
(0.998062 0.00798391 0)
(0.997618 -0.00299453 0)
(0.999122 0.00122198 0)
(1.00329 -0.00199752 0)
(1.00208 -0.0124341 0)
(0.990628 -0.0119404 0)
(0.988905 -0.00497004 0)
(0.99397 -0.00168058 0)
(0.996553 -0.00217456 0)
(0.994853 -0.00291798 0)
(0.994547 -0.00378686 0)
(0.996097 -0.00379311 0)
(0.995685 -0.00212192 0)
(0.994061 -2.80298e-05 0)
(0.993313 0.00115549 0)
(0.995348 0.0020643 0)
(0.996664 0.00340708 0)
(0.997382 0.00473658 0)
(0.996722 0.0058138 0)
(0.997435 0.00674878 0)
(0.998283 0.00767594 0)
(0.99773 -0.00279746 0)
(0.999215 0.000853716 0)
(1.00288 -0.00201968 0)
(1.00183 -0.0118682 0)
(0.991145 -0.0114131 0)
(0.989547 -0.00504911 0)
(0.994203 -0.00202408 0)
(0.996526 -0.00243218 0)
(0.994748 -0.00294297 0)
(0.99446 -0.00362563 0)
(0.996163 -0.00363327 0)
(0.995935 -0.00213292 0)
(0.994276 -1.3902e-05 0)
(0.99343 0.00121391 0)
(0.99548 0.0020116 0)
(0.996878 0.0032712 0)
(0.997578 0.00466047 0)
(0.996881 0.00574651 0)
(0.997578 0.00657988 0)
(0.998479 0.00735723 0)
(0.997841 -0.00260449 0)
(0.999308 0.000501068 0)
(1.00248 -0.00203104 0)
(1.00159 -0.0113216 0)
(0.991648 -0.0109006 0)
(0.990164 -0.00509793 0)
(0.994431 -0.00234795 0)
(0.996514 -0.00268157 0)
(0.994665 -0.00296826 0)
(0.994379 -0.00346322 0)
(0.996212 -0.00347737 0)
(0.996177 -0.00215881 0)
(0.994504 -2.2841e-05 0)
(0.993542 0.00128797 0)
(0.995588 0.00198823 0)
(0.99709 0.00311035 0)
(0.997787 0.00453491 0)
(0.997029 0.00568283 0)
(0.997674 0.00645497 0)
(0.998633 0.00706174 0)
(0.997949 -0.00241311 0)
(0.999401 0.000157412 0)
(1.0021 -0.00203448 0)
(1.00136 -0.0107842 0)
(0.992139 -0.0104218 0)
(0.990759 -0.00512232 0)
(0.994651 -0.00264999 0)
(0.996516 -0.00292619 0)
(0.994603 -0.00299059 0)
(0.994306 -0.00330093 0)
(0.996244 -0.00331796 0)
(0.996411 -0.00218956 0)
(0.994748 -6.44583e-05 0)
(0.993654 0.00136687 0)
(0.995664 0.00200284 0)
(0.997287 0.00294615 0)
(0.998015 0.00435412 0)
(0.997184 0.00558844 0)
(0.997732 0.00636377 0)
(0.998723 0.00682744 0)
(0.998055 -0.00222771 0)
(0.999494 -0.00016661 0)
(1.00175 -0.00203897 0)
(1.00113 -0.0102463 0)
(0.992616 -0.00998164 0)
(0.991331 -0.00512684 0)
(0.994863 -0.00292317 0)
(0.996535 -0.0031639 0)
(0.994565 -0.00301427 0)
(0.994239 -0.00314615 0)
(0.996258 -0.003146 0)
(0.996632 -0.00221874 0)
(0.995011 -0.000135059 0)
(0.993775 0.00143258 0)
(0.995709 0.00205089 0)
(0.997456 0.00280228 0)
(0.998256 0.00413448 0)
(0.997362 0.00544808 0)
(0.997773 0.00626649 0)
(0.998742 0.00666052 0)
(0.998159 -0.00205026 0)
(0.999587 -0.000470126 0)
(1.00142 -0.0020557 0)
(1.00091 -0.00969479 0)
(0.993081 -0.0095805 0)
(0.991883 -0.00511996 0)
(0.995065 -0.00314867 0)
(0.996569 -0.00339707 0)
(0.994553 -0.00305265 0)
(0.994184 -0.00300174 0)
(0.996252 -0.00296257 0)
(0.996837 -0.00223393 0)
(0.995295 -0.000232668 0)
(0.993915 0.0014695 0)
(0.995726 0.0021188 0)
(0.997586 0.00268774 0)
(0.998502 0.00388878 0)
(0.997564 0.00526967 0)
(0.997815 0.00614104 0)
(0.998705 0.00652155 0)
(0.99826 -0.00187914 0)
(0.99968 -0.000753962 0)
(1.00112 -0.00208937 0)
(1.00069 -0.00912669 0)
(0.993528 -0.00921019 0)
(0.99242 -0.00511472 0)
(0.995256 -0.00332216 0)
(0.996616 -0.00361644 0)
(0.994571 -0.00310263 0)
(0.994145 -0.00285971 0)
(0.996229 -0.00277237 0)
(0.997022 -0.00222552 0)
(0.995597 -0.000347497 0)
(0.994083 0.00146822 0)
(0.995725 0.00219239 0)
(0.997669 0.00260829 0)
(0.998742 0.00362297 0)
(0.997795 0.00504601 0)
(0.997867 0.00599792 0)
(0.998638 0.00636367 0)
(0.99836 -0.00171862 0)
(0.999771 -0.00100845 0)
(1.00086 -0.00214754 0)
(1.00048 -0.00854204 0)
(0.993956 -0.00885379 0)
(0.992943 -0.00512092 0)
(0.995438 -0.00344737 0)
(0.996674 -0.00380066 0)
(0.994622 -0.00316167 0)
(0.994128 -0.00272551 0)
(0.996189 -0.00257032 0)
(0.99718 -0.00218737 0)
(0.995914 -0.000467801 0)
(0.994286 0.00141997 0)
(0.995719 0.00225132 0)
(0.997701 0.0025731 0)
(0.998961 0.00336768 0)
(0.998061 0.0047586 0)
(0.997935 0.00584414 0)
(0.998556 0.00618503 0)
(0.998457 -0.0015718 0)
(0.999859 -0.00122676 0)
(1.00062 -0.0022302 0)
(1.00028 -0.0079506 0)
(0.994358 -0.00849902 0)
(0.993457 -0.005148 0)
(0.995616 -0.00354595 0)
(0.99674 -0.00394823 0)
(0.994705 -0.00322649 0)
(0.994141 -0.00261431 0)
(0.996139 -0.00236664 0)
(0.997305 -0.0021172 0)
(0.996234 -0.000586209 0)
(0.994527 0.00132248 0)
(0.995723 0.00226729 0)
(0.997689 0.00256306 0)
(0.999137 0.00316085 0)
(0.998358 0.00441054 0)
(0.998036 0.00564818 0)
(0.998462 0.0060148 0)
(0.998552 -0.00143767 0)
(0.999942 -0.00140861 0)
(1.00042 -0.0023365 0)
(1.0001 -0.00737222 0)
(0.994731 -0.0081222 0)
(0.99396 -0.00519807 0)
(0.995794 -0.00361349 0)
(0.996813 -0.00404269 0)
(0.994818 -0.00329617 0)
(0.994187 -0.00253031 0)
(0.99609 -0.00216837 0)
(0.997399 -0.00201542 0)
(0.996545 -0.000691972 0)
(0.994801 0.00119105 0)
(0.99575 0.00223877 0)
(0.997653 0.00254143 0)
(0.999257 0.00301334 0)
(0.998664 0.00404822 0)
(0.998193 0.00537063 0)
(0.998369 0.00585826 0)
(0.998644 -0.0013187 0)
(1.00002 -0.00155317 0)
(1.00026 -0.00245588 0)
(0.999933 -0.00682494 0)
(0.995068 -0.00770887 0)
(0.994449 -0.00526214 0)
(0.99598 -0.00366019 0)
(0.996889 -0.00406937 0)
(0.994955 -0.00335386 0)
(0.994273 -0.00247908 0)
(0.996052 -0.00199459 0)
(0.997463 -0.00189549 0)
(0.996841 -0.000777196 0)
(0.995103 0.00103749 0)
(0.995803 0.00217999 0)
(0.997607 0.002491 0)
(0.999326 0.00289461 0)
(0.99895 0.00372411 0)
(0.998412 0.00501771 0)
(0.9983 0.00568633 0)
(0.998734 -0.00121666 0)
(1.00009 -0.00165573 0)
(1.00013 -0.00258382 0)
(0.999791 -0.00632927 0)
(0.995371 -0.00725437 0)
(0.994921 -0.00531461 0)
(0.99618 -0.003712 0)
(0.996972 -0.00404248 0)
(0.995108 -0.00337861 0)
(0.994394 -0.00246242 0)
(0.996035 -0.00185427 0)
(0.99751 -0.00176609 0)
(0.997116 -0.000830239 0)
(0.99543 0.000874536 0)
(0.995885 0.00210312 0)
(0.997559 0.00242347 0)
(0.999359 0.00276896 0)
(0.999199 0.00344269 0)
(0.99868 0.00462652 0)
(0.998289 0.00545573 0)
(0.998821 -0.00113119 0)
(1.00015 -0.00171908 0)
(1.00003 -0.00271354 0)
(0.999682 -0.00589203 0)
(0.995639 -0.00676583 0)
(0.995366 -0.00533497 0)
(0.996397 -0.00378442 0)
(0.997067 -0.00397635 0)
(0.995269 -0.00335524 0)
(0.994546 -0.00245931 0)
(0.996045 -0.00175155 0)
(0.997548 -0.00163837 0)
(0.997369 -0.000855708 0)
(0.995774 0.000704125 0)
(0.995997 0.00200317 0)
(0.997507 0.00235724 0)
(0.99936 0.00264479 0)
(0.999408 0.00319271 0)
(0.998973 0.00423832 0)
(0.998359 0.00515071 0)
(0.998905 -0.00106235 0)
(1.00019 -0.00174542 0)
(0.999954 -0.00283618 0)
(0.999609 -0.00552002 0)
(0.995876 -0.00626456 0)
(0.995776 -0.00530672 0)
(0.996632 -0.00388026 0)
(0.997185 -0.00390575 0)
(0.995436 -0.00327173 0)
(0.994717 -0.00243888 0)
(0.996081 -0.00168682 0)
(0.997584 -0.00153226 0)
(0.997599 -0.000857734 0)
(0.996131 0.000537276 0)
(0.996149 0.00187238 0)
(0.997465 0.0022848 0)
(0.999334 0.00254101 0)
(0.999575 0.00297544 0)
(0.999268 0.00387818 0)
(0.998509 0.00479408 0)
(0.998985 -0.00100939 0)
(1.00023 -0.00173685 0)
(0.999896 -0.0029387 0)
(0.999574 -0.00522236 0)
(0.99609 -0.0057687 0)
(0.996143 -0.00522041 0)
(0.996878 -0.00397803 0)
(0.997333 -0.00386021 0)
(0.995615 -0.00314142 0)
(0.994898 -0.00238332 0)
(0.996138 -0.00163105 0)
(0.997627 -0.00144887 0)
(0.997811 -0.000840921 0)
(0.996491 0.000388922 0)
(0.996336 0.00173244 0)
(0.997445 0.00220128 0)
(0.99929 0.00244755 0)
(0.999698 0.0027896 0)
(0.999543 0.00355026 0)
(0.998722 0.00441082 0)
(0.999061 -0.000970579 0)
(1.00025 -0.00171167 0)
(0.999847 -0.0030108 0)
(0.999577 -0.00498694 0)
(0.99629 -0.00528499 0)
(0.996465 -0.00506123 0)
(0.997123 -0.00405739 0)
(0.997519 -0.0038616 0)
(0.995812 -0.0030024 0)
(0.995082 -0.00229119 0)
(0.996207 -0.00157838 0)
(0.997676 -0.00139558 0)
(0.998006 -0.000829184 0)
(0.996854 0.000247663 0)
(0.996561 0.00158397 0)
(0.997448 0.00210954 0)
(0.999238 0.00234786 0)
(0.999781 0.00262474 0)
(0.999784 0.00326325 0)
(0.998972 0.00403235 0)
(0.999131 -0.000939505 0)
(1.00026 -0.00166584 0)
(0.999803 -0.0030574 0)
(0.999618 -0.00483521 0)
(0.996485 -0.00486145 0)
(0.996737 -0.00482254 0)
(0.997351 -0.00407588 0)
(0.997737 -0.00388366 0)
(0.996042 -0.00286534 0)
(0.99527 -0.002149 0)
(0.996276 -0.00150337 0)
(0.99773 -0.00134522 0)
(0.998188 -0.000816185 0)
(0.997214 0.000115907 0)
(0.99682 0.0014224 0)
(0.997478 0.00201536 0)
(0.999183 0.00225055 0)
(0.999838 0.00246831 0)
(0.999987 0.00301072 0)
(0.999232 0.0036767 0)
(0.999198 -0.000914693 0)
(1.00026 -0.00163347 0)
(0.99975 -0.00300955 0)
(0.999688 -0.00469302 0)
(0.996695 -0.00450705 0)
(0.996976 -0.00457508 0)
(0.997552 -0.00406027 0)
(0.99798 -0.0039328 0)
(0.996311 -0.0027633 0)
(0.995466 -0.00198241 0)
(0.996339 -0.00139641 0)
(0.997781 -0.00129982 0)
(0.998353 -0.000805253 0)
(0.997565 -9.28005e-06 0)
(0.997117 0.00123914 0)
(0.997544 0.00190443 0)
(0.999123 0.00216556 0)
(0.999869 0.0023233 0)
(1.00015 0.00278301 0)
(0.999484 0.00335407 0)
(0.999256 -0.000896697 0)
(1.00027 -0.00159022 0)
(0.999698 -0.00296883 0)
(0.999768 -0.00455745 0)
(0.9969 -0.00415676 0)
(0.997174 -0.00425868 0)
(0.997716 -0.0039654 0)
(0.998238 -0.00400497 0)
(0.996627 -0.00275916 0)
(0.99568 -0.00184895 0)
(0.996387 -0.00126121 0)
(0.997819 -0.00125105 0)
(0.998501 -0.000794764 0)
(0.997895 -0.000112135 0)
(0.997438 0.00104791 0)
(0.997655 0.00176437 0)
(0.99907 0.00208401 0)
(0.999872 0.00219663 0)
(1.00029 0.00257312 0)
(0.999715 0.00306358 0)
(0.999312 -0.000868108 0)
(1.00025 -0.00159359 0)
(0.999632 -0.00288307 0)
(0.999884 -0.00451972 0)
(0.997141 -0.00392756 0)
(0.997349 -0.00392142 0)
(0.997821 -0.00372463 0)
(0.998471 -0.0039718 0)
(0.996984 -0.00279407 0)
(0.99594 -0.00175619 0)
(0.996433 -0.00110773 0)
(0.997836 -0.00116973 0)
(0.998629 -0.000785024 0)
(0.998201 -0.000204081 0)
(0.997766 0.000862312 0)
(0.997809 0.00159859 0)
(0.999033 0.0019838 0)
(0.999844 0.00208599 0)
(1.00038 0.00238068 0)
(0.999919 0.00279382 0)
(0.999355 -0.000829617 0)
(1.00026 -0.00160426 0)
(0.999558 -0.00274617 0)
(0.999978 -0.00442557 0)
(0.997406 -0.00372341 0)
(0.997543 -0.00359165 0)
(0.997905 -0.00343477 0)
(0.998667 -0.00386245 0)
(0.997356 -0.00286157 0)
(0.996248 -0.00174613 0)
(0.996494 -0.000961406 0)
(0.997835 -0.00105363 0)
(0.998734 -0.000755152 0)
(0.998491 -0.000283003 0)
(0.998109 0.000689222 0)
(0.998012 0.00142859 0)
(0.99904 0.00186708 0)
(0.999814 0.00198952 0)
(1.00044 0.00222456 0)
(1.0001 0.00255327 0)
(0.999396 -0.000801006 0)
(1.00025 -0.0015798 0)
(0.999484 -0.00254919 0)
(1.00009 -0.00421891 0)
(0.997694 -0.00358144 0)
(0.997724 -0.00337743 0)
(0.997934 -0.00321935 0)
(0.998796 -0.00375235 0)
(0.997712 -0.00294007 0)
(0.996612 -0.00183595 0)
(0.996591 -0.000864795 0)
(0.997811 -0.000928965 0)
(0.998796 -0.000705007 0)
(0.998737 -0.000346243 0)
(0.998441 0.000512467 0)
(0.998239 0.0012464 0)
(0.999074 0.0017291 0)
(0.99978 0.00187974 0)
(1.00046 0.00208751 0)
(1.00024 0.00233224 0)
(0.999424 -0.000743474 0)
(1.00027 -0.00157649 0)
(0.999416 -0.00237086 0)
(1.00015 -0.00405939 0)
(0.99796 -0.00352785 0)
(0.997923 -0.00322353 0)
(0.997969 -0.00295264 0)
(0.998893 -0.00351923 0)
(0.99804 -0.00289805 0)
(0.997012 -0.00193175 0)
(0.996743 -0.000816776 0)
(0.997786 -0.000796834 0)
(0.998821 -0.000634994 0)
(0.998936 -0.000379344 0)
(0.998756 0.000350812 0)
(0.998495 0.00104392 0)
(0.999143 0.00157873 0)
(0.999758 0.00175138 0)
(1.00045 0.00195999 0)
(1.00033 0.00214464 0)
(0.999452 -0.000692303 0)
(1.00028 -0.00154346 0)
(0.999343 -0.00217048 0)
(1.0002 -0.00381608 0)
(0.998246 -0.00343848 0)
(0.998152 -0.00311799 0)
(0.998002 -0.00271947 0)
(0.998938 -0.0032762 0)
(0.9983 -0.00281571 0)
(0.997411 -0.00204134 0)
(0.996949 -0.000848329 0)
(0.997768 -0.000689844 0)
(0.998807 -0.000551988 0)