/*--------------------------------*- C++ -*----------------------------------*\
| =========                 |                                                 |
| \\      /  F ield         | OpenFOAM: The Open Source CFD Toolbox           |
|  \\    /   O peration     | Version:  v1812                                 |
|   \\  /    A nd           | Web:      www.OpenFOAM.com                      |
|    \\/     M anipulation  |                                                 |
\*---------------------------------------------------------------------------*/
FoamFile
{
    version     2.0;
    format      ascii;
    class       surfaceScalarField;
    location    "6.3";
    object      phi;
}
// * * * * * * * * * * * * * * * * * * * * * * * * * * * * * * * * * * * * * //

dimensions      [0 3 -1 0 0 0 0];
oriented        oriented;


internalField   nonuniform List<scalar> 
19000
(
1.1537e-06
-1.30928e-07
1.18596e-06
-3.74639e-07
1.31077e-06
-2.96489e-07
1.11188e-06
1.53279e-06
1.01533e-06
-6.57057e-07
1.17351e-06
-2.68619e-07
1.19647e-06
-9.36288e-08
1.1593e-06
8.62165e-07
1.17797e-06
6.22611e-07
1.16379e-06
8.18661e-07
1.17269e-06
4.37589e-07
1.15833e-06
2.64895e-07
1.14702e-06
2.51586e-08
1.16328e-06
1.0806e-07
1.16744e-06
-2.81344e-08
1.16575e-06
7.12869e-08
1.17517e-06
1.99239e-07
1.16805e-06
2.4609e-07
1.16551e-06
2.67016e-07
2.56349e-07
1.14706e-06
1.20956e-06
-1.16227e-07
1.23847e-06
-4.03549e-07
1.37412e-06
-4.32134e-07
1.19041e-06
1.7165e-06
1.09077e-06
-5.5742e-07
1.23399e-06
-4.11838e-07
1.25537e-06
-1.15004e-07
1.22125e-06
8.96278e-07
1.23833e-06
6.05539e-07
1.23089e-06
8.26097e-07
1.23483e-06
4.33649e-07
1.23022e-06
2.695e-07
1.21155e-06
4.38323e-08
1.2335e-06
8.61123e-08
1.2281e-06
-2.27351e-08
1.2361e-06
6.32863e-08
1.22642e-06
2.0892e-07
1.24213e-06
2.30376e-07
1.20898e-06
3.00168e-07
2.32963e-07
1.23237e-06
1.26751e-06
-1.00953e-07
1.29033e-06
-4.26374e-07
1.43524e-06
-5.77042e-07
1.29398e-06
1.85777e-06
1.18001e-06
-4.43456e-07
1.30034e-06
-5.32166e-07
1.3236e-06
-1.3826e-07
1.29976e-06
9.2011e-07
1.30308e-06
6.02222e-07
1.31336e-06
8.15821e-07
1.30586e-06
4.41143e-07
1.31654e-06
2.58827e-07
1.28443e-06
7.5942e-08
1.31e-06
6.05405e-08
1.29622e-06
-8.9542e-09
1.30638e-06
5.3128e-08
1.29193e-06
2.23362e-07
1.30208e-06
2.20229e-07
1.28274e-06
3.19508e-07
2.37635e-07
1.27807e-06
1.32727e-06
-8.41194e-08
1.34046e-06
-4.39562e-07
1.49615e-06
-7.32734e-07
1.41745e-06
1.93646e-06
1.2801e-06
-3.06101e-07
1.36943e-06
-6.21497e-07
1.39601e-06
-1.64848e-07
1.38886e-06
9.27265e-07
1.37502e-06
6.16061e-07
1.39878e-06
7.92061e-07
1.38374e-06
4.56187e-07
1.39919e-06
2.4337e-07
1.3634e-06
1.11735e-07
1.37998e-06
4.39565e-08
1.36904e-06
1.99125e-09
1.37268e-06
4.94885e-08
1.36485e-06
2.31194e-07
1.36552e-06
2.19557e-07
1.35751e-06
3.27516e-07
2.50557e-07
1.34459e-06
1.38866e-06
-6.44267e-08
1.39005e-06
-4.40947e-07
1.55531e-06
-8.97994e-07
1.54919e-06
1.94259e-06
1.38457e-06
-1.41484e-07
1.43665e-06
-6.7358e-07
1.46849e-06
-1.96687e-07
1.47877e-06
9.16983e-07
1.45306e-06
6.41774e-07
1.47883e-06
7.66295e-07
1.46406e-06
4.70956e-07
1.47368e-06
2.33748e-07
1.44294e-06
1.42475e-07
1.44619e-06
4.07084e-08
1.43976e-06
8.41954e-09
1.43993e-06
4.93172e-08
1.43744e-06
2.33681e-07
1.43552e-06
2.21477e-07
1.43209e-06
3.30943e-07
2.64101e-07
1.41855e-06
1.45229e-06
-4.10431e-08
1.44198e-06
-4.30633e-07
1.6115e-06
-1.06752e-06
1.67159e-06
1.8825e-06
1.48739e-06
4.27103e-08
1.49981e-06
-6.85997e-07
1.53775e-06
-2.34625e-07
1.56264e-06
8.92096e-07
1.53569e-06
6.68724e-07
1.55457e-06
7.47415e-07
1.54368e-06
4.81847e-07
1.54422e-06
2.33208e-07
1.51945e-06
1.67243e-07
1.51227e-06
4.78874e-08
1.50605e-06
1.46403e-08
1.50646e-06
4.89066e-08
1.50818e-06
2.31956e-07
1.50716e-06
2.22502e-07
1.50752e-06
3.30581e-07
2.7667e-07
1.49495e-06
1.51975e-06
-1.45733e-08
1.49975e-06
-4.10639e-07
1.66442e-06
-1.23218e-06
1.77112e-06
1.7758e-06
1.58556e-06
2.28272e-07
1.56083e-06
-6.61267e-07
1.60251e-06
-2.76301e-07
1.63944e-06
8.55166e-07
1.62037e-06
6.87792e-07
1.63042e-06
7.37362e-07
1.62153e-06
4.90736e-07
1.61474e-06
2.40006e-07
1.59311e-06
1.88865e-07
1.5796e-06
6.14021e-08
1.57055e-06
2.36946e-08
1.57121e-06
4.82459e-08
1.57677e-06
2.2639e-07
1.57769e-06
2.21581e-07
1.5819e-06
3.26372e-07
2.87024e-07
1.57155e-06
1.59316e-06
1.23973e-08
1.56623e-06
-3.8371e-07
1.71463e-06
-1.38059e-06
1.84479e-06
1.64564e-06
1.67894e-06
3.94114e-07
1.62422e-06
-6.06541e-07
1.66324e-06
-3.15324e-07
1.71022e-06
8.08185e-07
1.70335e-06
6.94667e-07
1.70778e-06
7.32932e-07
1.69792e-06
5.00591e-07
1.68653e-06
2.51397e-07
1.66599e-06
2.09406e-07
1.6491e-06
7.82885e-08
1.63682e-06
3.59777e-08
1.63618e-06
4.88838e-08
1.64417e-06
2.18402e-07
1.64684e-06
2.18916e-07
1.65444e-06
3.18765e-07
2.94404e-07
1.64706e-06
1.67404e-06
3.59329e-08
1.64282e-06
-3.52488e-07
1.76383e-06
-1.5016e-06
1.89871e-06
1.51076e-06
1.76813e-06
5.24695e-07
1.69406e-06
-5.32472e-07
1.72233e-06
-3.43596e-07
1.77566e-06
7.54855e-07
1.78117e-06
6.89164e-07
1.78485e-06
7.29252e-07
1.77338e-06
5.12059e-07
1.75983e-06
2.64943e-07
1.74007e-06
2.2917e-07
1.72189e-06
9.64652e-08
1.70736e-06
5.05058e-08
1.70425e-06
5.19971e-08
1.71277e-06
2.09882e-07
1.7161e-06
2.1559e-07
1.72611e-06
3.08751e-07
2.98684e-07
1.72183e-06
1.76214e-06
5.25194e-08
1.72916e-06
-3.19515e-07
1.81515e-06
-1.58759e-06
1.94319e-06
1.38272e-06
1.85347e-06
6.14407e-07
1.77209e-06
-4.51087e-07
1.78399e-06
-3.55494e-07
1.83758e-06
7.01266e-07
1.85298e-06
6.73761e-07
1.85985e-06
7.22382e-07
1.84854e-06
5.23363e-07
1.83519e-06
2.78294e-07
1.81702e-06
2.47339e-07
1.79912e-06
1.14372e-07
1.78359e-06
6.60273e-08
1.77751e-06
5.80782e-08
1.78504e-06
2.02354e-07
1.78772e-06
2.1291e-07
1.79874e-06
2.97738e-07
3.00221e-07
1.7972e-06
1.85553e-06
6.07393e-08
1.82349e-06
-2.87475e-07
1.87275e-06
-1.63685e-06
1.98827e-06
1.26721e-06
1.93583e-06
6.66846e-07
1.85764e-06
-3.72896e-07
1.85271e-06
-3.5057e-07
1.90037e-06
6.53608e-07
1.92164e-06
6.52496e-07
1.93338e-06
7.10642e-07
1.92464e-06
5.32103e-07
1.91364e-06
2.89295e-07
1.8982e-06
2.62779e-07
1.88166e-06
1.30907e-07
1.86621e-06
8.14793e-08
1.85711e-06
6.71806e-08
1.86265e-06
1.9681e-07
1.8637e-06
2.11866e-07
1.87424e-06
2.87191e-07
2.9964e-07
1.87482e-06
1.95201e-06
6.15686e-08
1.92348e-06
-2.58947e-07
1.94019e-06
-1.65356e-06
2.04116e-06
1.16624e-06
2.01706e-06
6.90944e-07
1.94887e-06
-3.0471e-07
1.93137e-06
-3.33068e-07
1.96969e-06
6.15288e-07
1.9925e-06
6.29688e-07
2.00847e-06
6.94673e-07
2.00359e-06
5.3698e-07
1.99624e-06
2.96643e-07
1.98435e-06
2.74671e-07
1.96983e-06
1.45425e-07
1.95531e-06
9.60063e-08
1.9435e-06
7.89837e-08
1.94656e-06
1.93751e-07
1.94553e-06
2.129e-07
1.95446e-06
2.78257e-07
2.97598e-07
1.9565e-06
2.05039e-06
5.73701e-08
2.02727e-06
-2.35825e-07
2.01901e-06
-1.6453e-06
2.10535e-06
1.07989e-06
2.09961e-06
6.9669e-07
2.04415e-06
-2.49251e-07
2.02029e-06
-3.09214e-07
2.04955e-06
5.86036e-07
2.07067e-06
6.08569e-07
2.0889e-06
6.76434e-07
2.08755e-06
5.38337e-07
2.08383e-06
3.00358e-07
2.07563e-06
2.82877e-07
2.06332e-06
1.57732e-07
2.05043e-06
1.089e-07
2.03671e-06
9.27014e-08
2.03735e-06
1.93108e-07
2.03443e-06
2.15824e-07
2.04117e-06
2.71516e-07
2.94624e-07
2.04414e-06
2.15075e-06
5.06231e-08
2.13384e-06
-2.18919e-07
2.10863e-06
-1.62009e-06
2.18138e-06
1.00715e-06
2.18581e-06
6.92255e-07
2.14279e-06
-2.06228e-07
2.118e-06
-2.84422e-07
2.14082e-06
5.63211e-07
2.15883e-06
5.90566e-07
2.17737e-06
6.57889e-07
2.17816e-06
5.37554e-07
2.17695e-06
3.0156e-07
2.17192e-06
2.87915e-07
2.16159e-06
1.6806e-07
2.15081e-06
1.19676e-07
2.13635e-06
1.07164e-07
2.13521e-06
1.9425e-07
2.13116e-06
2.19873e-07
2.13574e-06
2.66932e-07
2.9106e-07
2.13931e-06
2.25394e-06
4.31703e-08
2.24304e-06
-2.08016e-07
2.20733e-06
-1.58438e-06
2.26829e-06
9.46189e-07
2.27754e-06
6.82997e-07
2.24509e-06
-1.73777e-07
2.22254e-06
-2.61867e-07
2.24195e-06
5.43802e-07
2.25693e-06
5.75581e-07
2.27463e-06
6.40188e-07
2.27614e-06
5.36047e-07
2.27594e-06
3.01761e-07
2.27323e-06
2.90618e-07
2.26436e-06
1.76931e-07
2.25583e-06
1.28208e-07
2.24184e-06
1.21152e-07
2.23981e-06
1.96285e-07
2.23571e-06
2.2397e-07
2.23864e-06
2.64002e-07
2.87097e-07
2.2426e-06
2.36098e-06
3.60644e-08
2.35519e-06
-2.02228e-07
2.31337e-06
-1.54255e-06
2.36485e-06
8.94705e-07
2.37604e-06
6.71808e-07
2.35182e-06
-1.49556e-07
2.33249e-06
-2.42534e-07
2.35056e-06
5.2573e-07
2.36333e-06
5.62807e-07
2.37992e-06
6.23603e-07
2.38135e-06
5.34616e-07
2.38094e-06
3.02172e-07
2.37981e-06
2.91753e-07
2.37181e-06
1.84922e-07
2.36527e-06
1.34752e-07
2.35266e-06
1.33761e-07
2.35048e-06
1.9847e-07
2.34732e-06
2.27129e-07
2.34928e-06
2.62036e-07
2.82873e-07
2.35351e-06
2.47272e-06
2.97443e-08
2.47088e-06
-2.00392e-07
2.42562e-06
-1.49729e-06
2.47012e-06
8.50205e-07
2.48195e-06
6.59973e-07
2.46374e-06
-1.3134e-07
2.44724e-06
-2.26035e-07
2.46483e-06
5.0814e-07
2.4762e-06
5.5143e-07
2.49192e-06
6.07885e-07
2.49319e-06
5.33344e-07
2.49198e-06
3.03381e-07
2.49194e-06
2.91802e-07
2.48441e-06
1.92449e-07
2.47935e-06
1.39814e-07
2.46856e-06
1.44549e-07
2.4666e-06
2.00433e-07
2.46492e-06
2.28806e-07
2.46655e-06
2.60407e-07
2.78564e-07
2.47086e-06
2.58976e-06
2.42789e-08
2.5907e-06
-2.0133e-07
2.54355e-06
-1.45015e-06
2.58339e-06
8.10369e-07
2.59543e-06
6.47929e-07
2.58136e-06
-1.17266e-07
2.5668e-06
-2.11477e-07
2.5839e-06
4.9104e-07
2.59439e-06
5.40941e-07
2.60962e-06
5.9266e-07
2.61108e-06
5.31882e-07
2.60905e-06
3.05411e-07
2.60989e-06
2.90962e-07
2.60267e-06
1.99669e-07
2.59853e-06
1.43951e-07
2.58962e-06
1.53463e-07
2.5879e-06
2.02151e-07
2.58773e-06
2.28972e-07
2.58947e-06
2.58675e-07
2.74414e-07
2.59362e-06
2.71256e-06
1.95509e-08
2.7152e-06
-2.03973e-07
2.66706e-06
-1.40201e-06
2.70417e-06
7.73265e-07
2.71638e-06
6.35714e-07
2.70498e-06
-1.05867e-07
2.6915e-06
-1.97995e-07
2.70775e-06
4.74794e-07
2.71757e-06
5.31118e-07
2.73261e-06
5.77627e-07
2.73471e-06
5.29774e-07
2.73217e-06
3.07957e-07
2.73386e-06
2.89266e-07
2.72701e-06
2.06523e-07
2.72332e-06
1.47635e-07
2.71611e-06
1.60673e-07
2.71448e-06
2.03787e-07
2.71548e-06
2.27971e-07
2.71757e-06
2.56582e-07
2.70672e-07
2.72132e-06
2.84146e-06
1.53602e-08
2.84488e-06
-2.0739e-07
2.79627e-06
-1.35341e-06
2.83211e-06
7.37426e-07
2.84465e-06
6.23176e-07
2.83479e-06
-9.60069e-08
2.82173e-06
-1.8494e-07
2.83678e-06
4.59747e-07
2.84603e-06
5.21867e-07
2.86108e-06
5.62581e-07
2.86418e-06
5.26668e-07
2.86149e-06
3.10644e-07
2.86403e-06
2.86727e-07
2.85769e-06
2.12866e-07
2.85411e-06
1.51216e-07
2.84834e-06
1.66445e-07
2.8466e-06
2.05529e-07
2.84826e-06
2.26305e-07
2.85086e-06
2.53983e-07
2.67516e-07
2.85402e-06
2.97678e-06
1.14748e-08
2.98021e-06
-2.10816e-07
2.93146e-06
-1.30466e-06
2.96704e-06
7.01845e-07
2.98013e-06
6.10087e-07
2.97093e-06
-8.6814e-08
2.95786e-06
-1.71866e-07
2.97154e-06
4.46071e-07
2.98031e-06
5.13099e-07
2.99554e-06
5.47351e-07
2.99982e-06
5.2238e-07
2.99729e-06
3.13179e-07
3.0006e-06
2.83415e-07
2.99489e-06
2.1858e-07
2.99115e-06
1.5495e-07
2.98651e-06
1.71083e-07
2.98453e-06
2.07509e-07
2.98637e-06
2.24465e-07
2.98953e-06
2.50827e-07
2.64956e-07
2.99209e-06
3.11882e-06
7.66595e-09
3.12167e-06
-2.13675e-07
3.07303e-06
-1.25601e-06
3.10892e-06
6.65953e-07
3.12276e-06
5.96245e-07
3.11361e-06
-7.76671e-08
3.10026e-06
-1.58515e-07
3.1126e-06
4.33736e-07
3.12099e-06
5.04706e-07
3.13656e-06
5.31781e-07
3.14206e-06
5.16883e-07
3.13982e-06
3.15416e-07
3.14377e-06
2.79462e-07
3.13874e-06
2.2361e-07
3.13466e-06
1.59036e-07
3.13086e-06
1.7488e-07
3.12859e-06
2.09776e-07
3.13019e-06
2.22864e-07
3.13386e-06
2.47159e-07
2.62786e-07
3.13603e-06
3.26783e-06
3.7436e-09
3.26975e-06
-2.15597e-07
3.22145e-06
-1.2077e-06
3.25782e-06
6.29579e-07
3.27251e-06
5.81551e-07
3.26305e-06
-6.82043e-08
3.24935e-06
-1.44812e-07
3.26053e-06
4.22554e-07
3.26864e-06
4.96602e-07
3.28466e-06
5.15758e-07
3.29128e-06
5.10259e-07
3.28934e-06
3.17356e-07
3.29377e-06
2.75034e-07
3.28945e-06
2.27927e-07
3.28486e-06
1.63633e-07
3.28167e-06
1.78061e-07
3.27917e-06
2.12284e-07
3.28022e-06
2.21813e-07
3.28428e-06
2.43096e-07
2.60651e-07
3.28642e-06
3.42409e-06
-4.16182e-10
3.42488e-06
-2.16385e-07
3.37717e-06
-1.15999e-06
3.41389e-06
5.92856e-07
3.42942e-06
5.66023e-07
3.41952e-06
-5.83073e-08
3.40555e-06
-1.30842e-07
3.41588e-06
4.12231e-07
3.42372e-06
4.8876e-07
3.44023e-06
4.9925e-07
3.44784e-06
5.02649e-07
3.44607e-06
3.19118e-07
3.45081e-06
2.70295e-07
3.44725e-06
2.31495e-07
3.44205e-06
1.68825e-07
3.43934e-06
1.80777e-07
3.43673e-06
2.14888e-07
3.43706e-06
2.21482e-07
3.44131e-06
2.38854e-07
2.58141e-07
3.44382e-06
3.58786e-06
-4.8656e-09
3.58743e-06
-2.1595e-07
3.54059e-06
-1.11316e-06
3.57738e-06
5.56067e-07
3.59364e-06
5.4976e-07
3.58337e-06
-4.80335e-08
3.56929e-06
-1.16766e-07
3.57909e-06
4.02431e-07
3.58664e-06
4.81207e-07
3.60358e-06
4.82312e-07
3.61205e-06
4.94176e-07
3.61028e-06
3.20892e-07
3.61517e-06
2.65399e-07
3.61239e-06
2.34281e-07
3.60662e-06
1.74594e-07
3.60425e-06
1.83151e-07
3.60178e-06
2.17355e-07
3.60138e-06
2.21885e-07
3.60551e-06
2.34715e-07
2.54893e-07
3.60876e-06
3.75944e-06
-9.60117e-09
3.75775e-06
-2.14256e-07
3.71203e-06
-1.06744e-06
3.74859e-06
5.19512e-07
3.76548e-06
5.3287e-07
3.75497e-06
-3.75271e-08
3.74094e-06
-1.02731e-07
3.75054e-06
3.92828e-07
3.75775e-06
4.73997e-07
3.77499e-06
4.65074e-07
3.78427e-06
4.84898e-07
3.78227e-06
3.22887e-07
3.78717e-06
2.60499e-07
3.78521e-06
2.36243e-07
3.77892e-06
1.80881e-07
3.77679e-06
1.85281e-07
3.77473e-06
2.19418e-07
3.77371e-06
2.22906e-07
3.77745e-06
2.30971e-07
2.50757e-07
3.78159e-06
3.93918e-06
-1.45906e-08
3.93621e-06
-2.11288e-07
3.89181e-06
-1.02304e-06
3.92789e-06
4.8343e-07
3.94533e-06
5.15428e-07
3.93476e-06
-2.69557e-08
3.92084e-06
-8.88135e-08
3.93052e-06
3.83149e-07
3.93737e-06
4.67154e-07
3.95471e-06
4.4773e-07
3.96482e-06
4.74789e-07
3.96244e-06
3.25263e-07
3.96718e-06
2.55765e-07
3.96607e-06
2.37353e-07
3.95936e-06
1.87584e-07
3.95735e-06
1.87292e-07
3.95591e-06
2.20859e-07
3.95453e-06
2.24284e-07
3.95756e-06
2.27945e-07
2.45768e-07
3.96255e-06
4.12746e-06
-1.97996e-08
4.12323e-06
-2.07055e-07
4.08022e-06
-9.80039e-07
4.11567e-06
4.47985e-07
4.13364e-06
4.9746e-07
4.12317e-06
-1.649e-08
4.10936e-06
-7.50011e-08
4.11933e-06
3.73183e-07
4.12584e-06
4.60642e-07
4.14304e-06
4.30527e-07
4.15406e-06
4.63771e-07
4.15124e-06
3.28082e-07
4.15558e-06
2.51424e-07
4.15537e-06
2.37559e-07
4.14836e-06
1.94601e-07
4.1463e-06
1.89351e-07
4.14565e-06
2.21509e-07
4.14419e-06
2.25741e-07
4.14633e-06
2.25812e-07
2.40261e-07
4.15183e-06
4.32471e-06
-2.52077e-08
4.31925e-06
-2.01594e-07
4.27763e-06
-9.38416e-07
4.31231e-06
4.13297e-07
4.33081e-06
4.78959e-07
4.32061e-06
-6.28865e-09
4.30686e-06
-6.12492e-08
4.31725e-06
3.62799e-07
4.32353e-06
4.54355e-07
4.34032e-06
4.13736e-07
4.35232e-06
4.51773e-07
4.34914e-06
3.31269e-07
4.35279e-06
2.47771e-07
4.35354e-06
2.36803e-07
4.34634e-06
2.01805e-07
4.34401e-06
1.91682e-07
4.3442e-06
2.21315e-07
4.34297e-06
2.2697e-07
4.34426e-06
2.24527e-07
2.34788e-07
4.34973e-06
4.53137e-06
-3.08089e-08
4.52476e-06
-1.94983e-07
4.48441e-06
-8.98059e-07
4.51826e-06
3.79447e-07
4.53728e-06
4.59941e-07
4.52752e-06
3.46781e-09
4.51376e-06
-4.74873e-08
4.52462e-06
3.51937e-07
4.53086e-06
4.48113e-07
4.54697e-06
3.97625e-07
4.55999e-06
4.38758e-07
4.5566e-06
3.34653e-07
4.55928e-06
2.4509e-07
4.56099e-06
2.35094e-07
4.5538e-06
2.08997e-07
4.55094e-06
1.94546e-07
4.55184e-06
2.20412e-07
4.55119e-06
2.27619e-07
4.55183e-06
2.23881e-07
2.29874e-07
4.55675e-06
4.74791e-06
-3.6599e-08
4.74027e-06
-1.87349e-07
4.701e-06
-8.58789e-07
4.73399e-06
3.46461e-07
4.75343e-06
4.40497e-07
4.74432e-06
1.25753e-08
4.73051e-06
-3.36749e-08
4.74182e-06
3.40631e-07
4.74824e-06
4.41685e-07
4.76344e-06
3.8243e-07
4.77744e-06
4.24756e-07
4.77411e-06
3.37983e-07
4.77556e-06
2.43638e-07
4.77816e-06
2.325e-07
4.77126e-06
2.15895e-07
4.76754e-06
1.98263e-07
4.76902e-06
2.18938e-07
4.76916e-06
2.27478e-07
4.76951e-06
2.2353e-07
2.25792e-07
4.77359e-06
4.97476e-06
-4.25579e-08
4.96627e-06
-1.78866e-07
4.92786e-06
-8.20374e-07
4.96004e-06
3.14279e-07
4.97972e-06
4.20813e-07
4.97148e-06
2.08186e-08
4.95765e-06
-1.98438e-08
4.96925e-06
3.2903e-07
4.9761e-06
4.34833e-07
4.99023e-06
3.68305e-07
5.00512e-06
4.09869e-07
5.00212e-06
3.40977e-07
5.00217e-06
2.4359e-07
5.00554e-06
2.29133e-07
4.99923e-06
2.22206e-07
4.99457e-06
2.02921e-07
4.99634e-06
2.1717e-07
4.99735e-06
2.26459e-07
4.99766e-06
2.2322e-07
2.2248e-07
5.00098e-06
5.21239e-06
-4.86331e-08
5.20327e-06
-1.69748e-07
5.16543e-06
-7.82534e-07
5.19699e-06
2.82721e-07
5.21665e-06
4.01157e-07
5.20947e-06
2.79919e-08
5.19574e-06
-6.11125e-09
5.20739e-06
3.17381e-07
5.21487e-06
4.27351e-07
5.22785e-06
3.55324e-07
5.24348e-06
3.94247e-07
5.2411e-06
3.43356e-07
5.23967e-06
2.45021e-07
5.24359e-06
2.25207e-07
5.23827e-06
2.27523e-07
5.23266e-06
2.08534e-07
5.2344e-06
2.15428e-07
5.23628e-06
2.24582e-07
5.23672e-06
2.22784e-07
2.19692e-07
5.2395e-06
5.46129e-06
-5.47335e-08
5.4518e-06
-1.60262e-07
5.41419e-06
-7.4492e-07
5.44544e-06
2.51468e-07
5.46474e-06
3.81856e-07
5.45879e-06
3.39427e-08
5.44538e-06
7.30536e-09
5.45676e-06
3.05998e-07
5.46499e-06
4.19119e-07
5.47685e-06
3.43466e-07
5.49301e-06
3.78085e-07
5.49153e-06
3.44836e-07
5.48863e-06
2.47917e-07
5.49281e-06
2.21029e-07
5.48894e-06
2.31401e-07
5.48256e-06
2.14906e-07
5.48375e-06
2.14237e-07
5.4865e-06
2.21838e-07
5.48719e-06
2.22091e-07
2.17263e-07
5.48962e-06
5.72196e-06
-6.07338e-08
5.71243e-06
-1.50733e-07
5.67461e-06
-7.071e-07
5.70599e-06
2.20084e-07
5.72459e-06
3.63262e-07
5.71989e-06
3.8643e-08
5.70711e-06
2.0081e-08
5.71793e-06
2.95177e-07
5.72695e-06
4.10104e-07
5.73777e-06
3.32647e-07
5.75424e-06
3.61616e-07
5.75395e-06
3.45123e-07
5.74968e-06
2.52182e-07
5.7537e-06
2.17014e-07
5.75168e-06
2.33423e-07
5.74493e-06
2.21656e-07
5.74498e-06
2.14183e-07
5.74852e-06
2.18303e-07
5.74974e-06
2.2087e-07
2.15272e-07
5.75173e-06
5.99494e-06
-6.64771e-08
5.98576e-06
-1.41557e-07
5.94726e-06
-6.68599e-07
5.97925e-06
1.88088e-07
5.99685e-06
3.45665e-07
5.99319e-06
4.23018e-08
5.98151e-06
3.17641e-08
5.99154e-06
2.85142e-07
6.00126e-06
4.00386e-07
6.01116e-06
3.22746e-07
6.0277e-06
3.45076e-07
6.02888e-06
3.43943e-07
6.02343e-06
2.57632e-07
6.02687e-06
2.13579e-07
6.02688e-06
2.33413e-07
6.02029e-06
2.28243e-07
6.01885e-06
2.15618e-07
6.02282e-06
2.14338e-07
6.02485e-06
2.18842e-07
2.13623e-07
6.02649e-06
6.28081e-06
-7.1794e-08
6.27243e-06
-1.33186e-07
6.23279e-06
-6.28958e-07
6.26576e-06
1.55117e-07
6.28227e-06
3.29159e-07
6.27921e-06
4.53659e-08
6.26908e-06
4.18888e-08
6.27827e-06
2.75958e-07
6.2885e-06
3.90153e-07
6.29761e-06
3.13636e-07
6.31399e-06
3.28701e-07
6.31687e-06
3.41061e-07
6.31051e-06
2.63985e-07
6.31295e-06
2.11141e-07
6.31497e-06
2.31397e-07
6.30915e-06
2.34064e-07
6.30621e-06
2.18556e-07
6.30994e-06
2.10608e-07
6.31306e-06
2.15719e-07
2.1208e-07
6.31461e-06
6.58018e-06
-7.65092e-08
6.5731e-06
-1.26103e-07
6.53207e-06
-5.87922e-07
6.56598e-06
1.21206e-07
6.58162e-06
3.13517e-07
6.57855e-06
4.84315e-08
6.57034e-06
5.01043e-08
6.57882e-06
2.67472e-07
6.58928e-06
3.79698e-07
6.5977e-06
3.05214e-07
6.61372e-06
3.12684e-07
6.61841e-06
3.36366e-07
6.61159e-06
2.70805e-07
6.61265e-06
2.10085e-07
6.61639e-06
2.2765e-07
6.61202e-06
2.38436e-07
6.60779e-06
2.22786e-07
6.61061e-06
2.07786e-07
6.61486e-06
2.11478e-07
2.10225e-07
6.61671e-06
6.89374e-06
-8.04589e-08
6.88845e-06
-1.20812e-07
6.84598e-06
-5.45452e-07
6.88027e-06
8.69146e-08
6.89564e-06
2.98143e-07
6.89196e-06
5.21188e-08
6.88578e-06
5.62777e-08
6.8939e-06
2.5936e-07
6.9043e-06
3.69297e-07
6.91207e-06
2.97437e-07
6.92754e-06
2.97218e-07
6.93407e-06
3.29837e-07
6.92729e-06
2.7758e-07
6.9267e-06
2.1068e-07
6.93166e-06
2.2269e-07
6.92931e-06
2.40782e-07
6.92429e-06
2.27809e-07
6.92568e-06
2.06391e-07
6.93071e-06
2.06454e-07
2.07551e-07
6.93338e-06
7.22217e-06
-8.34951e-08
7.21914e-06
-1.1778e-07
7.17537e-06
-5.0168e-07
7.20908e-06
5.32068e-08
7.22507e-06
2.82154e-07
7.22026e-06
5.69287e-08
7.21599e-06
6.05486e-08
7.22413e-06
2.51215e-07
7.2343e-06
3.59127e-07
7.2414e-06
2.90339e-07
7.25611e-06
2.82505e-07
7.26441e-06
3.21542e-07
7.25823e-06
2.83753e-07
7.25588e-06
2.13036e-07
7.26135e-06
2.17213e-07
7.26144e-06
2.40698e-07
7.25628e-06
2.32966e-07
7.25604e-06
2.06634e-07
7.2612e-06
2.01291e-07
2.03656e-07
7.2651e-06
7.56624e-06
-8.55119e-08
7.56574e-06
-1.17279e-07
7.52106e-06
-4.56996e-07
7.55291e-06
2.13524e-08
7.57052e-06
2.64543e-07
7.56436e-06
6.30914e-08
7.56155e-06
6.33571e-08
7.57016e-06
2.42603e-07
7.58007e-06
3.49225e-07
7.58638e-06
2.84021e-07
7.60014e-06
2.68749e-07
7.61006e-06
3.11627e-07
7.60495e-06
2.88855e-07
7.60098e-06
2.17006e-07
7.60622e-06
2.11977e-07
7.60877e-06
2.38142e-07
7.60436e-06
2.37376e-07
7.60255e-06
2.08453e-07
7.60713e-06
1.96703e-07
1.98483e-07
7.61231e-06
7.92674e-06
-8.6445e-08
7.92872e-06
-1.19256e-07
7.88387e-06
-4.12148e-07
7.91245e-06
-7.22614e-09
7.9326e-06
2.44395e-07
7.92521e-06
7.04827e-08
7.92317e-06
6.53948e-08
7.9326e-06
2.3317e-07
7.94232e-06
3.39513e-07
7.94779e-06
2.78547e-07
7.96037e-06
2.56168e-07
7.97163e-06
3.00371e-07
7.96803e-06
2.92451e-07
7.96279e-06
2.22244e-07
7.96712e-06
2.07645e-07
7.97192e-06
2.33349e-07
7.9689e-06
2.4039e-07
7.96604e-06
2.11316e-07
7.96937e-06
1.93377e-07
1.9234e-07
7.97551e-06
8.30452e-06
-8.62837e-08
8.30863e-06
-1.23367e-07
8.26463e-06
-3.68149e-07
8.28857e-06
-3.11634e-08
8.31182e-06
2.21147e-07
8.30373e-06
7.85661e-08
8.30166e-06
6.74683e-08
8.31206e-06
2.22772e-07
8.32177e-06
3.298e-07
8.32641e-06
2.73905e-07
8.33756e-06
2.45022e-07
8.34972e-06
2.88204e-07
8.34797e-06
2.94209e-07
8.34201e-06
2.28204e-07
8.34498e-06
2.04674e-07
8.35143e-06
2.26895e-07
8.35044e-06
2.4138e-07
8.34718e-06
2.14582e-07
8.34899e-06
1.91561e-07
1.85943e-07
8.35539e-06
8.70045e-06
-8.50719e-08
8.70623e-06
-1.29143e-07
8.66414e-06
-3.26061e-07
8.68233e-06
-4.93524e-08
8.70859e-06
1.94885e-07
8.70081e-06
8.63404e-08
8.69792e-06
7.03594e-08
8.70913e-06
2.11566e-07
8.7191e-06
3.19833e-07
8.72297e-06
2.70032e-07
8.73236e-06
2.35633e-07
8.74499e-06
2.75569e-07
8.74524e-06
2.93962e-07
8.73926e-06
2.34181e-07
8.74072e-06
2.03216e-07
8.7481e-06
2.19513e-07
8.74948e-06
2.40006e-07
8.74657e-06
2.17489e-07
8.74703e-06
1.911e-07
1.80184e-07
8.75279e-06
9.11546e-06
-8.29106e-08
9.12237e-06
-1.36052e-07
9.08321e-06
-2.86902e-07
9.09505e-06
-6.11885e-08
9.12344e-06
1.66488e-07
9.11726e-06
9.25231e-08
9.11296e-06
7.46569e-08
9.12439e-06
2.00135e-07
9.13495e-06
3.09272e-07
9.13812e-06
2.6687e-07
9.14543e-06
2.28322e-07
9.15816e-06
2.62838e-07
9.16048e-06
2.91646e-07
9.15527e-06
2.39384e-07
9.15532e-06
2.03168e-07
9.1629e-06
2.11931e-07
9.16669e-06
2.36221e-07
9.1648e-06
2.19378e-07
9.1644e-06
1.91497e-07
1.75693e-07
9.16889e-06
9.55051e-06
-7.99641e-08
9.55795e-06
-1.43494e-07
9.52271e-06
-2.51658e-07
9.52828e-06
-6.67595e-08
9.55717e-06
1.37597e-07
9.55371e-06
9.5981e-08
9.54773e-06
8.06453e-08
9.5586e-06
1.89264e-07
9.56986e-06
2.98006e-07
9.57271e-06
2.64023e-07
9.57793e-06
2.23099e-07
9.59042e-06
2.50351e-07
9.59482e-06
2.87248e-07
9.59086e-06
2.43346e-07
9.58991e-06
2.04117e-07
9.59703e-06
2.04807e-07
9.60297e-06
2.30284e-07
9.60252e-06
2.19827e-07
9.60185e-06
1.92164e-07
1.72568e-07
9.60498e-06
1.00066e-05
-7.64636e-08
1.00139e-05
-1.50778e-07
9.98354e-06
-2.21275e-07
9.98324e-06
-6.64599e-08
1.00107e-05
1.10113e-07
1.00107e-05
9.59744e-08
1.00031e-05
8.82261e-08
1.00127e-05
1.79701e-07
1.00248e-05
2.85931e-07
1.0028e-05
2.60821e-07
1.00314e-05
2.19674e-07
1.00432e-05
2.38586e-07
1.00496e-05
2.80843e-07
1.00471e-05
2.45803e-07
1.00456e-05
2.05664e-07
1.00518e-05
1.98606e-07
1.00593e-05
2.2272e-07
1.00606e-05
2.1858e-07
1.00601e-05
1.92672e-07
1.70442e-07
1.00622e-05
1.04849e-05
-7.26895e-08
1.04913e-05
-1.57168e-07
1.04665e-05
-1.96528e-07
1.0461e-05
-6.09687e-08
1.04853e-05
8.58179e-08
1.0489e-05
9.22615e-08
1.04807e-05
9.65502e-08
1.04881e-05
1.72268e-07
1.05009e-05
2.73145e-07
1.05052e-05
2.56538e-07
1.05072e-05
2.17658e-07
1.05177e-05
2.2811e-07
1.05258e-05
2.72735e-07
1.05251e-05
2.46526e-07
1.05234e-05
2.07352e-07
1.05284e-05
1.93578e-07
1.05369e-05
2.14217e-07
1.054e-05
2.15476e-07
1.05399e-05
1.92778e-07
1.68823e-07
1.05415e-05
1.09863e-05
-6.89503e-08
1.09911e-05
-1.61955e-07
1.09721e-05
-1.77537e-07
1.09628e-05
-5.16924e-08
1.09826e-05
6.60245e-08
1.099e-05
8.48788e-08
1.09821e-05
1.04391e-07
1.09867e-05
1.67713e-07
1.09995e-05
2.60369e-07
1.10052e-05
2.50794e-07
1.10066e-05
2.16238e-07
1.10156e-05
2.19147e-07
1.10248e-05
2.63576e-07
1.10257e-05
2.45539e-07
1.10243e-05
2.08794e-07
1.10282e-05
1.8968e-07
1.10369e-05
2.05519e-07
1.10419e-05
2.10515e-07
1.10424e-05
1.92222e-07
1.67409e-07
1.10438e-05
1.1512e-05
-6.55687e-08
1.15145e-05
-1.64445e-07
1.1501e-05
-1.64089e-07
1.14897e-05
-4.03218e-08
1.15041e-05
5.16241e-08
1.15142e-05
7.47546e-08
1.15087e-05
1.09893e-07
1.15103e-05
1.66137e-07
1.15217e-05
2.48905e-07
1.15288e-05
2.43717e-07
1.15305e-05
2.14532e-07
1.15381e-05
2.11575e-07
1.15477e-05
2.53961e-07
1.15502e-05
2.4302e-07
1.15493e-05
2.09734e-07
1.15523e-05
1.86674e-07
1.15606e-05
1.97204e-07
1.15671e-05
2.03979e-07
1.15687e-05
1.9069e-07
1.66041e-07
1.157e-05
1.20631e-05
-6.28428e-08
1.20628e-05
-1.64108e-07
1.20543e-05
-1.55603e-07
1.20426e-05
-2.86826e-08
1.20513e-05
4.30041e-08
1.20626e-05
6.34156e-08
1.20609e-05
1.11574e-07
1.20603e-05
1.66708e-07
1.20693e-05
2.39901e-07
1.20771e-05
2.35953e-07
1.20795e-05
2.12116e-07
1.20862e-05
2.04928e-07
1.20958e-05
2.44289e-07
1.20997e-05
2.39164e-07
1.20994e-05
2.1e-07
1.21018e-05
1.84283e-07
1.21094e-05
1.89637e-07
1.2117e-05
1.96339e-07
1.21198e-05
1.87898e-07
1.64604e-07
1.21213e-05
1.26407e-05
-6.09883e-08
1.26374e-05
-1.60725e-07
1.26329e-05
-1.51118e-07
1.26228e-05
-1.85715e-08
1.26258e-05
3.99333e-08
1.26366e-05
5.26593e-08
1.26391e-05
1.09029e-07
1.26381e-05
1.67789e-07
1.26441e-05
2.33847e-07
1.26515e-05
2.2853e-07
1.26547e-05
2.08911e-07
1.26609e-05
1.98718e-07
1.26705e-05
2.34749e-07
1.26754e-05
2.34202e-07
1.2676e-05
2.09481e-07
1.2678e-05
1.82273e-07
1.26847e-05
1.82952e-07
1.26929e-05
1.88116e-07
1.2697e-05
1.83751e-07
1.62848e-07
1.26988e-05
1.32461e-05
-6.01213e-08
1.32398e-05
-1.54412e-07
1.32381e-05
-1.49457e-07
1.32311e-05
-1.15307e-08
1.32293e-05
4.17135e-08
1.32375e-05
4.43979e-08
1.32439e-05
1.02617e-07
1.32441e-05
1.67664e-07
1.32474e-05
2.3049e-07
1.32536e-05
2.22348e-07
1.32574e-05
2.05124e-07
1.32634e-05
1.9267e-07
1.32729e-05
2.25301e-07
1.32788e-05
2.2832e-07
1.32801e-05
2.08144e-07
1.3282e-05
1.80355e-07
1.32878e-05
1.77176e-07
1.32961e-05
1.79782e-07
1.33016e-05
1.78336e-07
1.60491e-07
1.33039e-05
1.38803e-05
-6.02427e-08
1.38716e-05
-1.45728e-07
1.38714e-05
-1.49276e-07
1.38683e-05
-8.36158e-09
1.38628e-05
4.71821e-08
1.3867e-05
4.01409e-08
1.38762e-05
9.34972e-08
1.38789e-05
1.64885e-07
1.38805e-05
2.28944e-07
1.38851e-05
2.1777e-07
1.38889e-05
2.01256e-07
1.38949e-05
1.86719e-07
1.39043e-05
2.15868e-07
1.3911e-05
2.21616e-07
1.39131e-05
2.06036e-07
1.39152e-05
1.78283e-07
1.39202e-05
1.7215e-07
1.39282e-05
1.71792e-07
1.39346e-05
1.71916e-07
1.57233e-07
1.39379e-05
1.45446e-05
-6.12215e-08
1.45342e-05
-1.35241e-07
1.45343e-05
-1.49414e-07
1.4535e-05
-9.04804e-09
1.45273e-05
5.48182e-08
1.45268e-05
4.06544e-08
1.45367e-05
8.36452e-08
1.45432e-05
1.58409e-07
1.45444e-05
2.27692e-07
1.45474e-05
2.1473e-07
1.45509e-05
1.97809e-07
1.45567e-05
1.80933e-07
1.45661e-05
2.06488e-07
1.45736e-05
2.14065e-07
1.45765e-05
2.03167e-07
1.45788e-05
1.76012e-07
1.45833e-05
1.67569e-07
1.45907e-05
1.64431e-07
1.45977e-05
1.64952e-07
1.52895e-07
1.4602e-05
1.52405e-05
-6.2801e-08
1.52292e-05
-1.23948e-07
1.52285e-05
-1.48736e-07
1.52317e-05
-1.2232e-08
1.52235e-05
6.29546e-08
1.52185e-05
4.57353e-08
1.52267e-05
7.54209e-08
1.52374e-05
1.47723e-07
1.52404e-05
2.2467e-07
1.52421e-05
2.12999e-07
1.52449e-05
1.94981e-07
1.52503e-05
1.75536e-07
1.52595e-05
1.97323e-07
1.52679e-05
2.05636e-07
1.52716e-05
1.99473e-07
1.52741e-05
1.73529e-07
1.52784e-05
1.63245e-07
1.52852e-05
1.57621e-07
1.52922e-05
1.57962e-07
1.47592e-07
1.52975e-05
1.59692e-05
-6.46586e-08
1.59587e-05
-1.13506e-07
1.59548e-05
-1.44838e-07
1.59588e-05
-1.61834e-08
1.59523e-05
6.94408e-08
1.5944e-05
5.40926e-08
1.59485e-05
7.08879e-08
1.59626e-05
1.33569e-07
1.59693e-05
2.17977e-07
1.59706e-05
2.11694e-07
1.59726e-05
1.92975e-07
1.59775e-05
1.70678e-07
1.59863e-05
1.88532e-07
1.59954e-05
1.96574e-07
1.60001e-05
1.94725e-07
1.60028e-05
1.708e-07
1.60069e-05
1.59191e-07
1.60134e-05
1.51147e-07
1.60201e-05
1.51179e-07
1.41732e-07
1.6026e-05
1.67321e-05
-6.61922e-08
1.67173e-05
-9.86606e-08
1.67113e-05
-1.38825e-07
1.67185e-05
-2.34135e-08
1.67156e-05
7.23691e-08
1.67064e-05
6.32935e-08
1.67063e-05
7.1005e-08
1.67209e-05
1.18898e-07
1.6732e-05
2.06947e-07
1.67345e-05
2.09161e-07
1.67356e-05
1.91913e-07
1.67398e-05
1.66447e-07
1.67481e-05
1.80219e-07
1.67575e-05
1.87193e-07
1.67633e-05
1.88882e-07
1.67666e-05
1.67532e-07
1.67703e-05
1.55506e-07
1.67765e-05
1.44959e-07
1.67832e-05
1.44477e-07
1.35759e-07
1.67891e-05
1.75315e-05
-6.72884e-08
1.75199e-05
-8.70973e-08
1.75089e-05
-1.27823e-07
1.75149e-05
-2.93764e-08
1.75152e-05
7.20236e-08
1.75069e-05
7.1609e-08
1.75033e-05
7.45387e-08
1.75155e-05
1.06746e-07
1.75297e-05
1.92726e-07
1.75347e-05
2.04196e-07
1.75354e-05
1.91202e-07
1.75388e-05
1.63014e-07
1.75465e-05
1.7256e-07
1.7556e-05
1.77638e-07
1.75627e-05
1.82178e-07
1.75668e-05
1.63471e-07
1.75704e-05
1.51953e-07
1.7576e-05
1.39343e-07
1.75828e-05
1.3768e-07
1.29826e-07
1.75887e-05
1.83686e-05
-6.75268e-08
1.83577e-05
-7.62536e-08
1.83449e-05
-1.14975e-07
1.83497e-05
-3.41626e-08
1.83528e-05
6.89178e-08
1.83462e-05
7.81564e-08
1.83408e-05
8.00019e-08
1.83491e-05
9.83819e-08
1.83648e-05
1.7705e-07
1.83724e-05
1.96611e-07
1.83738e-05
1.89845e-07
1.83764e-05
1.60332e-07
1.83832e-05
1.65774e-07
1.83928e-05
1.68084e-07
1.84002e-05
1.74747e-07
1.8405e-05
1.58647e-07
1.84089e-05
1.48106e-07
1.84138e-05
1.3439e-07
1.84204e-05
1.31069e-07
1.23723e-07
1.84265e-05
1.92458e-05
-6.68974e-08
1.92369e-05
-6.73491e-08
1.92225e-05
-1.00618e-07
1.92249e-05
-3.65896e-08
1.92299e-05
6.39203e-08
1.92257e-05
8.24e-08
1.92195e-05
8.61999e-08
1.92243e-05
9.36066e-08
1.92395e-05
1.61842e-07
1.92494e-05
1.86665e-07
1.92521e-05
1.87195e-07
1.92544e-05