/*--------------------------------*- C++ -*----------------------------------*\
| =========                 |                                                 |
| \\      /  F ield         | OpenFOAM: The Open Source CFD Toolbox           |
|  \\    /   O peration     | Version:  v1906                                 |
|   \\  /    A nd           | Web:      www.OpenFOAM.com                      |
|    \\/     M anipulation  |                                                 |
\*---------------------------------------------------------------------------*/
FoamFile
{
    version     2.0;
    format      ascii;
    class       volVectorField;
    location    "6.3";
    object      U;
}
// * * * * * * * * * * * * * * * * * * * * * * * * * * * * * * * * * * * * * //

dimensions      [0 1 -1 0 0 0 0];


internalField   nonuniform List<vector> 
9600
(
(0.657405 -0.00144588 0)
(1.29277 -0.00382758 0)
(0.754414 -0.00221593 0)
(1.46906 0.0182184 0)
(0.471909 -0.0104924 0)
(1.23725 -0.0019354 0)
(0.793721 -0.00117346 0)
(1.23228 0.0152631 0)
(0.765033 0.0124848 0)
(1.2367 0.0174766 0)
(0.774375 0.0103884 0)
(1.21684 0.00650918 0)
(0.779487 0.000420385 0)
(1.17076 0.00366008 0)
(0.831602 -0.000866208 0)
(1.15706 0.00272625 0)
(0.844814 0.00777103 0)
(1.15606 0.0106533 0)
(0.849226 0.0117636 0)
(1.13669 0.0131976 0)
(0.66679 -0.0012367 0)
(1.28471 -0.00423171 0)
(0.756074 -0.00443432 0)
(1.46355 0.0204933 0)
(0.519233 -0.00856182 0)
(1.23178 -0.00553448 0)
(0.804846 -0.0018403 0)
(1.22921 0.0158578 0)
(0.780726 0.0122003 0)
(1.22449 0.0176595 0)
(0.805427 0.010167 0)
(1.19591 0.00682253 0)
(0.827602 0.000891556 0)
(1.1387 0.00303799 0)
(0.886762 -0.000924212 0)
(1.11214 0.00242514 0)
(0.913232 0.00804173 0)
(1.08308 0.00982012 0)
(0.951482 0.0135545 0)
(1.0199 0.0111371 0)
(0.686776 -0.00108145 0)
(1.26663 -0.00458498 0)
(0.761597 -0.00608716 0)
(1.45189 0.0231948 0)
(0.599318 -0.00707326 0)
(1.21415 -0.00748333 0)
(0.832088 -0.00215001 0)
(1.21636 0.0166146 0)
(0.82249 0.0118985 0)
(1.1946 0.0177532 0)
(0.868182 0.0102076 0)
(1.15629 0.00683508 0)
(0.904983 0.00163322 0)
(1.09006 0.00213639 0)
(0.957747 -0.000511638 0)
(1.06088 0.00197085 0)
(0.977188 0.00848271 0)
(1.03432 0.00937655 0)
(0.997809 0.0144782 0)
(1.00077 0.0113784 0)
(0.718869 -0.000930899 0)
(1.23605 -0.00477775 0)
(0.773058 -0.00782524 0)
(1.43063 0.0247855 0)
(0.706375 -0.00532977 0)
(1.17857 -0.00905723 0)
(0.874697 -0.00253531 0)
(1.19016 0.0169348 0)
(0.884902 0.0119696 0)
(1.15124 0.0174273 0)
(0.94026 0.0105265 0)
(1.11221 0.00642491 0)
(0.97349 0.00263741 0)
(1.05225 0.00144511 0)
(1.0031 -5.75774e-05 0)
(1.03453 0.00173355 0)
(1.00707 0.00887849 0)
(1.0225 0.00930813 0)
(1.01104 0.014882 0)
(1.0074 0.0122608 0)
(0.762838 -0.000749431 0)
(1.19295 -0.00484905 0)
(0.792761 -0.00976287 0)
(1.39596 0.0253561 0)
(0.824918 -0.00312351 0)
(1.12905 -0.0101481 0)
(0.922646 -0.00301156 0)
(1.1538 0.0168337 0)
(0.950192 0.0124136 0)
(1.10827 0.0168212 0)
(0.997577 0.0108916 0)
(1.07895 0.00602966 0)
(1.01427 0.00358235 0)
(1.03437 0.00117349 0)
(1.01999 0.000176847 0)
(1.02597 0.00171855 0)
(1.01736 0.00909251 0)
(1.02277 0.00934692 0)
(1.01783 0.0151624 0)
(1.01406 0.0130598 0)
(0.815227 -0.000531946 0)
(1.14134 -0.00480402 0)
(0.821127 -0.0117844 0)
(1.34661 0.0250704 0)
(0.932636 -0.000623069 0)
(1.07812 -0.0106701 0)
(0.962329 -0.00361691 0)
(1.11598 0.0164672 0)
(1.00191 0.012987 0)
(1.07814 0.01627 0)
(1.03168 0.0111735 0)
(1.06023 0.00589363 0)
(1.03149 0.00433872 0)
(1.02835 0.00127221 0)
(1.02174 0.000357183 0)
(1.0208 0.0017357 0)
(1.01936 0.00912044 0)
(1.02326 0.00941519 0)
(1.02185 0.0152821 0)
(1.01928 0.0137186 0)
(0.869468 -0.000278488 0)
(1.08917 -0.00463898 0)
(0.855023 -0.0137895 0)
(1.28587 0.0239956 0)
(1.01231 0.00198597 0)
(1.03886 -0.0105574 0)
(0.985229 -0.00428534 0)
(1.08392 0.0159038 0)
(1.03381 0.0134713 0)
(1.0631 0.0159463 0)
(1.04725 0.0113884 0)
(1.05103 0.0059978 0)
(1.03577 0.00496132 0)
(1.02567 0.00161634 0)
(1.01826 0.000615735 0)
(1.01439 0.00171873 0)
(1.01653 0.00898328 0)
(1.02121 0.0094364 0)
(1.02235 0.0151665 0)
(1.02171 0.0142747 0)
(0.917983 -3.42122e-06 0)
(1.0456 -0.00437742 0)
(0.888672 -0.0156558 0)
(1.22054 0.0223653 0)
(1.05882 0.00450882 0)
(1.0173 -0.00987844 0)
(0.991834 -0.00496936 0)
(1.0589 0.0151452 0)
(1.04767 0.013743 0)
(1.0572 0.0158151 0)
(1.05183 0.0116076 0)
(1.04554 0.00625115 0)
(1.03438 0.00554165 0)
(1.023 0.00210491 0)
(1.01382 0.000979798 0)
(1.00771 0.00172205 0)
(1.01099 0.00870736 0)
(1.01658 0.00935224 0)
(1.01958 0.0148587 0)
(1.02077 0.0147257 0)
(0.955181 0.000258344 0)
(1.01687 -0.00404896 0)
(0.916817 -0.017249 0)
(1.15799 0.0205305 0)
(1.0771 0.00661859 0)
(1.01093 -0.00880558 0)
(0.988962 -0.00554881 0)
(1.0383 0.0142233 0)
(1.04801 0.0137532 0)
(1.0531 0.0157543 0)
(1.05028 0.0118701 0)
(1.04053 0.00658768 0)
(1.0307 0.00610971 0)
(1.02002 0.00265139 0)
(1.00999 0.00143272 0)
(1.00218 0.00179267 0)
(1.00493 0.00835218 0)
(1.01061 0.00921149 0)
(1.01466 0.0144345 0)
(1.01722 0.0150274 0)
(0.97932 0.000465293 0)
(1.00349 -0.00368234 0)
(0.937353 -0.018464 0)
(1.10385 0.0187546 0)
(1.07644 0.00815257 0)
(1.01275 -0.00753857 0)
(0.984191 -0.00588844 0)
(1.02021 0.013229 0)
(1.0397 0.0135226 0)
(1.04662 0.0156535 0)
(1.04497 0.0121535 0)
(1.03504 0.00694704 0)
(1.02631 0.00664493 0)
(1.01722 0.00320055 0)
(1.00735 0.00193777 0)
(0.998437 0.00195275 0)
(0.99982 0.00800593 0)
(1.00479 0.00909145 0)
(1.00896 0.013938 0)
(1.01225 0.015151 0)
(0.992262 0.000589727 0)
(1.00111 -0.00330885 0)
(0.951378 -0.0192516 0)
(1.06123 0.0171461 0)
(1.06596 0.00912139 0)
(1.01627 -0.00626921 0)
(0.981894 -0.00593508 0)
(1.00513 0.0122832 0)
(1.02763 0.0131289 0)
(1.03746 0.0154514 0)
(1.03745 0.0123976 0)
(1.02926 0.00726656 0)
(1.02213 0.00711724 0)
(1.01507 0.00372339 0)
(1.00605 0.00245342 0)
(0.996554 0.00222349 0)
(0.996288 0.0077326 0)
(1.00004 0.0090262 0)
(1.00359 0.0134191 0)
(1.00698 0.0151361 0)
(0.99772 0.000630645 0)
(1.00383 -0.00296577 0)
(0.961343 -0.0196214 0)
(1.03063 0.0157318 0)
(1.05226 0.00962698 0)
(1.01806 -0.00513444 0)
(0.982717 -0.0057269 0)
(0.994488 0.011487 0)
(1.01614 0.0126704 0)
(1.02762 0.0151418 0)
(1.02938 0.0125557 0)
(1.02376 0.0074998 0)
(1.01857 0.00750042 0)
(1.01365 0.00419448 0)
(1.00591 0.00294648 0)
(0.996257 0.00261057 0)
(0.994433 0.00755515 0)
(0.996794 0.00903122 0)
(0.999352 0.012957 0)
(1.00233 0.0150447 0)
(0.999332 0.000607213 0)
(1.00716 -0.00268006 0)
(0.969251 -0.01965 0)
(1.01052 0.01451 0)
(1.03907 0.00980617 0)
(1.01744 -0.00419516 0)
(0.985324 -0.0053628 0)
(0.988752 0.010875 0)
(1.00789 0.0122279 0)
(1.01938 0.0147606 0)
(1.0223 0.0126207 0)
(1.01904 0.00763158 0)
(1.01572 0.00777797 0)
(1.01272 0.00459973 0)
(1.00643 0.00339243 0)
(0.997057 0.0030892 0)
(0.9941 0.00747847 0)
(0.995199 0.00911641 0)
(0.996766 0.0126083 0)
(0.999072 0.0149027 0)
(0.999561 0.000546211 0)
(1.00911 -0.00246246 0)
(0.976018 -0.0194393 0)
(0.998319 0.013471 0)
(1.02795 0.00979247 0)
(1.01524 -0.00345457 0)
(0.988238 -0.00494796 0)
(0.986937 0.0104131 0)
(1.00349 0.0118435 0)
(1.0139 0.014356 0)
(1.01714 0.0126175 0)
(1.01538 0.00768102 0)
(1.01347 0.00795485 0)
(1.01193 0.00494164 0)
(1.0071 0.00377175 0)
(0.998378 0.00361426 0)
(0.994946 0.00749254 0)
(0.995186 0.00926276 0)
(0.996036 0.0123756 0)
(0.997671 0.014718 0)
(0.999591 0.000471207 0)
(1.00946 -0.00231564 0)
(0.98178 -0.0190698 0)
(0.991366 0.0126013 0)
(1.01924 0.00968775 0)
(1.01256 -0.00288765 0)
(0.990663 -0.00454953 0)
(0.98737 0.0100404 0)
(1.00201 0.0115248 0)
(1.01103 0.0139626 0)
(1.01399 0.0125842 0)
(1.0128 0.00768896 0)
(1.01174 0.00805277 0)
(1.01115 0.00523314 0)
(1.00757 0.00407621 0)
(0.999738 0.00413698 0)
(0.996485 0.00756784 0)
(0.99639 0.0094258 0)
(0.996913 0.0122304 0)
(0.998039 0.0145098 0)
(0.999772 0.000396035 0)
(1.00875 -0.00222992 0)
(0.986425 -0.0186058 0)
(0.987615 0.0118763 0)
(1.01281 0.00954263 0)
(1.01017 -0.00246192 0)
(0.992446 -0.00420066 0)
(0.988597 0.00970649 0)
(1.00204 0.0112575 0)
(1.00985 0.0135948 0)
(1.01234 0.0125485 0)
(1.01111 0.00769383 0)
(1.01045 0.00809551 0)
(1.01039 0.00549165 0)
(1.00778 0.00431229 0)
(1.00088 0.00461547 0)
(0.998235 0.00766736 0)
(0.998249 0.00956336 0)
(0.99878 0.0121392 0)
(0.999602 0.0142976 0)
(1.00009 0.000327996 0)
(1.00759 -0.00219339 0)
(0.989914 -0.0180867 0)
(0.98574 0.0112628 0)
(1.00834 0.00938009 0)
(1.00843 -0.00214328 0)
(0.993734 -0.00390394 0)
(0.989779 0.00938491 0)
(1.00247 0.0110216 0)
(1.00942 0.0132526 0)
(1.01149 0.0125174 0)
(1.01005 0.00771782 0)
(1.00955 0.00810215 0)
(1.00977 0.00573147 0)
(1.00782 0.00449735 0)
(1.00175 0.00502339 0)
(0.999858 0.00776358 0)
(1.00023 0.00965216 0)
(1.00095 0.0120709 0)
(1.00162 0.0140897 0)
(1.00046 0.000269092 0)
(1.00638 -0.00219338 0)
(0.992348 -0.0175352 0)
(0.984959 0.010725 0)
(1.0054 0.00921321 0)
(1.00736 -0.00190017 0)
(0.994712 -0.00364697 0)
(0.990625 0.00906919 0)
(1.00267 0.0108049 0)
(1.00909 0.0129255 0)
(1.01088 0.012485 0)
(1.00933 0.00776694 0)
(1.00893 0.00808384 0)
(1.00935 0.00595765 0)
(1.00783 0.00465206 0)
(1.00244 0.00535542 0)
(1.00122 0.00784525 0)
(1.00199 0.00968663 0)
(1.00292 0.0119998 0)
(1.00351 0.0138883 0)
(1.00082 0.000218539 0)
(1.00532 -0.00221705 0)
(0.993907 -0.016967 0)
(0.984813 0.0102346 0)
(1.0036 0.00904545 0)
(1.00682 -0.001708 0)
(0.995486 -0.00341561 0)
(0.991154 0.00876542 0)
(1.00251 0.0106025 0)
(1.00862 0.0126041 0)
(1.01022 0.0124416 0)
(1.0088 0.00783383 0)
(1.0085 0.00804455 0)
(1.00914 0.00616862 0)
(1.00791 0.00479254 0)
(1.00305 0.00562496 0)
(1.00231 0.00791288 0)
(1.00342 0.00967333 0)
(1.0045 0.0119109 0)
(1.00499 0.0136983 0)
(1.00113 0.000174496 0)
(1.00446 -0.0022533 0)
(0.994783 -0.0163907 0)
(0.985031 0.00976836 0)
(1.00256 0.00887497 0)
(1.00667 -0.00154669 0)
(0.996092 -0.00319636 0)
(0.991478 0.00848251 0)
(1.00203 0.0104115 0)
(1.00803 0.0122856 0)
(1.00947 0.0123772 0)
(1.00837 0.0079061 0)
(1.00821 0.00798583 0)
(1.00909 0.00636123 0)
(1.00805 0.00492552 0)
(1.00364 0.00584807 0)
(1.00316 0.00797052 0)
(1.00451 0.00962568 0)
(1.00565 0.0118032 0)
(1.00601 0.0135277 0)
(1.00137 0.000134659 0)
(1.00385 -0.00229334 0)
(0.995157 -0.0158101 0)
(0.985468 0.00930942 0)
(1.00198 0.00869753 0)
(1.00678 -0.00140058 0)
(0.996534 -0.00298018 0)
(0.991698 0.00822584 0)
(1.00138 0.0102301 0)
(1.00744 0.0119663 0)
(1.00868 0.0122868 0)
(1.00803 0.0079739 0)
(1.00802 0.00790825 0)
(1.00914 0.00653399 0)
(1.00822 0.00505404 0)
(1.00417 0.00603403 0)
(1.00381 0.00802614 0)
(1.00529 0.00955695 0)
(1.00641 0.0116816 0)
(1.00663 0.0133815 0)
(1.0015 9.63659e-05 0)
(1.00347 -0.00232966 0)
(0.995195 -0.0152305 0)
(0.986058 0.00884981 0)
(1.00165 0.00850867 0)
(1.00707 -0.00125897 0)
(0.996825 -0.00276157 0)
(0.991888 0.00799516 0)
(1.00069 0.010057 0)
(1.00694 0.0116398 0)
(1.00794 0.0121709 0)
(1.00777 0.00803058 0)
(1.00789 0.00781288 0)
(1.00924 0.00668682 0)
(1.00839 0.00518343 0)
(1.00463 0.00619111 0)
(1.00426 0.00809372 0)
(1.00581 0.00947872 0)
(1.00688 0.0115464 0)
(1.00693 0.0132632 0)
(1.0015 5.76348e-05 0)
(1.0033 -0.00235571 0)
(0.995047 -0.0146549 0)
(0.986768 0.00838272 0)
(1.00141 0.0083068 0)
(1.0074 -0.00111478 0)
(0.997005 -0.00253687 0)
(0.992102 0.00778697 0)
(1.00005 0.0098913 0)
(1.00659 0.0113015 0)
(1.00731 0.0120329 0)
(1.00757 0.00807487 0)
(1.0078 0.00770221 0)
(1.00933 0.00682033 0)
(1.00853 0.005318 0)
(1.005 0.00632607 0)
(1.00457 0.00818385 0)
(1.00613 0.00940549 0)
(1.00713 0.0113871 0)
(1.00701 0.0131753 0)
(1.00138 1.77389e-05 0)
(1.00329 -0.00236985 0)
(0.994828 -0.0140823 0)
(0.987566 0.00790953 0)
(1.00117 0.00809178 0)
(1.0077 -0.0009643 0)
(0.997129 -0.00230659 0)
(0.992371 0.00759633 0)
(0.999538 0.00973072 0)
(1.00639 0.0109504 0)
(1.00682 0.0118747 0)
(1.00738 0.00811199 0)
(1.00774 0.00757981 0)
(1.00937 0.00693766 0)
(1.00862 0.0054639 0)
(1.00529 0.0064397 0)
(1.00477 0.00829321 0)
(1.00632 0.00935444 0)
(1.00728 0.0111947 0)
(1.007 0.0131009 0)
(1.00116 -2.47681e-05 0)
(1.00338 -0.00237213 0)
(0.994619 -0.0135177 0)
(0.988402 0.00743556 0)
(1.0009 0.00786526 0)
(1.00789 -0.000807342 0)
(0.997253 -0.00207353 0)
(0.992696 0.00741873 0)
(0.999191 0.00957539 0)
(1.0063 0.0105858 0)
(1.00646 0.0116968 0)
(1.00718 0.00815017 0)
(1.00768 0.00744952 0)
(1.00935 0.00704042 0)
(1.00867 0.00563077 0)
(1.00553 0.00653267 0)
(1.00493 0.00840958 0)
(1.00645 0.00933971 0)
(1.00742 0.0109779 0)
(1.007 0.0130042 0)
(1.00088 -7.05917e-05 0)
(1.00349 -0.00236121 0)
(0.994467 -0.012968 0)
(0.989218 0.00696191 0)
(1.00063 0.0076297 0)
(1.00795 -0.000647077 0)
(0.997416 -0.00184069 0)
(0.993052 0.00724827 0)
(0.999003 0.00942941 0)
(1.00628 0.0102078 0)
(1.00622 0.011499 0)
(1.00696 0.00819517 0)
(1.00762 0.00730977 0)
(1.00928 0.00712431 0)
(1.00867 0.00582388 0)
(1.00572 0.00660961 0)
(1.00507 0.00852106 0)
(1.00656 0.00936738 0)
(1.00757 0.010756 0)
(1.00706 0.0128464 0)
(1.0006 -0.000119278 0)
(1.00357 -0.00233665 0)
(0.9944 -0.0124331 0)
(0.989958 0.00649203 0)
(1.0004 0.00738789 0)
(1.00788 -0.000484485 0)
(0.997635 -0.00160353 0)
(0.993413 0.00707744 0)
(0.998941 0.00929744 0)
(1.00629 0.00982069 0)
(1.00607 0.0112792 0)
(1.00671 0.00825342 0)
(1.00755 0.00716083 0)
(1.00917 0.00717934 0)
(1.00862 0.00603983 0)
(1.00589 0.00667468 0)
(1.0052 0.00861096 0)
(1.00667 0.00943368 0)
(1.00775 0.0105523 0)
(1.0072 0.0126012 0)
(1.00034 -0.000170761 0)
(1.00359 -0.00229659 0)
(0.994429 -0.0119158 0)
(0.990585 0.00603162 0)
(1.00023 0.00713726 0)
(1.00772 -0.000321164 0)
(0.9979 -0.00137361 0)
(0.993762 0.00689573 0)
(0.998963 0.00917946 0)
(1.00631 0.00943504 0)
(1.00598 0.0110351 0)
(1.00644 0.00833033 0)
(1.00747 0.00701817 0)
(1.00905 0.00720007 0)
(1.00852 0.00627081 0)
(1.00603 0.00673263 0)
(1.00533 0.00866219 0)
(1.00678 0.00952433 0)
(1.00792 0.0103957 0)
(1.00742 0.0122766 0)
(1.00013 -0.000224003 0)
(1.00355 -0.00224241 0)
(0.994552 -0.0114148 0)
(0.991093 0.00557931 0)
(1.00011 0.00687815 0)
(1.00748 -0.000162404 0)
(0.998188 -0.00114896 0)
(0.994097 0.00670106 0)
(0.999032 0.00906729 0)
(1.00633 0.00906148 0)
(1.00593 0.0107647 0)
(1.00617 0.00842354 0)
(1.00736 0.00690007 0)
(1.00894 0.00718864 0)
(1.0084 0.00651212 0)
(1.00615 0.00679464 0)
(1.00545 0.00866624 0)
(1.00687 0.00961647 0)
(1.00807 0.0103126 0)
(1.00767 0.011916 0)
(0.999987 -0.000279792 0)
(1.00345 -0.0021734 0)
(0.994756 -0.0109298 0)
(0.991504 0.00513645 0)
(1.00002 0.00661377 0)
(1.00719 -9.73356e-06 0)
(0.998473 -0.000918235 0)
(0.994424 0.00649333 0)
(0.999116 0.00895101 0)
(1.00635 0.00870196 0)
(1.00589 0.0104653 0)
(1.0059 0.0085246 0)
(1.00723 0.00681648 0)
(1.00885 0.00714321 0)
(1.00825 0.00675821 0)
(1.00625 0.00688153 0)
(1.00557 0.00863002 0)
(1.00697 0.00967897 0)
(1.00818 0.010302 0)
(1.00792 0.0115921 0)
(0.999888 -0.000337268 0)
(1.00332 -0.00209225 0)
(0.995014 -0.010459 0)
(0.99186 0.00470717 0)
(0.999933 0.0063412 0)
(1.00689 0.000134378 0)
(0.998736 -0.000684394 0)
(0.99475 0.00627664 0)
(0.999195 0.00883023 0)
(1.00637 0.00836168 0)
(1.00587 0.0101339 0)
(1.00565 0.00861837 0)
(1.00707 0.00677194 0)
(1.00878 0.00706859 0)
(1.00811 0.0069946 0)
(1.00632 0.0070061 0)
(1.00569 0.00857452 0)
(1.00707 0.0096902 0)
(1.00826 0.0103187 0)
(1.00814 0.0113591 0)
(0.999825 -0.00039731 0)
(1.00317 -0.00200056 0)
(0.995301 -0.00999814 0)
(0.9922 0.00428702 0)
(0.999825 0.00606414 0)
(1.00657 0.000262773 0)
(0.998968 -0.000445083 0)
(0.995079 0.00605752 0)
(0.999259 0.00870177 0)
(1.00639 0.00805388 0)
(1.00586 0.00977661 0)
(1.0054 0.0086947 0)
(1.00689 0.00676107 0)
(1.00874 0.00697613 0)
(1.00798 0.00720918 0)
(1.00636 0.00715977 0)
(1.0058 0.00851425 0)
(1.00718 0.00966272 0)
(1.00833 0.0103145 0)
(1.00832 0.011203 0)
(0.999786 -0.000458507 0)
(1.00301 -0.00190038 0)
(0.995595 -0.00954764 0)
(0.992556 0.00387591 0)
(0.999692 0.00578592 0)
(1.00626 0.000380611 0)
(0.999169 -0.00021004 0)
(0.995411 0.00584204 0)
(0.999306 0.00855559 0)
(1.00639 0.0077827 0)
(1.00585 0.00940813 0)
(1.00516 0.00875779 0)
(1.00669 0.0067824 0)
(1.00871 0.00686956 0)
(1.00788 0.00740106 0)
(1.00638 0.00733684 0)
(1.00591 0.00844771 0)
(1.00729 0.00961775 0)
(1.0084 0.0102896 0)
(1.00847 0.0110713 0)
(0.999762 -0.000520289 0)
(1.00283 -0.00179756 0)
(0.99588 -0.00910001 0)
(0.992939 0.0034742 0)
(0.99954 0.00551011 0)
(1.00595 0.000481135 0)
(0.999346 2.69902e-05 0)
(0.99574 0.00563539 0)
(0.999338 0.00838743 0)
(1.00637 0.00753397 0)
(1.00585 0.0090319 0)
(1.00493 0.00880231 0)
(1.00646 0.00684136 0)
(1.00868 0.00674967 0)
(1.00781 0.00756422 0)
(1.00636 0.00754554 0)
(1.00601 0.00837493 0)
(1.0074 0.00954255 0)
(1.00846 0.0102732 0)
(1.0086 0.0109328 0)
(0.999746 -0.000581895 0)
(1.00265 -0.00169202 0)
(0.996148 -0.00865485 0)
(0.993347 0.00307009 0)
(0.999377 0.00524553 0)
(1.00564 0.000558122 0)
(0.999506 0.000257239 0)
(0.996061 0.00543454 0)
(0.999355 0.00819984 0)
(1.00633 0.00729862 0)
(1.00585 0.00865075 0)
(1.00471 0.00881639 0)
(1.00621 0.00693567 0)
(1.00865 0.00661996 0)
(1.00777 0.00767833 0)
(1.00632 0.00778979 0)
(1.00608 0.00832105 0)
(1.00752 0.00941065 0)
(1.00852 0.0102727 0)
(1.0087 0.0108126 0)
(0.999736 -0.000642407 0)
(1.00246 -0.00158611 0)
(0.996395 -0.00820032 0)
(0.993774 0.00266254 0)
(0.999213 0.004995 0)
(1.00534 0.000616096 0)
(0.999653 0.000466046 0)
(0.996369 0.00525041 0)
(0.999359 0.0079974 0)
(1.00626 0.00707481 0)
(1.00586 0.00827058 0)
(1.0045 0.00879939 0)
(1.00593 0.0070675 0)
(1.00862 0.00649812 0)
(1.00777 0.00772467 0)
(1.00626 0.00805462 0)
(1.0061 0.00832312 0)
(1.00765 0.00922028 0)
(1.0086 0.0102439 0)
(1.00877 0.0107415 0)
(0.999729 -0.000699376 0)
(1.00227 -0.00148702 0)
(0.996619 -0.00773547 0)
(0.994207 0.00224072 0)
(0.999053 0.00476399 0)
(1.00503 0.000662194 0)
(0.999793 0.000651673 0)
(0.996662 0.00509263 0)
(0.999352 0.00778947 0)
(1.00617 0.00686649 0)
(1.00587 0.00789527 0)
(1.00431 0.00874345 0)
(1.00562 0.00722672 0)
(1.00857 0.00639801 0)
(1.00781 0.00769267 0)
(1.00619 0.00830678 0)
(1.00608 0.00840544 0)
(1.00777 0.00901089 0)
(1.0087 0.0101367 0)
(1.00881 0.0107153 0)
(0.999723 -0.000750812 0)
(1.00207 -0.00140144 0)
(0.996818 -0.00725587 0)
(0.994639 0.00179675 0)
(0.998904 0.00454838 0)
(1.00473 0.000706927 0)
(0.999925 0.000800081 0)
(0.996941 0.00495527 0)
(0.999333 0.00758033 0)
(1.00604 0.00667066 0)
(1.00588 0.00753036 0)
(1.00413 0.00864985 0)
(1.00528 0.00740755 0)
(1.00848 0.00633411 0)
(1.00788 0.00759132 0)
(1.00614 0.00851252 0)
(1.00599 0.00856141 0)
(1.00785 0.00883518 0)
(1.00883 0.00994171 0)
(1.00886 0.0106876 0)
(0.999716 -0.000794859 0)
(1.00188 -0.00133402 0)
(0.996992 -0.00675631 0)
(0.995062 0.00134095 0)
(0.998769 0.00433521 0)
(1.00443 0.000754957 0)
(1.00005 0.000907947 0)
(0.997206 0.0048277 0)
(0.999303 0.00737848 0)
(1.0059 0.00647661 0)
(1.00589 0.00716872 0)
(1.00399 0.00851928 0)
(1.00493 0.00760343 0)
(1.00836 0.00631669 0)
(1.00799 0.00743584 0)
(1.00613 0.00864874 0)
(1.00586 0.00876613 0)
(1.00788 0.00872894 0)
(1.00898 0.00969136 0)
(1.00892 0.010604 0)
(0.999709 -0.000830793 0)
(1.0017 -0.00128792 0)
(0.997143 -0.00623662 0)
(0.995472 0.000882365 0)
(0.99865 0.00411744 0)
(1.00412 0.000819917 0)
(1.00016 0.000974202 0)
(0.997459 0.00468912 0)
(0.99926 0.00719121 0)
(1.00572 0.00629515 0)
(1.0059 0.00680616 0)
(1.00387 0.00834418 0)
(1.00456 0.00779723 0)
(1.00818 0.00635049 0)
(1.00811 0.00723922 0)
(1.00616 0.0086939 0)
(1.0057 0.00898834 0)
(1.00783 0.00869825 0)
(1.00913 0.00942333 0)
(1.00902 0.0104423 0)
(0.999702 -0.000857371 0)
(1.00152 -0.00127028 0)
(0.997271 -0.0056958 0)
(0.995862 0.000444758 0)
(0.99855 0.00388217 0)
(1.00381 0.000912593 0)
(1.00026 0.00101192 0)
(0.997703 0.00453101 0)
(0.999208 0.00701449 0)
(1.00552 0.00614058 0)
(1.00591 0.00644839 0)
(1.0038 0.00811883 0)
(1.00419 0.0079763 0)
(1.00794 0.00644973 0)
(1.00823 0.00703407 0)
(1.00625 0.00864124 0)
(1.00552 0.00920406 0)
(1.0077 0.0087441 0)
(1.00926 0.00916436 0)
(1.00916 0.0102005 0)
(0.999693 -0.000870234 0)
(1.00136 -0.0012817 0)
(0.997379 -0.00515634 0)
(0.996231 5.25514e-05 0)
(0.998472 0.00361361 0)
(1.00349 0.0010319 0)
(1.00035 0.00104507 0)
(0.997941 0.00436111 0)
(0.99915 0.00684177 0)
(1.00528 0.00601614 0)
(1.0059 0.00611215 0)
(1.00378 0.00784212 0)
(1.00383 0.00811864 0)
(1.00764 0.0066071 0)
(1.00832 0.00685142 0)
(1.00639 0.00848833 0)
(1.00537 0.00937883 0)
(1.00749 0.00886592 0)
(1.00932 0.00894734 0)
(1.00934 0.00988498 0)
(0.999684 -0.000874995 0)
(1.00121 -0.00131691 0)
(0.99747 -0.00462208 0)
(0.996574 -0.000282725 0)
(0.998417 0.00329888 0)
(1.00317 0.0011659 0)
(1.00041 0.00107718 0)
(0.998172 0.00417056 0)
(0.999093 0.00666838 0)
(1.00501 0.00592226 0)
(1.00587 0.00581499 0)
(1.0038 0.00751779 0)
(1.0035 0.00819997 0)
(1.00728 0.00680012 0)
(1.00837 0.00671991 0)
(1.00659 0.00825186 0)
(1.00526 0.00946989 0)
(1.00721 0.00903981 0)
(1.00929 0.00881247 0)
(1.00954 0.00951903 0)
(0.999676 -0.000866172 0)
(1.00107 -0.00137678 0)
(0.997548 -0.00410797 0)
(0.996886 -0.000553532 0)
(0.998387 0.00293316 0)
(1.00286 0.00129809 0)
(1.00045 0.00111808 0)
(0.998397 0.00394858 0)
(0.999041 0.00648483 0)
(1.00472 0.00585811 0)
(1.00582 0.00556804 0)
(1.00385 0.00716276 0)
(1.00323 0.00821088 0)
(1.00687 0.00700547 0)
(1.00834 0.00665942 0)
(1.00682 0.00797634 0)
(1.00521 0.0094535 0)
(1.00689 0.00921274 0)
(1.00915 0.00877584 0)
(1.00971 0.00915569 0)
(0.999667 -0.000848616 0)
(1.00095 -0.00144891 0)
(0.997617 -0.00362596 0)
(0.997164 -0.000747774 0)
(0.998382 0.00253206 0)
(1.00257 0.00141227 0)
(1.00047 0.00118418 0)
(0.998612 0.00370692 0)
(0.999005 0.00627379 0)
(1.00441 0.0058145 0)
(1.00572 0.00538068 0)
(1.00393 0.00680986 0)
(1.003 0.00815182 0)
(1.00644 0.00718588 0)
(1.00824 0.00665261 0)
(1.00705 0.00769877 0)
(1.00524 0.00933666 0)
(1.00657 0.00933516 0)
(1.00889 0.00881194 0)
(1.00981 0.00886568 0)
(0.999659 -0.000822199 0)
(1.00085 -0.00153176 0)
(0.997682 -0.00317913 0)
(0.997405 -0.00085742 0)
(0.9984 0.00211257 0)
(1.0023 0.0014886 0)
(1.00045 0.00129089 0)
(0.998813 0.00348179 0)
(0.998986 0.00603231 0)
(1.0041 0.00577141 0)
(1.00559 0.00525161 0)
(1.00402 0.00647431 0)
(1.00283 0.00803045 0)
(1.00601 0.00732358 0)
(1.00807 0.00668514 0)
(1.00727 0.00744337 0)
(1.00534 0.00914264 0)
(1.00627 0.00938864 0)
(1.00855 0.00886518 0)
(1.00979 0.00867562 0)
(0.999653 -0.000786922 0)
(1.00076 -0.00161961 0)
(0.997751 -0.00278663 0)
(0.997608 -0.000880882 0)
(0.998436 0.00170318 0)
(1.00206 0.00150925 0)
(1.00042 0.00143056 0)
(0.998993 0.00329151 0)
(0.998984 0.00576533 0)
(1.00379 0.0057115 0)
(1.00542 0.00518953 0)
(1.00411 0.00617078 0)
(1.00271 0.00785908 0)
(1.00558 0.00741536 0)
(1.00782 0.00674464 0)
(1.00746 0.00721207 0)
(1.0055 0.00887363 0)
(1.00601 0.00937077 0)
(1.00816 0.00890193 0)
(1.00966 0.00856372 0)
(0.999648 -0.000748803 0)
(1.00069 -0.00169742 0)
(0.997829 -0.00246181 0)
(0.997776 -0.000833729 0)
(0.998481 0.00133465 0)
(1.00186 0.00147283 0)
(1.00038 0.00158382 0)
(0.99915 0.00314584 0)
(0.998997 0.00548187 0)
(1.00349 0.00561618 0)
(1.00523 0.00516665 0)
(1.00419 0.00591352 0)
(1.00263 0.00764806 0)
(1.00517 0.00745255 0)
(1.00752 0.00680908 0)
(1.00759 0.00701191 0)
(1.0057 0.0085415 0)
(1.00582 0.00927801 0)
(1.00774 0.00892576 0)
(1.00942 0.00849108 0)
(0.999646 -0.000709055 0)
(1.00063 -0.00176072 0)
(0.997922 -0.00220384 0)
(0.997914 -0.000731319 0)
(0.998529 0.00102271 0)
(1.0017 0.00137105 0)
(1.00034 0.00173199 0)
(0.99928 0.00306452 0)
(0.99902 0.0052073 0)
(1.00322 0.00547314 0)
(1.00502 0.00513551 0)
(1.00427 0.00570528 0)
(1.0026 0.00742235 0)
(1.00479 0.00743889 0)
(1.00717 0.00685711 0)
(1.00764 0.0068516 0)
(1.00593 0.00818359 0)
(1.00571 0.00909715 0)
(1.00732 0.0089298 0)
(1.00911 0.00842818 0)
(0.999646 -0.000670637 0)
(1.00058 -0.00180273 0)
(0.998034 -0.00201522 0)
(0.99803 -0.000589465 0)
(0.998571 0.000787972 0)
(1.00159 0.00121045 0)
(1.00032 0.00184419 0)
(0.99939 0.00304666 0)
(0.999043 0.00497392 0)
(1.00297 0.00529859 0)
(1.0048 0.00508666 0)
(1.00433 0.00552316 0)
(1.0026 0.00718816 0)
(1.00445 0.0073811 0)
(1.0068 0.00687779 0)
(1.00763 0.00672077 0)
(1.00616 0.00784041 0)
(1.00568 0.00883874 0)
(1.00693 0.00889601 0)
(1.00873 0.00837488 0)
(0.99965 -0.000639229 0)
(1.00055 -0.00181374 0)
(0.998166 -0.00189097 0)
(0.998134 -0.000434511 0)
(0.998598 0.000634958 0)
(1.00151 0.0010279 0)
(1.00032 0.00189883 0)
(0.999488 0.00306818 0)
(0.999061 0.00478598 0)
(1.00274 0.00511254 0)
(1.00458 0.00501633 0)
(1.00437 0.0053487 0)
(1.00264 0.00694345 0)
(1.00414 0.00729772 0)
(1.0064 0.00689154 0)
(1.00755 0.00661335 0)
(1.00637 0.00752391 0)
(1.00572 0.00852472 0)
(1.00659 0.00879975 0)
(1.00832 0.00832096 0)
(0.999658 -0.000615734 0)
(1.00051 -0.0017908 0)
(0.998318 -0.00182324 0)
(0.998234 -0.000288685 0)
(0.998609 0.000566795 0)
(1.00146 0.00084965 0)
(1.00037 0.00187609 0)
(0.999586 0.00310458 0)
(0.999068 0.00466261 0)
(1.00253 0.00493924 0)
(1.00436 0.00491749 0)
(1.00441 0.00517568 0)
(1.0027 0.0066844 0)
(1.00388 0.00718295 0)
(1.00599 0.00690067 0)
(1.00741 0.00653068 0)
(1.00655 0.00723245 0)
(1.00583 0.00817613 0)
(1.00632 0.00863997 0)
(1.0079 0.00825886 0)
(0.999669 -0.000602457 0)
(1.00048 -0.00173334 0)
(0.998485 -0.00179481 0)
(0.998342 -0.000177116 0)
(0.998603 0.000576826 0)
(1.00142 0.000702908 0)
(1.00046 0.00177044 0)
(0.999703 0.00311538 0)
(0.999068 0.00461134 0)
(1.00232 0.00480305 0)
(1.00415 0.00480897 0)
(1.00444 0.00500074 0)
(1.00279 0.00642045 0)
(1.00368 0.00702823 0)
(1.00559 0.00688715 0)
(1.00721 0.00646903 0)
(1.00667 0.00697587 0)
(1.00599 0.0078047 0)
(1.00613 0.00841515 0)
(1.00748 0.00817055 0)
(0.999683 -0.000599586 0)
(1.00045 -0.00164716 0)
(0.998662 -0.00178908 0)
(0.998466 -0.000110834 0)
(0.998586 0.000642442 0)
(1.00138 0.000610103 0)
(1.00058 0.00161067 0)
(0.999858 0.00307628 0)
(0.999071 0.00459724 0)
(1.00212 0.00471244 0)
(1.00394 0.0047103 0)
(1.00447 0.00481764 0)
(1.00291 0.00615152 0)
(1.00354 0.00684435 0)
(1.00522 0.00684355 0)
(1.00696 0.00641627 0)
(1.00674 0.00676861 0)
(1.00616 0.00743561 0)
(1.00604 0.00812537 0)
(1.00711 0.00803709 0)
(0.999701 -0.000605019 0)
(1.00041 -0.00153615 0)
(0.998841 -0.00179129 0)
(0.998611 -9.81127e-05 0)
(0.998565 0.000745368 0)
(1.00132 0.000584717 0)
(1.00072 0.00142896 0)
(1.00006 0.00297528 0)
(0.99909 0.00458813 0)
(1.0019 0.00467164 0)
(1.00371 0.0046368 0)
(1.00448 0.00464274 0)
(1.00306 0.00586544 0)
(1.00346 0.00662941 0)
(1.00488 0.00677111 0)
(1.00669 0.00635178 0)
(1.00673 0.00659846 0)
(1.00631 0.00710156 0)
(1.00603 0.00779426 0)
(1.00681 0.00784949 0)
(0.999721 -0.000625294 0)
(1.00037 -0.00141007 0)
(0.999015 -0.00178317 0)
(0.998783 -0.000134417 0)
(0.998554 0.000864146 0)
(1.00123 0.000649439 0)
(1.00086 0.00126782 0)
(1.00031 0.00277755 0)
(0.999145 0.00454938 0)
(1.00169 0.00465871 0)
(1.00346 0.00459172 0)
(1.00446 0.004501 0)
(1.00321 0.00557946 0)
(1.00343 0.00637488 0)
(1.00457 0.00667381 0)
(1.0064 0.00627562 0)
(1.00668 0.00643835 0)
(1.00644 0.00680718 0)
(1.00607 0.00745251 0)
(1.0066 0.00759708 0)
(0.999743 -0.000633316 0)
(1.00032 -0.00129997 0)
(0.999176 -0.00176641 0)
(0.998978 -0.00018415 0)
(0.998566 0.000967258 0)
(1.00113 0.000784743 0)
(1.00098 0.00117356 0)
(1.00061 0.00250679 0)
(0.999256 0.0044387 0)
(1.00149 0.00464394 0)
(1.00321 0.00456573 0)
(1.00441 0.00438401 0)
(1.00336 0.00531732 0)
(1.00347 0.00608484 0)
(1.00433 0.00653373 0)
(1.00611 0.0061958 0)
(1.00658 0.00628156 0)
(1.00653 0.00653782 0)
(1.00613 0.00712885 0)
(1.00647 0.0072985 0)
(0.999766 -0.000655982 0)
(1.00027 -0.00115412 0)
(0.999326 -0.00170141 0)
(0.999195 -0.000261271 0)
(0.998605 0.00102645 0)
(1.001 0.000934335 0)
(1.00105 0.0011562 0)
(1.00092 0.00223013 0)
(0.99943 0.0042254 0)
(1.00132 0.00460319 0)
(1.00294 0.00455599 0)
(1.00434 0.00428352 0)
(1.0035 0.00508186 0)
(1.00355 0.00578518 0)
(1.00415 0.00633903 0)
(1.00581 0.00609428 0)
(1.00644 0.00613376 0)
(1.00658 0.00627064 0)
(1.00618 0.00681978 0)
(1.0064 0.00698049 0)
(0.999789 -0.000678427 0)
(1.00023 -0.00100109 0)
(0.99944 -0.00159097 0)
(0.999413 -0.000352179 0)
(0.998677 0.0010365 0)
(1.00088 0.00107321 0)
(1.00107 0.00120752 0)
(1.00121 0.00199045 0)
(0.99966 0.00392794 0)
(1.0012 0.00450683 0)
(1.00266 0.00454813 0)
(1.00422 0.00420421 0)
(1.0036 0.00486438 0)
(1.00365 0.0054923 0)
(1.00402 0.0061144 0)
(1.00555 0.00595709 0)
(1.00625 0.00600193 0)
(1.0066 0.00601798 0)
(1.00624 0.00651544 0)
(1.00635 0.00667721 0)
(0.999811 -0.000677912 0)
(1.00018 -0.00088661 0)
(0.99953 -0.0014504 0)
(0.999629 -0.000421114 0)
(0.998779 0.00100041 0)
(1.00077 0.00118553 0)
(1.00105 0.00130788 0)
(1.00145 0.00181713 0)
(0.999927 0.00360381 0)
(1.00114 0.00434526 0)
(1.00239 0.00452343 0)
(1.00406 0.00414815 0)
(1.00367 0.00467153 0)
(1.00377 0.00520266 0)
(1.00394 0.00587849 0)
(1.00531 0.00578792 0)
(1.00604 0.00586381 0)
(1.00656 0.00579628 0)
(1.00628 0.00620497 0)
(1.00632 0.00638699 0)
(0.999831 -0.000680295 0)
(1.00014 -0.000778417 0)
(0.999591 -0.0012782 0)
(0.999824 -0.0004703 0)
(0.998906 0.000931158 0)
(1.00068 0.00126091 0)
(1.00099 0.00142035 0)
(1.00164 0.00171271 0)
(1.00021 0.00329394 0)
(1.00115 0.00412538 0)
(1.00214 0.00446554 0)
(1.00386 0.00409758 0)
(1.00369 0.00451406 0)
(1.00388 0.00491783 0)
(1.00391 0.00561918 0)
(1.0051 0.00559576 0)
(1.00582 0.00569382 0)
(1.00646 0.00559211 0)
(1.00631 0.00589363 0)
(1.0063 0.00607524 0)
(0.999849 -0.000669823 0)
(1.00011 -0.000688124 0)
(0.99963 -0.00110519 0)
(0.999995 -0.000485168 0)
(0.999052 0.000847339 0)
(1.00061 0.00130409 0)
(1.00091 0.00152328 0)
(1.00177 0.00166852 0)
(1.00047 0.00301737 0)
(1.00121 0.00386541 0)
(1.00194 0.00436821 0)
(1.00366 0.00403513 0)
(1.00366 0.00438103 0)
(1.00397 0.00466155 0)
(1.0039 0.0053386 0)
(1.00493 0.00539112 0)
(1.00559 0.00551504 0)
(1.00631 0.00540254 0)
(1.00629 0.0056228 0)
(1.0063 0.00574879 0)
(0.999865 -0.000647721 0)
(1.00009 -0.000626032 0)
(0.999649 -0.000936956 0)
(1.00014 -0.000456389 0)
(0.999208 0.000761026 0)
(1.00058 0.00131211 0)
(1.00082 0.00161264 0)
(1.00184 0.00166844 0)
(1.00071 0.00279327 0)
(1.00132 0.0035957 0)
(1.00179 0.00423155 0)
(1.00344 0.00395944 0)
(1.00359 0.00424928 0)
(1.00402 0.00442969 0)