/*--------------------------------*- C++ -*----------------------------------*\
| =========                 |                                                 |
| \\      /  F ield         | OpenFOAM: The Open Source CFD Toolbox           |
|  \\    /   O peration     | Version:  v1906                                 |
|   \\  /    A nd           | Web:      www.OpenFOAM.com                      |
|    \\/     M anipulation  |                                                 |
\*---------------------------------------------------------------------------*/
FoamFile
{
    version     2.0;
    format      ascii;
    class       volScalarField;
    location    "4";
    object      p;
}
// * * * * * * * * * * * * * * * * * * * * * * * * * * * * * * * * * * * * * //

dimensions      [0 2 -2 0 0 0 0];


internalField   nonuniform List<scalar> 
9600
(
-3.85696e-11
-0.000702861
-0.00461805
-9.05012e-05
0.00251848
-0.00259098
-0.0014656
0.00347222
0.00120173
0.0025908
0.00411678
0.00470677
0.00507839
0.00419157
0.00516062
0.00698887
0.00678186
0.00810966
0.00939129
0.0122982
-2.31095e-06
-0.000698932
-0.00459953
-0.000110165
0.00248432
-0.00258621
-0.00145432
0.00347249
0.00120522
0.00258441
0.00411586
0.00470071
0.00506116
0.004196
0.0051667
0.0069726
0.0068201
0.00806484
0.00941738
0.0120185
-3.68625e-06
-0.000694893
-0.00458495
-0.000144879
0.00244985
-0.002573
-0.00144621
0.00346639
0.00121058
0.00257087
0.00411363
0.00469731
0.00505856
0.00420355
0.00517408
0.00694692
0.00685916
0.00800874
0.00942647
0.0116708
-4.77231e-06
-0.000692975
-0.00457243
-0.000166478
0.00241713
-0.00254769
-0.00143405
0.00345548
0.00121906
0.00255635
0.00411021
0.00470176
0.00505394
0.00421322
0.00518155
0.00691581
0.00689573
0.00795127
0.00940789
0.0113429
-7.07908e-06
-0.000692392
-0.00455316
-0.000173396
0.00237793
-0.00250295
-0.00141189
0.00343794
0.00123254
0.00254085
0.00410459
0.00470955
0.00504608
0.00422421
0.00518948
0.00688175
0.006932
0.00789095
0.00936579
0.0110404
-1.1468e-05
-0.000691849
-0.00452158
-0.000173342
0.00233097
-0.00243609
-0.00137663
0.00341509
0.00125119
0.00252237
0.00409643
0.0047178
0.00503735
0.00423502
0.00519801
0.00684737
0.00696707
0.00782765
0.00930526
0.0107583
-1.83012e-05
-0.000690255
-0.00447482
-0.000171172
0.00227875
-0.00234981
-0.00132801
0.00338999
0.00127404
0.00250112
0.0040874
0.00472578
0.00502913
0.00424469
0.00520727
0.00681389
0.00699889
0.00776393
0.00922737
0.0104898
-2.73321e-05
-0.000686733
-0.00441204
-0.000168326
0.00222429
-0.00225009
-0.00126773
0.00336495
0.00130025
0.00247883
0.00407908
0.00473296
0.00502173
0.00425303
0.0052168
0.00678178
0.00702598
0.00770148
0.00913079
0.0102316
-3.77097e-05
-0.000680811
-0.00433391
-0.00016466
0.00216954
-0.00214355
-0.00119834
0.00334081
0.00132951
0.00245693
0.00407196
0.0047387
0.00501515
0.00425997
0.00522579
0.00675182
0.0070466
0.00763999
0.0090157
0.00998292
-4.83607e-05
-0.000672573
-0.00424203
-0.000159243
0.002115
-0.00203567
-0.00112263
0.00331744
0.00136183
0.00243607
0.00406593
0.00474252
0.00500913
0.00426525
0.00523345
0.00672464
0.00705896
0.00757895
0.00888464
0.0097417
-5.8507e-05
-0.000662426
-0.0041383
-0.000151375
0.00206006
-0.00193002
-0.00104312
0.00329439
0.00139725
0.00241635
0.00406086
0.00474413
0.00500303
0.00426884
0.00523896
0.0067004
0.00706202
0.00751812
0.00874022
0.00950414
-6.77911e-05
-0.000650768
-0.00402472
-0.000141138
0.00200398
-0.00182843
-0.000961645
0.00327144
0.00143562
0.00239752
0.00405676
0.0047434
0.0049962
0.00427119
0.00524133
0.0066792
0.00705569
0.00745594
0.00858445
0.00926702
-7.61733e-05
-0.000637845
-0.00390332
-0.000129161
0.0019463
-0.00173149
-0.000879212
0.0032487
0.00147654
0.00237911
0.00405374
0.00474049
0.0049881
0.00427288
0.00523979
0.00666113
0.00704006
0.0073896
0.0084198
0.0090292
-8.37395e-05
-0.00062375
-0.00377593
-0.000116201
0.00188702
-0.00163897
-0.00079615
0.0032265
0.00151945
0.00236059
0.00405194
0.00473586
0.00497821
0.00427444
0.00523395
0.00664597
0.00701573
0.0073162
0.0082493
0.0087908
-9.05596e-05
-0.000608526
-0.003644
-0.0001028
0.00182657
-0.00155014
-0.000712405
0.00320527
0.00156384
0.00234156
0.00405143
0.00473016
0.00496602
0.00427637
0.00522283
0.00664238
0.00698456
0.00723358
0.00807524
0.00855238
-9.6635e-05
-0.000592247
-0.00350855
-8.91339e-05
0.00176563
-0.00146416
-0.000627793
0.00318541
0.00160929
0.00232179
0.00405217
0.00472412
0.00495111
0.00427924
0.00520694
0.0066311
0.00694877
0.00714039
0.00789873
0.0083151
-0.00010189
-0.000575
-0.0033703
-7.51493e-05
0.00170487
-0.00138019
-0.000542185
0.00316723
0.00165549
0.00230125
0.00405397
0.00471843
0.00493318
0.00428352
0.00518622
0.00661807
0.00690967
0.0070357
0.00771991
0.00808124
-0.000106193
-0.000556852
-0.00322971
-6.07232e-05
0.00164488
-0.00129755
-0.000455571
0.00315094
0.00170222
0.00228006
0.00405654
0.00471376
0.00491203
0.00428907
0.00516182
0.00660172
0.00686781
0.0069196
0.0075384
0.00785348
-0.000109391
-0.000537852
-0.00308709
-4.57066e-05
0.00158613
-0.00121572
-0.000368084
0.00313675
0.00174936
0.00225832
0.00405948
0.00471069
0.00488757
0.00429521
0.00513504
0.0065811
0.00682363
0.00679333
0.00735312
0.00763397
-0.00011133
-0.000518018
-0.00294269
-2.99417e-05
0.00152899
-0.00113439
-0.000279982
0.00312482
0.0017968
0.00223613
0.00406241
0.00470967
0.0048598
0.00430108
0.00510638
0.00655506
0.00677763
0.00665888
0.00716266
0.00742386
-0.000111853
-0.000497322
-0.00279674
-1.32852e-05
0.00147369
-0.00105333
-0.000191567
0.00311524
0.00184449
0.00221363
0.00406495
0.00471094
0.00482888
0.00430595
0.0050762
0.00652273
0.00673002
0.0065186
0.00696597
0.00722318
-0.000110815
-0.000475724
-0.00264944
4.41547e-06
0.00142041
-0.0009724
-0.000103127
0.00310803
0.00189244
0.00219089
0.00406679
0.00471454
0.00479502
0.00430942
0.00504481
0.00648332
0.00668047
0.00637474
0.00676265
0.00703121
-0.000108065
-0.00045314
-0.00250112
2.33304e-05
0.00136928
-0.000891519
-1.49338e-05
0.00310324
0.0019407
0.00216786
0.00406777
0.0047205
0.00475828
0.00431112
0.00501226
0.00643599
0.00662867
0.00622945
0.0065524
0.00684697
-0.000103422
-0.000429401
-0.00235211
4.36384e-05
0.00132039
-0.000810584
7.27742e-05
0.00310079
0.00198946
0.00214444
0.00406771
0.00472908
0.00471872
0.00431052
0.00497893
0.00637982
0.00657443
0.00608523
0.00633449
0.0066683
-9.5938e-05
-0.000404303
-0.00220278
6.55511e-05
0.00127383
-0.000729517
0.000159866
0.00310047
0.00203916
0.00212058
0.004066
0.00474066
0.00467644
0.00430676
0.00494554
0.00631456
0.00651696
0.00594504
0.00610862
0.00649043
-8.72556e-05
-0.000377593
-0.00205349
8.92692e-05
0.00122973
-0.000648293
0.000246256
0.00310204
0.00209037
0.00209631
0.00406162
0.00475571
0.0046318
0.00429831
0.0049128
0.00624078
0.00645451
0.00581199
0.00587701
0.00630585
-7.65775e-05
-0.000348924
-0.0019046
0.000114948
0.00118828
-0.000566911
0.000331972
0.00310506
0.00214356
0.00207193
0.00405348
0.00477487
0.00458563
0.0042835
0.00488121
0.00615943
0.00638466
0.00568857
0.00564574
0.00610667
-6.39042e-05
-0.000317888
-0.00175646
0.00014273
0.0011497
-0.00048542
0.00041722
0.00310891
0.00219882
0.00204807
0.00404046
0.00479828
0.00453918
0.00426089
0.00485099
0.00607205
0.00630463
0.00557508
0.00542354
0.00589001
-4.92864e-05
-0.000284038
-0.00160937
0.000172693
0.00111433
-0.000403955
0.000502266
0.00311314
0.00225617
0.00202545
0.00402141
0.0048254
0.00449403
0.0042294
0.00482183
0.0059812
0.00621247
0.00546785
0.00521809
0.00566267
-3.28022e-05
-0.000246894
-0.00146356
0.00020481
0.00108255
-0.000322775
0.000587426
0.00311758
0.00231582
0.00200497
0.00399538
0.0048552
0.00445182
0.00418814
0.00479227
0.00589026
0.00610876
0.00536076
0.00503212
0.00543842
-1.45758e-05
-0.000205991
-0.00131913
0.000238989
0.00105478
-0.00024234
0.000672795
0.00312241
0.00238033
0.00198768
0.00396204
0.00488607
0.00441385
0.0041368
0.00476026
0.00580165
0.00599665
0.00524965
0.00486068
0.00522777
5.22616e-06
-0.000160916
-0.00117602
0.000275105
0.00103155
-0.000163266
0.00075827
0.00312802
0.0024643
0.00197453
0.00392158
0.00491632
0.00438094
0.00407566
0.0047242
0.0057164
0.00587892
0.00513465
0.00469759
0.00503203
2.64785e-05
-0.000111257
-0.00103412
0.000312877
0.00101356
-8.60043e-05
0.000843623
0.00313466
0.00252747
0.00196564
0.00387417
0.00494459
0.00435418
0.00400498
0.00468269
0.00563611
0.00575681
0.00501734
0.00454193
0.00484592
4.90974e-05
-5.67308e-05
-0.000893093
0.000351838
0.0010017
-1.05175e-05
0.000927896
0.00314302
0.00258776
0.00196094
0.0038198
0.00496971
0.00433477
0.00392479
0.0046332
0.00556342
0.00563232
0.00489603
0.00439734
0.00466701
7.29933e-05
2.69894e-06
-0.000752256
0.000391392
0.000996715
6.3603e-05
0.00100954
0.00315401
0.00264736
0.00195987
0.00375836
0.00499058
0.00432396
0.00383569
0.00457146
0.00550042
0.00551124
0.00476603
0.0042639
0.00450089
9.81753e-05
6.69125e-05
-0.000610671
0.000430979
0.00099872
0.000136909
0.00108693
0.00316797
0.00270629
0.0019619
0.00368934
0.00500567
0.00432353
0.00373983
0.00449261
0.00544609
0.00540276
0.00462499
0.00413407
0.00435523
0.000124805
0.000135429
-0.000467254
0.0004704
0.00100733
0.000210684
0.00115845
0.0031843
0.00276699
0.00196699
0.0036119
0.00501269
0.00433522
0.00364186
0.00439301
0.00539482
0.00531494
0.00447894
0.00399656
0.00422943
0.000153069
0.000207464
-0.000320806
0.000509713
0.00102166
0.000286996
0.00122323
0.00320145
0.00283122
0.00197587
0.00352556
0.00500833
0.00435979
0.003548
0.00427109
0.00533794
0.00525128
0.00434052
0.00384396
0.00411298
0.000183394
0.000282081
-0.000170249
0.000549337
0.00104011
0.00036789
0.00128109
0.00321687
0.00290079
0.00199054
0.00343009
0.00498861
0.00439647
0.00346471
0.0041282
0.00526711
0.00520979
0.00422204
0.00367753
0.00399085
0.000216458
0.000358005
-1.49337e-05
0.000590233
0.00106051
0.000455209
0.00133279
0.00322747
0.00297602
0.00201322
0.00332591
0.0049493
0.00444312
0.00339875
0.00396838
0.00517549
0.00518546
0.00413265
0.00350576
0.00384982
0.000253035
0.00043382
0.000145206
0.000633017
0.00108044
0.0005504
0.00138046
0.00322998
0.00305462
0.00204757
0.00321583
0.00488642
0.00449547
0.00335662
0.00379752
0.00505703
0.00517116
0.00407865
0.00334078
0.00368362
0.000294127
0.000508349
0.000309498
0.000682377
0.00109787
0.000653351
0.00142702
0.00322144
0.00313596
0.00209731
0.00310373
0.00479757
0.00454701
0.00334333
0.00362441
0.00490746
0.00515708
0.00406356
0.00319634
0.00349368
0.000340612
0.00058058
0.000476748
0.000741278
0.00111183
0.000762908
0.00147566
0.00319929
0.00321446
0.0021641
0.00299487
0.00468384
0.00458984
0.00335882
0.00346066
0.00472736
0.00513067
0.0040861
0.00308729
0.00328888
0.000393413
0.000649712
0.000644827
0.000812583
0.00112206
0.000876676
0.00153029
0.00316324
0.00328208
0.00224773
0.00289694
0.00454944
0.00461643
0.00339852
0.00331611
0.00452242
0.00507929
0.00413736
0.00302663
0.00308611
0.000453648
0.00071544
0.000810519
0.000899837
0.00112819
0.000984677
0.00159607
0.00312052
0.00333538
0.00234627
0.00281647
0.00439914
0.00462183
0.00345672
0.00319659
0.0043011
0.00499459
0.00420253
0.00302106
0.0029075
0.000522033
0.000777931
0.000970424
0.00100403
0.00113212
0.00108451
0.00167561
0.0030788
0.00336778
0.00245173
0.00275683
0.00423951
0.00460418
0.00352675
0.0031058
0.00407243
0.00487355
0.00426552
0.00306704
0.00277321
0.000599178
0.000838255
0.00112072
0.00112523
0.00113898
0.00116983
0.00176618
0.00304562
0.00338111
0.00255374
0.00271801
0.00407961
0.00456419
0.00360191
0.00304597
0.00384601
0.0047169
0.00431177
0.00315272
0.00269685
0.000685436
0.000897999
0.00125813
0.00126306
0.0011555
0.00123527
0.00186145
0.00302727
0.00337785
0.00264578
0.00269881
0.00392628
0.00450375
0.0036759
0.00301773
0.00363279
0.00452887
0.00432952
0.0032623
0.00268185
0.00078066
0.00095922
0.00138036
0.00141393
0.00118911
0.00128034
0.00195123
0.00302681
0.00336974
0.00272713
0.0026932
0.00378078
0.00442599
0.00374397
0.0030195
0.00344307
0.00431756
0.00431012
0.00337918
0.00272136
0.000884526
0.00102454
0.00148584
0.00157172
0.00124677
0.00130771
0.00202475
0.0030432
0.00336895
0.00279915
0.00269559
0.00364363
0.004333
0.0038034
0.00304869
0.00328472
0.00409455
0.0042499
0.00348731
0.00280162
0.000996467
0.00109663
0.00157415
0.00172901
0.00133233
0.00132508
0.00207431
0.00307089
0.00338302
0.00286576
0.00270467
0.00351562
0.00422575
0.00384959
0.00310142
0.00316286
0.00387235
0.00415172
0.00357403
0.00290757
0.00111533
0.00117795
0.00164676
0.00187706
0.00144653
0.00134486
0.00209599
0.00309813
0.0034146
0.00293656
0.00272203
0.00339781
0.0041061
0.00387661
0.00317091
0.00308143
0.00366294
0.0040221
0.00363121
0.00302596
0.00123947
0.00126956
0.00170763
0.00200869
0.00158672
0.00138107
0.00209101
0.00311114
0.0034632
0.00301954
0.00274928
0.00329187
0.00397723
0.00388093
0.00324723
0.00304234
0.00347982
0.00387032
0.00365338
0.00314548
0.00136724
0.00137169
0.00176192
0.00212043
0.00174468
0.00144353
0.00206715
0.00309916
0.00352112
0.00311844
0.00279299
0.00320092
0.00384211
0.00386159
0.00332036
0.00303932
0.00333478
0.00371085
0.00363799
0.00325452
0.00149681
0.00148442
0.00181459
0.00221022
0.00190825
0.00153754
0.00204054
0.00305744
0.00356856
0.00323149
0.00286016
0.00313055
0.00370587
0.00381843
0.00338286
0.00306067
0.00323158
0.00356158
0.00359003
0.00334101
0.00162643
0.00160664
0.00187138
0.00227837
0.00206544
0.00166288
0.00202905
0.00298936
0.00358906
0.00335259
0.00295184
0.00308886
0.00357664
0.00375236
0.0034294
0.00309764
0.00316434
0.00343556
0.00352365
0.00339739
0.00175505
0.00173643
0.00193613
0.00232884
0.002208
0.00181303
0.0020444
0.00290856
0.00357527
0.00346548
0.00306503
0.00308151
0.00346448
0.00367001
0.00345377
0.00314292
0.00312587
0.00333504
0.00345442
0.00342511
0.00188184
0.00187111
0.0020116
0.00236789
0.00233123
0.00197582
0.00209206
0.00283266
0.00352906
0.00355259
0.00319408
0.00310974
0.00337961
0.00358318
0.00345347
0.00318776
0.00311268
0.00325848
0.00339242
0.00343409
0.00200632
0.00200667
0.00209925
0.00240325
0.00243313
0.00213852
0.00217098
0.00277629
0.00345544
0.00360362
0.00332363
0.00316979
0.00332834
0.00350253
0.00343422
0.00322276
0.00312031
0.00320586
0.00334049
0.00343582
0.00212876
0.00214063
0.00219802
0.00244134
0.00251488
0.0022922
0.00227416
0.00274765
0.00337361
0.00361975
0.00343677
0.00325546
0.00331436
0.00343879
0.00340701
0.00324398
0.00313859
0.00317691
0.00329842
0.00343592
0.00224966
0.00227121
0.00230465
0.00248679
0.00258112
0.002431
0.00239189
0.00274967
0.00330224
0.00360712
0.00352311
0.00335204
0.00333433
0.00340045
0.00338115
0.00325612
0.00315813
0.00316825
0.00326906
0.003435
0.00236912
0.00239747
0.00241549
0.00254192
0.00263805
0.0025519
0.00251452
0.00278049
0.0032513
0.0035772
0.00358193
0.00344492
0.00338088
0.00339128
0.00336499
0.00326656
0.00317707
0.00317355
0.00325687
0.00343499
0.00248712
0.0025191
0.00252713
0.00260665
0.00269151
0.00265533
0.00263448
0.00283432
0.00322471
0.00354517
0.00361855
0.0035273
0.00344374
0.00340878
0.00336505
0.00328058
0.00319866
0.00318703
0.00326158
0.003442
0.00260334
0.00263611
0.0026369
0.00267947
0.00274548
0.00274401
0.0027468
0.00290355
0.00322365
0.00352214
0.00363954
0.00359612
0.00351418
0.00344877
0.00338511
0.00330367
0.00322671
0.00320703
0.00327746
0.00346
0.00271701
0.00274856
0.00274329
0.00275785
0.00280238
0.0028218
0.00284905
0.00298059
0.00324437
0.0035146
0.00365547
0.00365303
0.00358618
0.00350648
0.00342568
0.00334099
0.00326551
0.00323777
0.00330206
0.00348843
0.00282715
0.00285651
0.00284549
0.00283892
0.00286301
0.00289234
0.00294086
0.00306085
0.00328343
0.00352388
0.0036756
0.00370457
0.00365701
0.00357676
0.00348477
0.00339441
0.00331873
0.00328374
0.00333886
0.0035269
0.00293285
0.0029594
0.002943
0.00292057
0.0029266
0.00295808
0.00302291
0.00314403
0.00333682
0.00354984
0.00370408
0.00375674
0.00372888
0.00365687
0.00356172
0.00346443
0.00338727
0.00334713
0.00339114
0.00357582
0.00303343
0.00305697
0.00303488
0.0030006
0.00299195
0.0030212
0.00309672
0.00322216
0.00339822
0.00359073
0.00374393
0.00381414
0.00380656
0.00374749
0.00365699
0.00355433
0.00347284
0.00342907
0.00346222
0.00363792
0.00312747
0.00314802
0.003121
0.00307764
0.00305705
0.00308223
0.00316729
0.00329595
0.00346284
0.0036433
0.00379593
0.00388065
0.00389479
0.00385245
0.0037718
0.00366889
0.00358053
0.00353163
0.00355509
0.00371858
0.00321391
0.00323156
0.00320028
0.00314997
0.00312067
0.00314076
0.00323032
0.00336515
0.00353016
0.00370501
0.00385858
0.00395851
0.00399704
0.00397642
0.0039115
0.00381594
0.00372176
0.00366267
0.0036737
0.00382094
0.0032925
0.00330849
0.00327079
0.00321452
0.00318059
0.00319687
0.00328695
0.00342663
0.00359554
0.00377286
0.00393065
0.00404741
0.00411523
0.00412311
0.0040829
0.00400624
0.00391659
0.00384681
0.0038378
0.00395602
0.00335959
0.00337488
0.00333539
0.00327343
0.00323342
0.00324676
0.00333751
0.00348121
0.00365557
0.00384205
0.00400981
0.00414489
0.00424763
0.00429342
0.0042883
0.00424269
0.00417613
0.00411739
0.00409845
0.00418411
0.0034134
0.00342999
0.00339125
0.00332487
0.00327976
0.00329014
0.00337945
0.00352286
0.00370357
0.00390697
0.00409716
0.00426075
0.00439727
0.00447884
0.00450625
0.00449381
0.0044623
0.00443976
0.00446224
0.00457774
0.00345799
0.00347474
0.0034305
0.00336099
0.0033151
0.00332839
0.00341508
0.00354893
0.00372065
0.00393467
0.00417791
0.0044376
0.00469385
0.00489523
0.00500623
0.00501325
0.00492554
0.00477839
0.00464628
0.00460976
0.00348778
0.00350503
0.00345613
0.00338847
0.00334869
0.00335685
0.00343539
0.0035574
0.00370408
0.00384454
0.00396855
0.00418339
0.0045698
0.0050174
0.00540494
0.00571377
0.00600346
0.00629785
0.00657066
0.00676457
0.00348984
0.00350875
0.00347895
0.0034286
0.00340981
0.00343384
0.0034964
0.00357573
0.00372042
0.00401802
0.00446543
0.00491094
0.00525427
0.00549318
0.00567981
0.00582842
0.00594701
0.00607791
0.0062098
0.00629537
0.00347585
0.00349612
0.00344765
0.00338551
0.00335232
0.00337556
0.00352453
0.00382548
0.00417979
0.00443222
0.00459475
0.00474419
0.00496691
0.00522369
0.00552709
0.00587389
0.00626062
0.00664431
0.00698315
0.00721023
0.00340983
0.00347091
0.00349748
0.00353068
0.00362956
0.00378958
0.00397458
0.0041452
0.00431147
0.00457429
0.00485821
0.00511695
0.00534893
0.00551483
0.00559631
0.00559226
0.00548922
0.00531027
0.00509415
0.00491893
0.00327561
0.00332224
0.00345892
0.00361886
0.00376327
0.00386276
0.00396667
0.00411089
0.0043098
0.00452959
0.00476682
0.00497027
0.00520683
0.00550003
0.00580561
0.00614757
0.00650881
0.00685735
0.00713333
0.00726029
0.00320858
0.00328111
0.00345419
0.0036667
0.00388303
0.0041306
0.00435803
0.00450262
0.00466246
0.00483202
0.00503955
0.00525134
0.00547008
0.00570446
0.00589631
0.00606425
0.0062263
0.0063747
0.00648053
0.00647472
0.0153956
0.0110567
0.00417333
-0.00116505
-0.00237539
-0.000996286
0.000525844
0.00143259
0.00200441
0.00254323
0.00302486
0.00340721
0.00379851
0.0042385
0.00462579
0.00491999
0.00525341
0.00571596
0.00618934
0.00655864
0.00685209
0.00713996
0.00748866
0.00791136
0.00831333
0.00863036
0.00892767
0.00927584
0.0096664
0.0100845
0.0105397
0.0110143
0.0114721
0.011908
0.0123387
0.0127791
0.013216
0.0136145
0.0139701
0.0143393
0.0147523
0.0151745
0.0155841
0.0160126
0.0164836
0.0169684
0.0174335
0.0179065
0.0184245
0.0189598
0.0194656
0.0199743
0.0205048
0.0210094
0.0215037
0.0220528
0.0226334
0.0232212
0.0238287
0.0244461
0.0250581
0.0256717
0.0262908
0.026932
0.0275957
0.0282623
0.0289409
0.029638
0.0303549
0.0310835
0.0318357
0.0325915
0.0333635
0.0341483
0.0349618
0.0357916
0.0366417
0.0375068
0.0383834
0.0392781
0.0401822
0.041115
0.0420557
0.0430277
0.0440053
0.0450046
0.0460114
0.0470405
0.0480909
0.0491619
0.0502475
0.0513563
0.0524697
0.0536202
0.0547564
0.0559271
0.0570686
0.0581902
0.0592248
0.0601091
0.0147642
0.010922
0.00426079
-0.00101993
-0.0022871
-0.000952512
0.000552978
0.00145027
0.00201661
0.00255284
0.00303306
0.00341415
0.00380449
0.00424396
0.00463074
0.00492416
0.00525678
0.00571897
0.00619225
0.00656133
0.00685447
0.007142
0.0074904
0.007913
0.00831498
0.00863191
0.00892903
0.00927708
0.00966757
0.0100856
0.0105408
0.0110153
0.0114732
0.011909
0.0123396
0.01278
0.0132169
0.0136154
0.013971
0.0143401
0.0147531
0.0151752
0.0155848
0.0160133
0.0164842
0.016969
0.0174341
0.017907
0.018425
0.0189603
0.019466
0.0199747
0.0205052
0.0210099
0.0215041
0.0220532
0.0226338
0.0232215
0.023829
0.0244464
0.0250584
0.025672
0.0262911
0.0269323
0.027596
0.0282625
0.0289411
0.0296382
0.0303551
0.0310837
0.0318359
0.0325917
0.0333637
0.0341485
0.034962
0.0357918
0.0366418
0.0375069
0.0383836
0.0392782
0.0401824
0.0411151
0.0420558
0.0430278
0.0440055
0.0450047
0.0460115
0.0470406
0.048091
0.049162
0.0502476
0.0513564
0.0524698
0.0536202
0.0547565
0.0559272
0.0570687
0.0581903
0.0592248
0.0601091
0.0141472
0.0107801
0.00443443
-0.000754923
-0.00213987
-0.000898902
0.000580983
0.00147248
0.00203393
0.00256581
0.00304296
0.0034219
0.00381084
0.00424953
0.00463584
0.00492864
0.00526053
0.00572224
0.0061952
0.00656395
0.00685679
0.00714402
0.00749212
0.00791461
0.00831654
0.0086333
0.00893023
0.00927817
0.00966859
0.0100865
0.0105417
0.0110163
0.0114741
0.0119098
0.0123404
0.0127807
0.0132177
0.0136162
0.0139717
0.0143407
0.0147537
0.0151759
0.0155854
0.0160138
0.0164848
0.0169696
0.0174346
0.0179075
0.0184254
0.0189608
0.0194665
0.0199751
0.0205056
0.0210102
0.0215044
0.0220535
0.0226341
0.0232218
0.0238293
0.0244467
0.0250587
0.0256722
0.0262913
0.0269325
0.0275962
0.0282627
0.0289413
0.0296384
0.0303553
0.0310838
0.031836
0.0325918
0.0333639
0.0341487
0.0349621
0.0357919
0.036642
0.0375071
0.0383837
0.0392784
0.0401825
0.0411152
0.0420559
0.0430279
0.0440056
0.0450048
0.0460116
0.0470407
0.0480911
0.0491621
0.0502476
0.0513564
0.0524699
0.0536203
0.0547566
0.0559272
0.0570687
0.0581904
0.0592249
0.0601092
0.0135683
0.0106433
0.00465774
-0.000419947
-0.00193888
-0.000823879
0.000621296
0.00150653
0.00206162
0.00258617
0.00305768
0.00343308
0.0038195
0.0042564
0.00464208
0.00493492
0.00526643
0.00572707
0.0061989
0.00656707
0.00685986
0.00714699
0.00749467
0.00791673
0.00831839
0.00863493
0.00893166
0.00927941
0.00966965
0.0100875
0.0105427
0.0110173
0.0114751
0.0119107
0.0123412
0.0127816
0.0132185
0.013617
0.0139724
0.0143414
0.0147543
0.0151765
0.015586
0.0160144
0.0164854
0.0169701
0.0174352
0.017908
0.0184259
0.0189613
0.0194669
0.0199755
0.020506
0.0210106
0.0215047
0.0220537
0.0226344
0.0232221
0.0238296
0.0244469
0.025059
0.0256725
0.0262915
0.0269327
0.0275964
0.0282629
0.0289415
0.0296386
0.0303555
0.031084
0.0318362
0.032592
0.033364
0.0341488
0.0349623
0.0357921
0.0366421
0.0375072
0.0383838
0.0392785
0.0401826
0.0411154
0.042056
0.043028
0.0440057
0.0450049
0.0460117
0.0470408
0.0480912
0.0491622
0.0502477
0.0513565
0.05247
0.0536204
0.0547567
0.0559273
0.0570688
0.0581905
0.059225
0.0601093
0.0130087
0.0104932
0.00488933
-6.41055e-05
-0.00171485
-0.000737869
0.000667796
0.00154918
0.00209913
0.00261478
0.0030787
0.00344947
0.00383213
0.00426559
0.00464999
0.0049437
0.00527548
0.00573432
0.00620377
0.00657093
0.00686413
0.00715167
0.00749884
0.0079199
0.00832091
0.00863725
0.00893377
0.0092811
0.00967094
0.0100886
0.0105438
0.0110184
0.0114761
0.0119118
0.0123422
0.0127825
0.0132194
0.0136178
0.0139732
0.0143421
0.014755
0.0151772
0.0155867
0.0160151
0.016486
0.0169708
0.0174358
0.0179085
0.0184264
0.0189618
0.0194674
0.019976
0.0205065
0.0210111
0.021505
0.0220541
0.0226348
0.0232224
0.0238299
0.0244473
0.0250593
0.0256728
0.0262918
0.0269329
0.0275966
0.0282632
0.0289417
0.0296388
0.0303557
0.0310842
0.0318364
0.0325922
0.0333642
0.034149
0.0349624
0.0357922
0.0366423
0.0375074
0.0383839
0.0392786
0.0401827
0.0411155
0.0420561
0.0430281
0.0440058
0.045005
0.0460119
0.0470409
0.0480913
0.0491623
0.0502478
0.0513566
0.0524701
0.0536205
0.0547568
0.0559274
0.057069
0.0581906
0.0592253
0.0601095
0.012461
0.0103193
0.00511216
0.000296413
-0.00147839
-0.000646551
0.000714654
0.00159433
0.00214153
0.00264855
0.00310453
0.00347048
0.0038487
0.00427731
0.00465972
0.00495497
0.00528768
0.00574405
0.00620988
0.00657555
0.00686966
0.00715831
0.00750496
0.00792439
0.00832435
0.00864064
0.00893707
0.00928367
0.0096727
0.0100901
0.0105452
0.0110196
0.0114771
0.0119128
0.0123433
0.0127836
0.0132204
0.0136188
0.0139742
0.014343
0.0147557
0.0151778
0.0155874
0.0160159
0.0164867
0.0169714
0.0174365
0.0179092
0.0184271
0.0189624
0.019468
0.0199766
0.0205071
0.0210116
0.0215054
0.0220545
0.0226352
0.0232228
0.0238303
0.0244477
0.0250596
0.0256731
0.0262921
0.0269332
0.0275969
0.0282634
0.0289419
0.029639
0.0303559
0.0310844
0.0318366
0.0325924
0.0333644
0.0341491
0.0349626
0.0357924
0.0366424
0.0375075
0.0383841
0.0392788
0.0401829
0.0411156
0.0420563
0.0430283
0.0440059
0.0450051
0.046012
0.047041
0.0480914
0.0491624
0.0502479
0.0513567
0.0524702
0.0536206
0.0547569
0.0559275
0.0570691
0.0581908
0.0592257
0.0601098
0.0119277
0.0101233
0.00532242
0.000658166
-0.00123064
-0.000549804
0.000761085
0.00164001
0.00218648
0.00268539
0.00313339
0.0034946
0.00386813
0.00429116
0.00467108
0.00496817
0.00530213
0.00575556
0.00621693
0.00658082
0.00687632
0.00716671
0.00751286
0.00793007
0.00832867
0.00864526
0.00894188
0.00928747
0.00967526
0.010092
0.0105469
0.0110209
0.011478
0.0119136
0.0123444
0.0127847
0.0132214
0.0136198
0.0139754
0.0143441
0.0147565
0.0151785
0.0155883
0.0160168
0.0164875
0.0169721
0.0174372
0.0179101
0.0184278
0.0189631
0.0194688
0.0199774
0.0205078
0.0210121
0.0215059
0.022055
0.0226357
0.0232233
0.0238308
0.0244481
0.0250601
0.0256735
0.0262925
0.0269335
0.0275973
0.0282637
0.0289422
0.0296393
0.0303561
0.0310846
0.0318368
0.0325926
0.0333646
0.0341493
0.0349628
0.0357926
0.0366426
0.0375077
0.0383843
0.0392789
0.040183
0.0411158
0.0420564
0.0430284
0.0440061
0.0450053
0.0460121
0.0470411
0.0480915
0.0491625
0.050248
0.0513568
0.0524703
0.0536207
0.054757
0.0559276
0.0570693
0.0581911
0.0592262
0.0601102
0.0114163
0.00990949
0.00551607
0.00101811
-0.000970932
-0.000445104
0.000808267
0.00168613
0.00223359
0.00272477
0.00316448
0.00352076
0.00388953
0.00430669
0.00468381
0.00498271
0.00531799
0.00576817
0.00622462
0.00658662
0.00688386
0.00717642
0.00752205
0.00793657
0.00833362
0.0086509
0.00894811
0.00929265
0.00967886
0.0100948
0.0105492
0.0110225
0.0114789
0.0119144
0.0123454
0.0127857
0.0132221
0.0136208
0.013977
0.0143457
0.0147576
0.0151794
0.0155893
0.016018
0.0164883
0.0169728
0.0174381
0.0179111
0.0184287
0.0189639
0.0194696
0.0199783
0.0205086
0.0210128
0.0215065
0.0220555
0.0226362
0.0232238
0.0238313
0.0244487
0.0250606
0.025674
0.0262929
0.026934
0.0275977
0.0282641
0.0289426
0.0296396
0.0303564
0.0310849
0.0318371
0.0325928
0.0333648
0.0341495
0.034963
0.0357928
0.0366428
0.0375079
0.0383844
0.0392791
0.0401832
0.0411159
0.0420566
0.0430286
0.0440062
0.0450054
0.0460122
0.0470413
0.0480916
0.0491626
0.0502482
0.051357
0.0524704
0.0536208
0.0547571
0.0559278
0.0570696
0.0581914
0.0592268
0.0601107
0.0109325
0.00967927
0.00568786
0.00137414
-0.000697341
-0.000329311
0.000857384
0.00173228
0.00228236
0.00276642
0.00319745
0.00354853
0.0039125
0.00432363
0.00469765
0.00499822
0.00533479
0.00578159
0.00623286
0.00659288
0.00689204
0.00718702
0.00753208
0.00794359
0.00833893
0.00865717
0.00895538
0.00929898
0.00968351
0.0100984
0.0105522
0.0110245
0.0114799
0.011915
0.0123461
0.0127862
0.0132225
0.0136216
0.0139787
0.0143477
0.014759
0.0151804
0.0155907
0.0160195
0.0164894
0.0169735
0.017439
0.0179122
0.0184295
0.0189646
0.0194705
0.0199794
0.0205096
0.0210136
0.0215073
0.0220562
0.0226369
0.0232244
0.0238319
0.0244493
0.0250613
0.0256746
0.0262935
0.0269345
0.0275982
0.0282646
0.028943
0.02964
0.0303568
0.0310852
0.0318374
0.0325931
0.0333651
0.0341498
0.0349632
0.035793
0.036643
0.0375081
0.0383846
0.0392793
0.0401834
0.0411161
0.0420567
0.0430287
0.0440064
0.0450056
0.0460124
0.0470414
0.0480918
0.0491628
0.0502483
0.0513571
0.0524705
0.053621
0.0547573
0.0559279
0.0570699
0.0581919
0.0592277
0.0601113
0.0104778
0.00943445
0.00583582
0.00172585
-0.000408732
-0.000200695
0.000908596
0.00177741
0.00233197
0.00281013
0.00323235
0.00357795
0.00393704
0.00434192
0.00471248
0.00501456
0.00535246
0.0057958
0.0062417
0.00659961
0.00690073
0.00719824
0.00754272
0.007951
0.00834446
0.00866381
0.00896329
0.00930614
0.00968903
0.0101028
0.0105558
0.0110268
0.0114811
0.0119158
0.0123468
0.0127864
0.0132222
0.013622
0.0139804
0.0143499
0.0147607
0.0151818
0.0155925
0.0160215
0.0164907
0.0169743
0.01744
0.0179134
0.0184304
0.0189651
0.0194715
0.0199806
0.0205106
0.0210146
0.0215083
0.0220572
0.0226376
0.0232251
0.0238326
0.02445
0.025062
0.0256753
0.0262941
0.0269351
0.0275988
0.0282652
0.0289436
0.0296405
0.0303573
0.0310857
0.0318378
0.0325935
0.0333654
0.0341501
0.0349635
0.0357933
0.0366432
0.0375083
0.0383849
0.0392795
0.0401836
0.0411163
0.0420569
0.0430289
0.0440066
0.0450058
0.0460126
0.0470416
0.0480919
0.0491629
0.0502485
0.0513573
0.0524707
0.0536211
0.0547575
0.0559281
0.0570702
0.0581926
0.0592288
0.0601121
0.0100521
0.00918045
0.00596077
0.00207105
-0.000107229
-5.87929e-05
0.000962311
0.00182093
0.00238186
0.00285594
0.0032695
0.00360927
0.00396321
0.00436153
0.0047283
0.0050318
0.00537109
0.0058109
0.00625117
0.00660678
0.00690986
0.00721
0.0075539
0.00795878
0.00835022
0.0086707
0.00897162
0.00931388
0.00969521
0.0101079
0.0105599
0.0110295
0.0114826
0.0119168
0.0123475
0.0127864
0.0132215
0.0136219
0.013982
0.0143524
0.0147626
0.0151833
0.0155946
0.0160239
0.0164924
0.0169753
0.0174413
0.0179149
0.0184313
0.0189656
0.0194722
0.0199816
0.0205116
0.0210156
0.0215095
0.0220584
0.0226386
0.0232259
0.0238332
0.0244507
0.0250628
0.0256761
0.0262949
0.0269359
0.0275995
0.0282659
0.0289443
0.0296412
0.0303578
0.0310862
0.0318384
0.032594
0.0333658
0.0341505
0.0349638
0.0357936
0.0366436
0.0375086
0.0383851
0.0392798
0.0401838
0.0411165
0.0420572
0.0430292
0.0440068
0.045006
0.0460128
0.0470418
0.0480921
0.0491631
0.0502487
0.0513575
0.0524709
0.0536213
0.0547578
0.0559283
0.0570707
0.0581934
0.0592301
0.0601131
0.00965615
0.00892397
0.00606241
0.00240444
0.000203733
9.77622e-05
0.00102048
0.00186305
0.00243154
0.00290381