/*--------------------------------*- C++ -*----------------------------------*\
| =========                 |                                                 |
| \\      /  F ield         | OpenFOAM: The Open Source CFD Toolbox           |
|  \\    /   O peration     | Version:  v1812                                 |
|   \\  /    A nd           | Web:      www.OpenFOAM.com                      |
|    \\/     M anipulation  |                                                 |
\*---------------------------------------------------------------------------*/
FoamFile
{
    version     2.0;
    format      ascii;
    class       surfaceScalarField;
    location    "4";
    object      phi;
}
// * * * * * * * * * * * * * * * * * * * * * * * * * * * * * * * * * * * * * //

dimensions      [0 3 -1 0 0 0 0];
oriented        oriented;


internalField   nonuniform List<scalar> 
19000
(
1.1528e-06
-1.67587e-07
1.21007e-06
-5.69822e-07
1.28802e-06
-3.37514e-07
1.16375e-06
1.23613e-06
1.06264e-06
3.70371e-07
1.1355e-06
-5.52982e-07
1.19903e-06
-1.10051e-06
1.19671e-06
-4.00441e-08
1.2016e-06
2.36719e-08
1.17475e-06
5.62222e-07
1.1734e-06
2.72832e-07
1.15203e-06
2.04679e-07
1.14325e-06
8.09815e-09
1.15524e-06
-2.97445e-08
1.15702e-06
-1.51475e-07
1.15499e-06
-4.88824e-08
1.16661e-06
3.71104e-08
1.15756e-06
7.58457e-08
1.15765e-06
1.23214e-07
1.13324e-07
1.13262e-06
1.20757e-06
-1.50891e-07
1.26378e-06
-6.26036e-07
1.34796e-06
-4.2169e-07
1.24191e-06
1.34218e-06
1.12819e-06
4.84088e-07
1.19103e-06
-6.15818e-07
1.25977e-06
-1.16925e-06
1.26068e-06
-4.09552e-08
1.26402e-06
2.03301e-08
1.24406e-06
5.82178e-07
1.23508e-06
2.81814e-07
1.22387e-06
2.15887e-07
1.20534e-06
2.66376e-08
1.22388e-06
-4.8289e-08
1.21584e-06
-1.43435e-07
1.22398e-06
-5.70233e-08
1.21806e-06
4.30352e-08
1.23073e-06
6.31691e-08
1.2028e-06
1.51145e-07
9.84502e-08
1.21767e-06
1.26334e-06
-1.31447e-07
1.31664e-06
-6.79338e-07
1.40685e-06
-5.11894e-07
1.33802e-06
1.411e-06
1.20901e-06
6.13099e-07
1.25247e-06
-6.59282e-07
1.3214e-06
-1.23818e-06
1.33301e-06
-5.25594e-08
1.32832e-06
2.50233e-08
1.32307e-06
5.87427e-07
1.30254e-06
3.02339e-07
1.30257e-06
2.15857e-07
1.27365e-06
5.55607e-08
1.29233e-06
-6.69682e-08
1.27902e-06
-1.30129e-07
1.28808e-06
-6.60813e-08
1.28101e-06
5.01073e-08
1.28958e-06
5.45967e-08
1.27442e-06
1.66308e-07
1.0593e-07
1.26694e-06
1.32012e-06
-1.07465e-07
1.36825e-06
-7.27471e-07
1.46412e-06
-6.07767e-07
1.44007e-06
1.43505e-06
1.30114e-06
7.52029e-07
1.31983e-06
-6.77966e-07
1.38034e-06
-1.29869e-06
1.40501e-06
-7.72321e-08
1.39427e-06
3.57633e-08
1.39926e-06
5.82445e-07
1.3737e-06
3.27899e-07
1.37513e-06
2.14427e-07
1.34595e-06
8.47378e-08
1.35419e-06
-7.52107e-08
1.34414e-06
-1.20078e-07
1.34812e-06
-7.00642e-08
1.34669e-06
5.15379e-08
1.35e-06
5.1291e-08
1.34408e-06
1.72225e-07
1.19045e-07
1.33097e-06
1.37898e-06
-7.80888e-08
1.41923e-06
-7.67724e-07
1.51871e-06
-7.07241e-07
1.53691e-06
1.41685e-06
1.40045e-06
8.88486e-07
1.39193e-06
-6.69444e-07
1.43597e-06
-1.34274e-06
1.47107e-06
-1.12329e-07
1.46135e-06
4.54864e-08
1.46981e-06
5.73987e-07
1.44697e-06
3.50733e-07
1.44362e-06
2.17783e-07
1.41924e-06
1.09112e-07
1.41616e-06
-7.21239e-08
1.40829e-06
-1.12215e-07
1.40982e-06
-7.1591e-08
1.41083e-06
5.05315e-08
1.41314e-06
4.89742e-08
1.41146e-06
1.73907e-07
1.31943e-07
1.39856e-06
1.44213e-06
-4.45389e-08
1.47156e-06
-7.97157e-07
1.57051e-06
-8.06193e-07
1.62117e-06
1.36619e-06
1.50203e-06
1.00763e-06
1.46756e-06
-6.34982e-07
1.49055e-06
-1.36572e-06
1.53137e-06
-1.5315e-07
1.52973e-06
4.71224e-08
1.53891e-06
5.64813e-07
1.52186e-06
3.6778e-07
1.51371e-06
2.25929e-07
1.49299e-06
1.29833e-07
1.48251e-06
-6.16454e-08
1.47321e-06
-1.02912e-07
1.47365e-06
-7.20288e-08
1.47542e-06
4.8766e-08
1.47729e-06
4.71035e-08
1.47893e-06
1.72266e-07
1.43525e-07
1.46735e-06
1.51199e-06
-1.03153e-08
1.5281e-06
-8.13267e-07
1.62084e-06
-8.9893e-07
1.692e-06
1.29503e-06
1.60113e-06
1.0985e-06
1.5464e-06
-5.80251e-07
1.54779e-06
-1.36711e-06
1.58968e-06
-1.95034e-07
1.59903e-06
3.77683e-08
1.61022e-06
5.5362e-07
1.59819e-06
3.79813e-07
1.58772e-06
2.36402e-07
1.56842e-06
1.49133e-07
1.55394e-06
-4.71675e-08
1.54178e-06
-9.07539e-08
1.54032e-06
-7.05708e-08
1.54231e-06
4.67743e-08
1.54334e-06
4.60828e-08
1.54745e-06
1.68151e-07
1.53185e-07
1.53779e-06
1.58987e-06
1.99407e-08
1.59159e-06
-8.14987e-07
1.67192e-06
-9.79254e-07
1.75338e-06
1.21357e-06
1.69451e-06
1.15737e-06
1.62853e-06
-5.14267e-07
1.61096e-06
-1.34955e-06
1.64971e-06
-2.3378e-07
1.66841e-06
1.90715e-08
1.68383e-06
5.38192e-07
1.67545e-06
3.882e-07
1.66493e-06
2.46914e-07
1.64631e-06
1.67754e-07
1.62986e-06
-3.07138e-08
1.61521e-06
-7.61035e-08
1.61104e-06
-6.64015e-08
1.61265e-06
4.51635e-08
1.61249e-06
4.62449e-08
1.6181e-06
1.62541e-07
1.60834e-07
1.61045e-06
1.67508e-06
4.24395e-08
1.66359e-06
-8.035e-07
1.72626e-06
-1.04193e-06
1.81071e-06
1.12912e-06
1.78114e-06
1.18694e-06
1.71357e-06
-4.46702e-07
1.68177e-06
-1.31774e-06
1.71394e-06
-2.65952e-07
1.73762e-06
-4.61024e-09
1.75801e-06
5.17808e-07
1.75273e-06
3.93475e-07
1.7439e-06
2.55745e-07
1.72657e-06
1.8509e-07
1.70959e-06
-1.37428e-08
1.69349e-06
-5.99997e-08
1.68647e-06
-5.93777e-08
1.6872e-06
4.44338e-08
1.68551e-06
4.79349e-08
1.69171e-06
1.56337e-07
1.66724e-07
1.68582e-06
1.76539e-06
5.57664e-08
1.74413e-06
-7.82231e-07
1.78633e-06
-1.08413e-06
1.86856e-06
1.04688e-06
1.86225e-06
1.19326e-06
1.80075e-06
-3.85204e-07
1.76032e-06
-1.27731e-06
1.78399e-06
-2.89627e-07
1.80771e-06
-2.83212e-08
1.83182e-06
4.93697e-07
1.8296e-06
3.95695e-07
1.82371e-06
2.61628e-07
1.80878e-06
2.00018e-07
1.7926e-06
2.44658e-09
1.7763e-06
-4.36998e-08
1.76677e-06
-4.98523e-08
1.76642e-06
4.47863e-08
1.76297e-06
5.13847e-08
1.76892e-06
1.50385e-07
1.71178e-07
1.76447e-06
1.85855e-06
6.09601e-08
1.83215e-06
-7.55827e-07
1.85416e-06
-1.10613e-06
1.93029e-06
9.70748e-07
1.94063e-06
1.18291e-06
1.88953e-06
-3.34096e-07
1.84566e-06
-1.23344e-06
1.86088e-06
-3.04851e-07
1.88073e-06
-4.81665e-08
1.90625e-06
4.68176e-07
1.90678e-06
3.95159e-07
1.90448e-06
2.6393e-07
1.89289e-06
2.11611e-07
1.87852e-06
1.68198e-08
1.86329e-06
-2.84702e-08
1.85195e-06
-3.85162e-08
1.85063e-06
4.61094e-08
1.8455e-06
5.65159e-08
1.85049e-06
1.45396e-07
1.74473e-07
1.84719e-06
1.95339e-06
6.04131e-08
1.92622e-06
-7.28656e-07
1.9309e-06
-1.11082e-06
1.99831e-06
9.03343e-07
2.01963e-06
1.16159e-06
1.98009e-06
-2.94553e-07
1.9365e-06
-1.18986e-06
1.94487e-06
-3.13219e-07
1.95889e-06
-6.21918e-08
1.98361e-06
4.43459e-07
1.98613e-06
3.92635e-07
1.98724e-06
2.6282e-07
1.97934e-06
2.19518e-07
1.96732e-06
2.88399e-08
1.95419e-06
-1.53416e-08
1.94195e-06
-2.62816e-08
1.94004e-06
4.80245e-08
1.93369e-06
6.28667e-08
1.93728e-06
1.41805e-07
1.76797e-07
1.93496e-06
2.04999e-06
5.66093e-08
2.02503e-06
-7.03696e-07
2.01656e-06
-1.10234e-06
2.0742e-06
8.45695e-07
2.10217e-06
1.13362e-06
2.07323e-06
-2.65609e-07
2.03184e-06
-1.14847e-06
2.03552e-06
-3.16893e-07
2.04365e-06
-7.03297e-08
2.06626e-06
4.20853e-07
2.06982e-06
3.89078e-07
2.07353e-06
2.59104e-07
2.06907e-06
2.23977e-07
2.05936e-06
3.85536e-08
2.04889e-06
-4.8724e-09
2.03668e-06
-1.40754e-08
2.03466e-06
5.00469e-08
2.02784e-06
6.96883e-08
2.02994e-06
1.39702e-07
1.78238e-07
2.0285e-06
2.1492e-06
5.14068e-08
2.12776e-06
-6.82249e-07
2.11023e-06
-1.08482e-06
2.15867e-06
7.97255e-07
2.19033e-06
1.10196e-06
2.16998e-06
-2.4526e-07
2.1312e-06
-1.10969e-06
2.13204e-06
-3.1773e-07
2.1354e-06
-7.36914e-08
2.15566e-06
4.00591e-07
2.15955e-06
3.85196e-07
2.16484e-06
2.53812e-07
2.16324e-06
2.2557e-07
2.15534e-06
4.64553e-08
2.14753e-06
2.93619e-09
2.13605e-06
-2.59655e-09
2.13427e-06
5.18297e-08
2.12778e-06
7.61806e-08
2.12859e-06
1.38889e-07
1.78837e-07
2.12799e-06
2.25199e-06
4.59086e-08
2.23406e-06
-6.64326e-07
2.21078e-06
-1.06153e-06
2.25169e-06
7.5634e-07
2.28525e-06
1.0684e-06
2.27127e-06
-2.31277e-07
2.2346e-06
-1.07303e-06
2.23376e-06
-3.16891e-07
2.23382e-06
-7.37471e-08
2.25224e-06
3.82166e-07
2.25621e-06
3.81234e-07
2.2622e-06
2.47815e-07
2.26284e-06
2.24938e-07
2.25608e-06
5.32128e-08
2.25048e-06
8.53166e-09
2.24008e-06
7.81002e-09
2.23857e-06
5.33422e-08
2.23302e-06
8.17298e-08
2.23288e-06
1.39027e-07
1.78683e-07
2.23303e-06
2.35915e-06
4.06379e-08
2.34405e-06
-6.49226e-07
2.31729e-06
-1.03478e-06
2.35286e-06
7.20774e-07
2.38738e-06
1.03388e-06
2.37774e-06
-2.21639e-07
2.34238e-06
-1.03766e-06
2.34037e-06
-3.14889e-07
2.33841e-06
-7.17875e-08
2.35577e-06
3.6481e-07
2.35997e-06
3.77032e-07
2.36612e-06
2.41664e-07
2.36846e-06
2.22606e-07
2.36225e-06
5.94165e-08
2.35819e-06
1.25916e-08
2.3489e-06
1.7105e-08
2.34738e-06
5.48595e-08
2.34307e-06
8.60355e-08
2.34231e-06
1.39793e-07
1.77962e-07
2.34303e-06
2.47127e-06
3.57636e-08
2.45808e-06
-6.36035e-07
2.42932e-06
-1.00602e-06
2.46166e-06
6.88436e-07
2.49671e-06
9.98826e-07
2.48978e-06
-2.14707e-07
2.45497e-06
-1.00285e-06
2.45193e-06
-3.11854e-07
2.44887e-06
-6.87293e-08
2.46583e-06
3.47851e-07
2.47061e-06
3.72256e-07
2.47665e-06
2.35622e-07
2.48031e-06
2.1895e-07
2.47428e-06
6.54444e-08
2.47106e-06
1.58141e-08
2.46276e-06
2.54061e-08
2.46084e-06
5.67709e-08
2.45774e-06
8.91431e-08
2.45662e-06
1.40911e-07
1.76968e-07
2.45761e-06
2.58878e-06
3.12741e-08
2.57666e-06
-6.23916e-07
2.54679e-06
-9.7615e-07
2.57761e-06
6.5762e-07
2.61303e-06
9.63401e-07
2.60758e-06
-2.09256e-07
2.57283e-06
-9.68097e-07
2.56875e-06
-3.07774e-07
2.56516e-06
-6.51373e-08
2.58213e-06
3.30875e-07
2.58778e-06
3.66612e-07
2.59363e-06
2.2977e-07
2.59834e-06
2.14237e-07
2.59234e-06
7.14457e-08
2.58938e-06
1.87757e-08
2.58192e-06
3.28658e-08
2.57931e-06
5.93832e-08
2.5771e-06
9.13544e-08
2.57588e-06
1.42125e-07
1.76015e-07
2.57683e-06
2.71202e-06
2.70838e-08
2.70034e-06
-6.12238e-07
2.66986e-06
-9.45666e-07
2.7003e-06
6.27179e-07
2.73608e-06
9.27621e-07
2.73127e-06
-2.04451e-07
2.69636e-06
-9.33184e-07
2.69122e-06
-3.02635e-07
2.68741e-06
-6.13241e-08
2.70457e-06
3.13716e-07
2.71122e-06
3.59959e-07
2.71689e-06
2.24098e-07
2.72244e-06
2.0869e-07
2.71649e-06
7.73984e-08
2.71339e-06
2.18693e-08
2.70664e-06
3.96155e-08
2.7032e-06
6.28296e-08
2.70148e-06
9.30717e-08
2.70042e-06
1.43184e-07
1.75353e-07
2.70108e-06
2.84126e-06
2.30923e-08
2.82961e-06
-6.00584e-07
2.7988e-06
-9.14856e-07
2.82947e-06
5.96511e-07
2.86564e-06
8.91447e-07
2.86096e-06
-1.99775e-07
2.82589e-06
-8.98114e-07
2.81974e-06
-2.96476e-07
2.81586e-06
-5.74447e-08
2.8332e-06
2.96373e-07
2.84084e-06
3.52322e-07
2.84636e-06
2.1857e-07
2.85254e-06
2.02518e-07
2.84674e-06
8.31897e-08
2.8433e-06
2.53136e-08
2.83716e-06
4.57607e-08
2.83292e-06
6.707e-08
2.83133e-06
9.46587e-08
2.83064e-06
1.43875e-07
1.75093e-07
2.8309e-06
2.97678e-06
1.92108e-08
2.9649e-06
-5.88706e-07
2.93394e-06
-8.83899e-07
2.96502e-06
5.65436e-07
3.00165e-06
8.54814e-07
2.99682e-06
-1.94945e-07
2.96173e-06
-8.63024e-07
2.95464e-06
-2.89389e-07
2.95076e-06
-5.35606e-08
2.96822e-06
2.78908e-07
2.97671e-06
3.43837e-07
2.98212e-06
2.13156e-07
2.98871e-06
1.95924e-07
2.9832e-06
8.86994e-08
2.97933e-06
2.91878e-08
2.9737e-06
5.1394e-08
2.96883e-06
7.19364e-08
2.96711e-06
9.63804e-08
2.96692e-06
1.4406e-07
1.75187e-07
2.96683e-06
3.11885e-06
1.5371e-08
3.1066e-06
-5.76459e-07
3.07565e-06
-8.52947e-07
3.10704e-06
5.34047e-07
3.14418e-06
8.17667e-07
3.13906e-06
-1.89822e-07
3.10414e-06
-8.28105e-07
3.09626e-06
-2.81506e-07
3.09237e-06
-4.96762e-08
3.10989e-06
2.6139e-07
3.11905e-06
3.34681e-07
3.12434e-06
2.07868e-07
3.13118e-06
1.89082e-07
3.12605e-06
9.38318e-08
3.12173e-06
3.35036e-08
3.11654e-06
5.658e-08
3.11128e-06
7.72055e-08
3.10926e-06
9.83924e-08
3.10962e-06
1.43705e-07
1.75447e-07
3.10936e-06
3.26776e-06
1.15235e-08
3.25505e-06
-5.63749e-07
3.22427e-06
-8.22174e-07
3.25575e-06
5.02574e-07
3.29344e-06
7.7997e-07
3.28797e-06
-1.84348e-07
3.2534e-06
-7.93538e-07
3.24489e-06
-2.72993e-07
3.24097e-06
-4.57553e-08
3.25849e-06
2.43867e-07
3.26816e-06
3.25014e-07
3.27326e-06
2.02763e-07
3.28023e-06
1.82113e-07
3.27553e-06
9.85329e-08
3.27078e-06
3.82521e-08
3.26601e-06
6.135e-08
3.26056e-06
8.26573e-08
3.25819e-06
1.00766e-07
3.25903e-06
1.42866e-07
1.75595e-07
3.25888e-06
3.42382e-06
7.63373e-09
3.41056e-06
-5.5049e-07
3.38017e-06
-7.91785e-07
3.41147e-06
4.71279e-07
3.44972e-06
7.41718e-07
3.44388e-06
-1.78512e-07
3.4098e-06
-7.59459e-07
3.40085e-06
-2.64043e-07
3.39683e-06
-4.17361e-08
3.41432e-06
2.26382e-07
3.4244e-06
3.14938e-07
3.42921e-06
1.97951e-07
3.43623e-06
1.75087e-07
3.43198e-06
1.02784e-07
3.42682e-06
4.34185e-08
3.42246e-06
6.57088e-08
3.417e-06
8.81171e-08
3.41426e-06
1.03501e-07
3.41546e-06
1.41666e-07
1.75335e-07
3.41572e-06
3.58737e-06
3.67626e-09
3.57347e-06
-5.36588e-07
3.54369e-06
-7.62007e-07
3.57456e-06
4.40407e-07
3.61335e-06
7.02931e-07
3.60718e-06
-1.7234e-07
3.57365e-06
-7.25933e-07
3.56446e-06
-2.54853e-07
3.56027e-06
-3.75476e-08
3.57767e-06
2.08983e-07
3.58812e-06
3.04485e-07
3.5925e-06
1.93572e-07
3.59955e-06
1.68038e-07
3.59574e-06
1.06594e-07
3.5902e-06
4.8965e-08
3.58621e-06
6.96938e-08
3.58092e-06
9.34045e-08
3.57784e-06
1.0659e-07
3.57923e-06
1.40268e-07
1.74402e-07
3.58017e-06
3.75875e-06
-3.6812e-10
3.7441e-06
-5.2194e-07
3.71517e-06
-7.33071e-07
3.74542e-06
4.10148e-07
3.78469e-06
6.63667e-07
3.77825e-06
-1.659e-07
3.74527e-06
-6.92953e-07
3.73604e-06
-2.45629e-07
3.73162e-06
-3.31235e-08
3.74886e-06
1.91744e-07
3.75972e-06
2.93624e-07
3.76353e-06
1.89759e-07
3.77056e-06
1.61009e-07
3.7672e-06
1.09951e-07
3.76131e-06
5.48614e-08
3.75763e-06
7.33732e-08
3.7527e-06
9.83332e-08
3.7493e-06
1.09993e-07
3.75066e-06
1.389e-07
1.72621e-07
3.75245e-06
3.93833e-06
-4.5136e-09
3.92284e-06
-5.06446e-07
3.89495e-06
-7.05177e-07
3.92447e-06
3.80628e-07
3.96411e-06
6.24026e-07
3.95752e-06
-1.59313e-07
3.92502e-06
-6.60457e-07
3.91595e-06
-2.36551e-07
3.91125e-06
-2.84324e-08
3.92821e-06
1.74791e-07
3.93955e-06
2.82283e-07
3.9427e-06
1.86606e-07
3.94963e-06
1.54079e-07
3.94677e-06
1.12808e-07
3.94053e-06
6.11049e-08
3.93708e-06
7.6827e-08
3.93267e-06
1.02736e-07
3.92906e-06
1.13606e-07
3.93013e-06
1.37829e-07
1.69977e-07
3.93278e-06
4.1265e-06
-8.768e-09
4.1101e-06
-4.9004e-07
4.08339e-06
-6.78464e-07
4.11211e-06
3.51906e-07
4.15197e-06
5.84169e-07
4.14541e-06
-1.52754e-07
4.1133e-06
-6.28353e-07
4.10452e-06
-2.27773e-07
4.09958e-06
-2.34879e-08
4.11608e-06
1.58295e-07
4.12798e-06
2.70379e-07
4.13045e-06
1.84139e-07
4.13713e-06
1.47394e-07
4.13487e-06
1.15074e-07
4.12827e-06
6.77003e-08
4.12495e-06
8.01537e-08
4.12118e-06
1.06506e-07
4.11754e-06
1.17244e-07
4.11812e-06
1.37249e-07
1.66698e-07
4.1214e-06
4.32366e-06
-1.313e-08
4.30632e-06
-4.72699e-07
4.28085e-06
-6.52989e-07
4.30879e-06
3.23961e-07
4.34864e-06
5.44323e-07
4.34234e-06
-1.46458e-07
4.31052e-06
-5.96531e-07
4.30215e-06
-2.19401e-07
4.29703e-06
-1.83681e-08
4.31286e-06
1.42463e-07
4.32539e-06
2.57852e-07
4.32723e-06
1.82302e-07
4.33346e-06
1.4116e-07
4.33192e-06
1.16618e-07
4.32498e-06
7.46403e-08
4.32167e-06
8.34554e-08
4.31856e-06
1.09617e-07
4.31509e-06
1.20717e-07
4.31519e-06
1.37144e-07
1.63213e-07
4.31868e-06
4.53023e-06
-1.75857e-08
4.51199e-06
-4.54461e-07
4.48772e-06
-6.28716e-07
4.51498e-06
2.96694e-07
4.55452e-06
5.04788e-07
4.54876e-06
-1.40699e-07
4.51711e-06
-5.64884e-07
4.50919e-06
-2.1148e-07
4.50406e-06
-1.32336e-08
4.519e-06
1.2752e-07
4.53216e-06
2.44697e-07
4.5335e-06
1.80956e-07
4.53905e-06
1.35611e-07
4.53832e-06
1.17351e-07
4.53117e-06
8.17853e-08
4.52772e-06
8.69039e-08
4.52523e-06
1.1211e-07
4.5221e-06
1.23846e-07
4.52185e-06
1.37395e-07
1.59896e-07
4.52517e-06
4.74663e-06
-2.21053e-08
4.7276e-06
-4.3543e-07
4.70439e-06
-6.055e-07
4.73117e-06
2.69915e-07
4.77004e-06
4.65915e-07
4.7651e-06
-1.35763e-07
4.73357e-06
-5.33349e-07
4.72605e-06
-2.03957e-07
4.72112e-06
-8.30299e-09
4.73497e-06
1.13669e-07
4.7487e-06
2.30965e-07
4.74973e-06
1.79927e-07
4.75439e-06
1.30944e-07
4.75449e-06
1.1725e-07
4.74737e-06
8.89111e-08
4.74359e-06
9.06837e-08
4.74166e-06
1.14037e-07
4.73896e-06
1.26544e-07
4.73854e-06
1.37821e-07
1.56893e-07
4.74154e-06
4.97333e-06
-2.66405e-08
4.95368e-06
-4.15778e-07
4.93127e-06
-5.83091e-07
4.95785e-06
2.43338e-07
4.99566e-06
4.28099e-07
4.99183e-06
-1.31928e-07
4.96043e-06
-5.01951e-07
4.95313e-06
-1.96651e-07
4.94865e-06
-3.8286e-09
4.96126e-06
1.01057e-07
4.97548e-06
2.16744e-07
4.97635e-06
1.79059e-07
4.98001e-06
1.27286e-07
4.98089e-06
1.16369e-07
4.97407e-06
9.57374e-08
4.96977e-06
9.49842e-08
4.96835e-06
1.15448e-07
4.96616e-06
1.2874e-07
4.96564e-06
1.38344e-07
1.54125e-07
4.9684e-06
5.2108e-06
-3.11226e-08
5.19077e-06
-3.95751e-07
5.1688e-06
-5.61116e-07
5.19554e-06
2.16597e-07
5.23191e-06
3.91726e-07
5.2294e-06
-1.29415e-07
5.19827e-06
-4.7082e-07
5.19092e-06
-1.89307e-07
5.18709e-06
2.01273e-12
5.19843e-06
8.97222e-08
5.213e-06
2.02175e-07
5.21386e-06
1.782e-07
5.21642e-06
1.24722e-07
5.218e-06
1.14789e-07
5.21174e-06
1.02001e-07
5.20683e-06
9.98918e-08
5.20577e-06
1.16504e-07
5.20422e-06
1.30289e-07
5.20361e-06
1.38963e-07
1.51529e-07
5.2062e-06
5.45953e-06
-3.54606e-08
5.43944e-06
-3.75665e-07
5.41744e-06
-5.39111e-07
5.44475e-06
1.89285e-07
5.47934e-06
3.57136e-07
5.4782e-06
-1.28279e-07
5.44767e-06
-4.40285e-07
5.43997e-06
-1.81607e-07
5.43689e-06
3.07669e-09
5.447e-06
7.96091e-08
5.46174e-06
1.87436e-07
5.46275e-06
1.7719e-07
5.46416e-06
1.23311e-07
5.4663e-06
1.1265e-07
5.46088e-06
1.07427e-07
5.45538e-06
1.05385e-07
5.45439e-06
1.17502e-07
5.45369e-06
1.30985e-07
5.45297e-06
1.3968e-07
1.49153e-07
5.45535e-06
5.72004e-06
-3.95434e-08
5.70028e-06
-3.55904e-07
5.67771e-06
-5.16544e-07
5.70599e-06
1.61003e-07
5.73856e-06
3.24568e-07
5.73861e-06
-1.28331e-07
5.7092e-06
-4.10872e-07
5.70087e-06
-1.73274e-07
5.69851e-06
5.43275e-09
5.70753e-06
7.0591e-08
5.72227e-06
1.72695e-07
5.7236e-06
1.75865e-07
5.72381e-06
1.23095e-07
5.72628e-06
1.10179e-07
5.72195e-06
1.11758e-07
5.71609e-06
1.11248e-07
5.71475e-06
1.18836e-07
5.71494e-06
1.308e-07
5.71444e-06
1.40179e-07
1.47239e-07
5.71636e-06
5.99289e-06
-4.32424e-08
5.9739e-06
-3.36907e-07
5.95024e-06
-4.92886e-07
5.97979e-06
1.31447e-07
6.01028e-06
2.94082e-07
6.01105e-06
-1.29103e-07
5.98343e-06
-3.83247e-07
5.97433e-06
-1.64179e-07
5.97248e-06
7.28883e-09
5.98054e-06
6.25256e-08
5.99514e-06
1.58097e-07
5.99694e-06
1.74069e-07
5.99597e-06
1.24064e-07
5.99844e-06
1.07706e-07
5.99547e-06
1.14723e-07
5.98954e-06
1.17181e-07
5.98755e-06
1.20827e-07
5.98844e-06
1.29907e-07
5.98854e-06
1.40084e-07
1.45853e-07
5.98992e-06
6.27867e-06
-4.64195e-08
6.26092e-06
-3.19162e-07
6.23576e-06
-4.67725e-07
6.26663e-06
1.00572e-07
6.29522e-06
2.65499e-07
6.29603e-06
-1.29917e-07
6.27083e-06
-3.5805e-07
6.26108e-06
-1.54426e-07
6.25935e-06
9.01597e-09
6.26656e-06
5.53172e-08
6.28091e-06
1.43746e-07
6.2833e-06
1.71683e-07
6.28122e-06
1.26144e-07
6.28341e-06
1.05513e-07
6.28193e-06
1.16201e-07
6.2763e-06
1.22815e-07
6.27353e-06
1.23593e-07
6.27472e-06
1.28722e-07
6.27576e-06
1.39043e-07
1.44821e-07
6.27679e-06
6.57799e-06
-4.89398e-08
6.56199e-06
-3.03165e-07
6.53507e-06
-4.40799e-07
6.56698e-06
6.86631e-08
6.59407e-06
2.38401e-07
6.5942e-06
-1.30041e-07
6.57175e-06
-3.35603e-07
6.5617e-06
-1.44373e-07
6.5597e-06
1.10155e-08
6.56606e-06
4.89555e-08
6.5801e-06
1.29705e-07
6.58318e-06
1.68604e-07
6.58019e-06
1.29134e-07
6.58184e-06
1.03867e-07
6.58183e-06
1.1621e-07
6.5769e-06
1.27744e-07
6.57345e-06
1.27039e-07
6.57446e-06
1.27714e-07
6.5765e-06
1.37009e-07
1.43675e-07
6.57764e-06
6.89153e-06
-5.06762e-08
6.87772e-06
-2.89354e-07
6.84897e-06
-4.12048e-07
6.8812e-06
3.64279e-08
6.90751e-06
2.12096e-07
6.90622e-06
-1.28755e-07
6.88645e-06
-3.15837e-07
6.87654e-06
-1.34458e-07
6.87407e-06
1.34803e-08
6.87951e-06
4.35146e-08
6.89318e-06
1.16039e-07
6.89709e-06
1.64691e-07
6.89351e-06
1.32714e-07
6.8944e-06
1.0298e-07
6.89569e-06
1.1492e-07
6.89189e-06
1.3154e-07
6.888e-06
1.30937e-07
6.88845e-06
1.27255e-07
6.89127e-06
1.34189e-07
1.41941e-07
6.89301e-06
7.21999e-06
-5.15273e-08
7.20861e-06
-2.77973e-07
7.17828e-06
-3.81717e-07
7.20974e-06
4.95946e-09
7.23602e-06
1.85819e-07
7.23285e-06
-1.25582e-07
7.21561e-06
-2.98596e-07
7.20641e-06
-1.2526e-07
7.20335e-06
1.65395e-08
7.2076e-06
3.92616e-08
7.22073e-06
1.02917e-07
7.22564e-06
1.59775e-07
7.22185e-06
1.36506e-07
7.22182e-06
1.03012e-07
7.22414e-06
1.12601e-07
7.22182e-06
1.33855e-07
7.2178e-06
1.34959e-07
7.21753e-06
1.2752e-07
7.2207e-06
1.31022e-07
1.39284e-07
7.22336e-06
7.56413e-06
-5.14316e-08
7.55524e-06
-2.69083e-07
7.52386e-06
-3.5034e-07
7.55336e-06
-2.45363e-08
7.58032e-06
1.58853e-07
7.57504e-06
-1.20301e-07
7.55983e-06
-2.83386e-07
7.55201e-06
-1.17435e-07
7.5484e-06
2.0148e-08
7.5511e-06
3.65637e-08
7.56347e-06
9.05446e-08
7.5695e-06
1.53746e-07
7.56594e-06
1.40066e-07
7.56491e-06
1.04042e-07
7.56784e-06
1.09665e-07
7.56726e-06
1.34438e-07
7.56351e-06
1.3871e-07
7.56249e-06
1.28537e-07
7.56555e-06
1.27963e-07
1.3568e-07
7.56916e-06
7.92476e-06
-5.0378e-08
7.91824e-06
-2.62568e-07
7.88662e-06
-3.18717e-07
7.91281e-06
-5.07248e-08
7.94149e-06
1.30174e-07
7.93453e-06
-1.13344e-07
7.9205e-06
-2.69359e-07
7.91457e-06
-1.11506e-07
7.91002e-06
2.47068e-08
7.91073e-06
3.58449e-08
7.92216e-06
7.91149e-08
7.9294e-06
1.46507e-07
7.92651e-06
1.42963e-07
7.92451e-06
1.06041e-07
7.92756e-06
1.0661e-07
7.92879e-06
1.33212e-07
7.92579e-06
1.41711e-07
7.92412e-06
1.30203e-07
7.92669e-06
1.25393e-07
1.31357e-07
7.93102e-06
8.30272e-06
-4.84138e-08
8.29828e-06
-2.58128e-07
8.26744e-06
-2.87877e-07
8.289e-06
-7.22895e-08
8.32068e-06
9.84956e-08
8.31371e-06
-1.06376e-07
8.29878e-06
-2.54431e-07
8.29317e-06
-1.05898e-07
8.28835e-06
2.95326e-08
8.28745e-06
3.67459e-08
8.2977e-06
6.88611e-08
8.30612e-06
1.3809e-07
8.30426e-06
1.44816e-07
8.30148e-06
1.08826e-07
8.30416e-06
1.03929e-07
8.30704e-06
1.30337e-07
8.30526e-06
1.4349e-07
8.30321e-06
1.32254e-07
8.30504e-06
1.23561e-07
1.26711e-07
8.30968e-06
8.69888e-06
-4.56368e-08
8.69609e-06
-2.55335e-07
8.6672e-06
-2.58984e-07
8.68353e-06
-8.86205e-08
8.7161e-06
6.59308e-08
8.70501e-06
-9.52893e-08
8.68862e-06
-2.38039e-07
8.68708e-06
-1.04362e-07
8.68454e-06
3.20723e-08
8.68245e-06
3.88338e-08
8.69103e-06
6.02813e-08
8.70049e-06
1.28638e-07
8.69999e-06
1.45314e-07
8.69674e-06
1.12079e-07
8.69869e-06
1.01975e-07
8.70279e-06
1.26242e-07
8.70258e-06
1.43694e-07
8.70056e-06
1.34272e-07
8.70158e-06
1.22544e-07
1.22251e-07
8.70604e-06
9.1142e-06
-4.22198e-08
9.11252e-06
-2.53655e-07
9.08643e-06
-2.32891e-07
9.096e-06
-9.81952e-08
9.12811e-06
3.38221e-08
9.11961e-06
-8.67867e-08
9.10106e-06
-2.19485e-07
9.1006e-06
-1.03906e-07
9.09992e-06
3.27525e-08
9.09675e-06
4.20036e-08
9.10316e-06
5.38677e-08
9.11337e-06
1.18426e-07
9.11444e-06
1.44247e-07
9.11111e-06
1.15412e-07
9.11217e-06
1.00914e-07
9.11692e-06
1.2149e-07
9.11842e-06
1.422e-07
9.11688e-06
1.35809e-07
9.11724e-06
1.22187e-07
1.18402e-07
9.12108e-06
9.54963e-06
-3.83939e-08
9.54834e-06
-2.52358e-07
9.52614e-06
-2.10693e-07
9.5299e-06
-1.01959e-07
9.56112e-06
2.6102e-09
9.55536e-06
-8.10352e-08
9.53419e-06
-1.98315e-07
9.5332e-06
-1.02914e-07
9.53483e-06
3.11258e-08
9.53137e-06
4.54569e-08
9.53548e-06
4.97672e-08
9.54574e-06
1.08164e-07
9.54849e-06
1.41492e-07
9.5455e-06
1.18409e-07
9.54566e-06
1.00748e-07
9.55054e-06
1.16616e-07
9.55363e-06
1.3911e-07
9.55293e-06
1.3651e-07
9.55291e-06
1.22197e-07
1.15359e-07
9.55596e-06
1.00062e-05
-3.44304e-08
1.00045e-05
-2.50733e-07
9.98716e-06
-1.93302e-07
9.98573e-06
-1.00533e-07
1.00144e-05
-2.60434e-08
1.00124e-05
-7.90405e-08
9.98965e-06
-1.75577e-07
9.98625e-06
-9.95086e-08
9.98992e-06
2.74481e-08
9.98721e-06
4.81747e-08
9.98915e-06
4.78253e-08
9.99876e-06
9.85516e-08
1.00031e-05
1.3716e-07
1.00008e-05
1.20728e-07
1.00002e-05
1.01307e-07
1.00048e-05
1.12041e-07
1.00092e-05
1.34724e-07
1.00096e-05
1.36135e-07
1.00095e-05
1.22259e-07
1.13067e-07
1.00118e-05
1.04848e-05
-3.06295e-08
1.04822e-05
-2.48112e-07
1.047e-05
-1.81061e-07
1.04645e-05
-9.51065e-08
1.0489e-05
-5.04527e-08
1.04912e-05
-8.12623e-08
1.04683e-05
-1.52731e-07
1.04616e-05
-9.27691e-08
1.04663e-05
2.27908e-08
1.04648e-05
4.96118e-08
1.04653e-05
4.73769e-08
1.04738e-05
9.00634e-08
1.04793e-05
1.31644e-07
1.04779e-05
1.22123e-07
1.04768e-05
1.02345e-07
1.04808e-05
1.08064e-07
1.04861e-05
1.29417e-07
1.04877e-05
1.34546e-07
1.04879e-05
1.22107e-07
1.11307e-07
1.04896e-05
1.09867e-05
-2.72871e-08
1.09825e-05
-2.439e-07
1.09752e-05
-1.7384e-07
1.09674e-05
-8.72259e-08
1.09859e-05
-6.89848e-08
1.09919e-05
-8.72972e-08
1.09709e-05
-1.31733e-07
1.09609e-05
-8.27501e-08
1.0965e-05
1.86655e-08
1.0965e-05
4.96279e-08
1.09648e-05
4.76437e-08
1.09719e-05
8.29461e-08
1.09782e-05
1.25329e-07
1.09778e-05
1.22501e-07
1.09766e-05
1.03583e-07
1.09798e-05
1.04841e-07
1.09856e-05
1.23626e-07
1.09884e-05
1.31704e-07
1.0989e-05
1.21546e-07
1.098e-07
1.09905e-05
1.15127e-05
-2.46662e-08
1.15065e-05
-2.37663e-07
1.15038e-05
-1.71089e-07
1.14951e-05
-7.85857e-08
1.15067e-05
-8.0575e-08
1.15151e-05
-9.56773e-08
1.1498e-05
-1.1465e-07
1.14855e-05
-7.01993e-08
1.14878e-05
1.63298e-08
1.14889e-05
4.84988e-08
1.14884e-05
4.81124e-08
1.14943e-05
7.71119e-08
1.1501e-05
1.18593e-07
1.15017e-05
1.21828e-07
1.15005e-05
1.04801e-07
1.1503e-05
1.02357e-07
1.15088e-05
1.17777e-07
1.15128e-05
1.27703e-07
1.1514e-05
1.20402e-07
1.08348e-07
1.15154e-05
1.20641e-05
-2.29588e-08
1.20557e-05
-2.29216e-07
1.20564e-05
-1.71782e-07
1.20485e-05
-7.07497e-08
1.2053e-05
-8.50158e-08
1.20617e-05
-1.04375e-07
1.20499e-05
-1.02877e-07
1.20363e-05
-5.6563e-08
1.20362e-05
1.64035e-08
1.20377e-05
4.7014e-08
1.20373e-05
4.84388e-08
1.20421e-05
7.23221e-08
1.2049e-05
1.11766e-07
1.20507e-05
1.201e-07
1.20497e-05
1.05797e-07
1.20515e-05
1.0054e-07
1.20571e-05
1.12216e-07
1.2062e-05
1.22774e-07
1.20639e-05
1.18499e-07
1.0683e-07
1.20654e-05
1.26419e-05
-2.2244e-08
1.2631e-05
-2.18326e-07
1.26335e-05
-1.74339e-07
1.26281e-05
-6.53156e-08
1.26264e-05
-8.32785e-08
1.26331e-05
-1.11133e-07
1.2627e-05
-9.67596e-08
1.26143e-05
-4.381e-08
1.26117e-05
1.89838e-08
1.26126e-05
4.60587e-08
1.26126e-05
4.8512e-08
1.26165e-05
6.8362e-08
1.26233e-05
1.04997e-07
1.2626e-05
1.17409e-07
1.26255e-05
1.06316e-07
1.26267e-05
9.92726e-08
1.26317e-05
1.07219e-07
1.26373e-05
1.17241e-07
1.264e-05
1.15733e-07
1.05126e-07
1.26417e-05
1.32472e-05
-2.24755e-08
1.32333e-05
-2.04457e-07
1.32366e-05
-1.77658e-07
1.32345e-05
-6.31939e-08
1.32287e-05
-7.74376e-08
1.32312e-05
-1.13713e-07
1.32299e-05
-9.54155e-08
1.32202e-05
-3.41321e-08
1.32156e-05
2.35705e-08
1.32155e-05
4.62e-08
1.32154e-05
4.86155e-08
1.32187e-05
6.50509e-08
1.32253e-05
9.83968e-08
1.32288e-05
1.13891e-07
1.32289e-05
1.06183e-07
1.32299e-05
9.83043e-08
1.32342e-05
1.02951e-07
1.324e-05
1.11466e-07
1.32436e-05
1.12093e-07
1.03098e-07
1.32456e-05
1.38812e-05
-2.35431e-08
1.38659e-05
-1.89111e-07
1.38683e-05
-1.80053e-07
1.3869e-05
-6.39579e-08
1.3861e-05
-6.94362e-08
1.38583e-05
-1.10971e-07
1.38595e-05
-9.65756e-08
1.38545e-05
-2.91829e-08
1.38493e-05
2.88006e-08
1.38477e-05
4.77417e-08
1.38472e-05
4.9161e-08
1.385e-05
6.22941e-08
1.38563e-05
9.20577e-08
1.38605e-05
1.0964e-07
1.38613e-05
1.05379e-07
1.38623e-05
9.7322e-08
1.38659e-05
9.93933e-08
1.38715e-05
1.05855e-07
1.38759e-05
1.07698e-07
1.00597e-07
1.38784e-05
1.45453e-05
-2.51871e-08
1.45284e-05
-1.72193e-07
1.45293e-05
-1.80997e-07
1.4533e-05
-6.76675e-08
1.45247e-05
-6.10601e-08
1.45172e-05
-1.03538e-07
1.45177e-05
-9.70817e-08
1.45177e-05
-2.91409e-08
1.45138e-05
3.27327e-08
1.45108e-05
5.06726e-08
1.45096e-05
5.04104e-08
1.45117e-05
6.02103e-08
1.45176e-05
8.61354e-08
1.45226e-05
1.0466e-07
1.4524e-05
1.03907e-07
1.45252e-05
9.61771e-08
1.45283e-05
9.62775e-08
1.45334e-05
1.00727e-07
1.45383e-05
1.02828e-07
9.75008e-08
1.45414e-05
1.52408e-05
-2.71095e-08
1.52238e-05
-1.55214e-07
1.52219e-05
-1.79056e-07
1.52278e-05
-7.3579e-08
1.52207e-05
-5.40055e-08
1.521e-05
-9.28002e-08
1.52075e-05
-9.45362e-08
1.52108e-05
-3.25148e-08
1.52098e-05
3.38016e-08
1.52063e-05
5.41745e-08
1.52042e-05
5.25096e-08
1.52054e-05
5.89497e-08
1.52107e-05
8.08384e-08
1.52162e-05
9.91434e-08
1.52185e-05
1.01629e-07
1.52198e-05
9.48816e-08
1.52227e-05
9.33702e-08
1.52273e-05
9.60968e-08
1.52323e-05
9.79127e-08
9.37949e-08
1.5236e-05
1.59692e-05
-2.89747e-08
1.5953e-05
-1.39032e-07
1.59477e-05
-1.73719e-07
1.59547e-05
-8.06378e-08
1.59501e-05
-4.93239e-08
1.59378e-05
-8.0543e-08
1.59316e-05
-8.83687e-08
1.59357e-05
-3.65483e-08
1.5938e-05
3.14397e-08
1.59353e-05
5.68862e-08
1.59324e-05
5.54409e-08
1.59328e-05
5.85689e-08
1.59373e-05
7.62865e-08
1.5943e-05
9.35004e-08
1.59462e-05
9.83947e-08
1.59478e-05
9.33079e-08
1.59505e-05
9.06566e-08
1.59548e-05
9.17565e-08
1.59595e-05
9.32476e-08
8.96887e-08
1.59636e-05
1.67321e-05
-3.0457e-08
1.67169e-05
-1.23808e-07
1.67084e-05
-1.65279e-07
1.67156e-05
-8.78292e-08
1.67137e-05
-4.73673e-08
1.67015e-05
-6.84175e-08
1.66924e-05
-7.92052e-08
1.66947e-05
-3.88763e-08
1.66999e-05
2.62749e-08
1.66991e-05
5.76681e-08
1.66958e-05
5.86988e-08
1.66953e-05
5.90389e-08
1.6699e-05
7.26192e-08
1.67045e-05
8.80549e-08
1.67084e-05
9.4416e-08
1.67106e-05
9.11409e-08
1.67131e-05
8.81662e-08
1.67172e-05
8.76088e-08
1.67217e-05
8.87881e-08
8.55125e-08
1.67259e-05
1.75313e-05
-3.13538e-08
1.75184e-05
-1.10904e-07
1.75071e-05
-1.54013e-07
1.75125e-05
-9.32851e-08
1.7513e-05
-4.77961e-08
1.75021e-05
-5.75863e-08
1.74913e-05
-6.83154e-08
1.74907e-05
-3.8287e-08
1.7497e-05
1.99177e-08
1.74986e-05
5.61055e-08
1.7496e-05
6.13292e-08
1.74948e-05
6.01975e-08
1.74975e-05
6.99428e-08
1.75026e-05
8.28886e-08
1.75069e-05
9.0163e-08
1.75098e-05
8.82351e-08
1.75123e-05
8.56847e-08
1.75161e-05
8.37883e-08
1.75206e-05
8.4325e-08
8.14703e-08
1.75246e-05
1.83686e-05
-3.15642e-08
1.83577e-05
-1.00097e-07
1.83451e-05
-1.41343e-07
1.83478e-05
-9.59598e-08
1.83497e-05
-4.97904e-08
1.83408e-05
-4.86828e-08
1.83294e-05
-5.68929e-08
1.83261e-05
-3.49708e-08
1.83317e-05
1.42886e-08
1.83354e-05
5.24873e-08
1.83341e-05
6.25394e-08
1.83327e-05
6.16851e-08
1.83345e-05
6.81452e-08
1.83391e-05
7.82388e-08
1.83435e-05
8.5758e-08
1.83469e-05
8.48727e-08
1.83497e-05
8.28364e-08
1.83532e-05
8.0349e-08
1.83576e-05
7.99038e-08
7.74581e-08
1.83616e-05
1.92459e-05
-3.11166e-08
1.92369e-05
-9.10855e-08
1.92239e-05
-1.28348e-07
1.92235e-05
-9.55288e-08
1.92259e-05
-5.21987e-08
1.92192e-05
-4.19243e-08
1.92082e-05