/*--------------------------------*- C++ -*----------------------------------*\
| =========                 |                                                 |
| \\      /  F ield         | OpenFOAM: The Open Source CFD Toolbox           |
|  \\    /   O peration     | Version:  v1906                                 |
|   \\  /    A nd           | Web:      www.OpenFOAM.com                      |
|    \\/     M anipulation  |                                                 |
\*---------------------------------------------------------------------------*/
FoamFile
{
    version     2.0;
    format      ascii;
    class       volVectorField;
    location    "4";
    object      U;
}
// * * * * * * * * * * * * * * * * * * * * * * * * * * * * * * * * * * * * * //

dimensions      [0 1 -1 0 0 0 0];


internalField   nonuniform List<vector> 
9600
(
(0.677344 -0.00182361 0)
(1.27187 -0.00576358 0)
(0.816375 -0.00323747 0)
(1.36842 0.015072 0)
(0.652904 0.00404011 0)
(1.14258 -0.00763692 0)
(0.815888 -0.0174884 0)
(1.22168 -0.00073765 0)
(0.836493 0.0005548 0)
(1.21004 0.0117833 0)
(0.81597 0.00636746 0)
(1.17959 0.00482879 0)
(0.803985 -1.93562e-05 0)
(1.14103 -0.000596504 0)
(0.846861 -0.00503219 0)
(1.12556 -0.00171834 0)
(0.856375 0.00161788 0)
(1.13257 0.00320929 0)
(0.852328 0.00530831 0)
(1.12396 0.00557135 0)
(0.692117 -0.00159571 0)
(1.25729 -0.00650099 0)
(0.823286 -0.00455147 0)
(1.3586 0.0163089 0)
(0.698631 0.00603494 0)
(1.12315 -0.00902392 0)
(0.836097 -0.0190562 0)
(1.20967 -0.000759161 0)
(0.859649 0.00039061 0)
(1.19355 0.0122407 0)
(0.853343 0.00641188 0)
(1.15252 0.00538871 0)
(0.857318 0.000447301 0)
(1.10165 -0.00112372 0)
(0.906102 -0.00489535 0)
(1.07483 -0.00187075 0)
(0.928022 0.00161176 0)
(1.05737 0.0027409 0)
(0.955403 0.00674641 0)
(1.0085 0.00418751 0)
(0.720998 -0.00141397 0)
(1.22791 -0.00717612 0)
(0.838955 -0.00562379 0)
(1.33591 0.0179035 0)
(0.774289 0.007778 0)
(1.09397 -0.00995229 0)
(0.869702 -0.0202278 0)
(1.18092 -0.000781066 0)
(0.903936 0.000395781 0)
(1.15886 0.0126695 0)
(0.914342 0.0068191 0)
(1.10916 0.00560044 0)
(0.927176 0.00111318 0)
(1.0536 -0.00182166 0)
(0.965149 -0.00445995 0)
(1.02804 -0.00228153 0)
(0.979471 0.00185529 0)
(1.01685 0.00241358 0)
(0.993457 0.00739849 0)
(0.993978 0.00488119 0)
(0.762851 -0.00120903 0)
(1.18438 -0.00772799 0)
(0.862736 -0.00669645 0)
(1.29984 0.0186687 0)
(0.861634 0.00966318 0)
(1.06291 -0.0104023 0)
(0.908964 -0.0212934 0)
(1.13879 -0.00111658 0)
(0.954311 0.000594251 0)
(1.11632 0.012702 0)
(0.971784 0.00740766 0)
(1.06918 0.00549842 0)
(0.97841 0.00197771 0)
(1.02295 -0.00225813 0)
(0.993486 -0.00408091 0)
(1.00753 -0.00250015 0)
(0.996278 0.00199764 0)
(1.00743 0.00223525 0)
(1.00115 0.00775431 0)
(0.998757 0.0057488 0)
(0.813864 -0.000939363 0)
(1.13181 -0.00821407 0)
(0.891333 -0.00786157 0)
(1.2526 0.0186707 0)
(0.942967 0.0116437 0)
(1.03894 -0.010458 0)
(0.943281 -0.0221566 0)
(1.0931 -0.00171276 0)
(0.99464 0.000837011 0)
(1.08008 0.0124936 0)
(1.00991 0.00797847 0)
(1.04462 0.00548411 0)
(1.00455 0.00272789 0)
(1.01124 -0.00231009 0)
(1.00055 -0.00382184 0)
(1.0007 -0.00255823 0)
(0.999009 0.00200422 0)
(1.00424 0.00209868 0)
(1.00297 0.00797575 0)
(1.00086 0.00644912 0)
(0.867454 -0.000615297 0)
(1.07907 -0.0086125 0)
(0.91957 -0.00904912 0)
(1.19966 0.0181852 0)
(1.0054 0.013481 0)
(1.02685 -0.010093 0)
(0.96623 -0.0226961 0)
(1.05363 -0.00243374 0)
(1.01776 0.000965961 0)
(1.05717 0.0122708 0)
(1.02928 0.00844179 0)
(1.03437 0.00564213 0)
(1.01524 0.00333548 0)
(1.00919 -0.00207113 0)
(1.00082 -0.00354689 0)
(0.997081 -0.00259221 0)
(0.997954 0.00195583 0)
(1.00113 0.00200969 0)
(1.00215 0.00799555 0)
(1.00127 0.00703699 0)
(0.916199 -0.000265934 0)
(1.03553 -0.00887072 0)
(0.942389 -0.0101834 0)
(1.14803 0.0173571 0)
(1.04429 0.0149754 0)
(1.0253 -0.009356 0)
(0.978444 -0.022874 0)
(1.02491 -0.00319 0)
(1.02557 0.000888982 0)
(1.04549 0.0120594 0)
(1.03706 0.0087846 0)
(1.03176 0.0058958 0)
(1.01955 0.00388127 0)
(1.01031 -0.00166342 0)
(1.00064 -0.00319221 0)
(0.994649 -0.00258091 0)
(0.995809 0.00188662 0)
(0.99821 0.00195433 0)
(0.999851 0.00783257 0)
(1.00051 0.00755898 0)
(0.954506 6.67126e-05 0)
(1.00706 -0.00896128 0)
(0.957163 -0.0112081 0)
(1.10323 0.0163194 0)
(1.06208 0.016028 0)
(1.02922 -0.00837558 0)
(0.984555 -0.0227142 0)
(1.00634 -0.00392255 0)
(1.02366 0.000595831 0)
(1.03911 0.0117833 0)
(1.03876 0.0090284 0)
(1.03127 0.00617459 0)
(1.02147 0.00441444 0)
(1.01203 -0.00117723 0)
(1.00119 -0.00274929 0)
(0.993476 -0.00247697 0)
(0.993777 0.00180486 0)
(0.995692 0.00193342 0)
(0.99729 0.00758042 0)
(0.998928 0.008005 0)
(0.980306 0.000337216 0)
(0.993852 -0.00888771 0)
(0.964614 -0.0120629 0)
(1.06751 0.0152055 0)
(1.06466 0.0166318 0)
(1.03354 -0.0073142 0)
(0.988716 -0.02228 0)
(0.995341 -0.004571 0)
(1.01717 0.000150179 0)
(1.03339 0.0113948 0)
(1.03672 0.00919085 0)
(1.03001 0.0064308 0)
(1.02188 0.00492529 0)
(1.01339 -0.000665067 0)
(1.00223 -0.00223214 0)
(0.993358 -0.00227503 0)
(0.992459 0.00173823 0)
(0.993709 0.00198186 0)
(0.994992 0.0072981 0)
(0.997013 0.00834543 0)
(0.994932 0.000517318 0)
(0.991559 -0.00868406 0)
(0.967744 -0.0126898 0)
(1.04046 0.0141011 0)
(1.05826 0.0168585 0)
(1.03541 -0.00631117 0)
(0.992661 -0.0216585 0)
(0.989551 -0.00508226 0)
(1.00964 -0.000343598 0)
(1.02652 0.0109035 0)
(1.03187 0.00927665 0)
(1.027 0.00662339 0)
(1.02082 0.00538028 0)
(1.01396 -0.000159386 0)
(1.00334 -0.00168461 0)
(0.993938 -0.00197529 0)
(0.991951 0.00171964 0)
(0.992402 0.0021127 0)
(0.993159 0.00700686 0)
(0.995138 0.00858238 0)
(1.00164 0.000605766 0)
(0.99452 -0.00840377 0)
(0.969735 -0.0130695 0)
(1.0206 0.0130568 0)
(1.04782 0.0168052 0)
(1.03441 -0.00545242 0)
(0.996347 -0.0209457 0)
(0.987199 -0.0054368 0)
(1.00314 -0.000788721 0)
(1.01888 0.0103547 0)
(1.02525 0.00928883 0)
(1.02247 0.00672581 0)
(1.01845 0.00575011 0)
(1.01361 0.00030833 0)
(1.0042 -0.00115833 0)
(0.994892 -0.00159068 0)
(0.992157 0.00174817 0)
(0.99187 0.00231196 0)
(0.992007 0.00673941 0)
(0.993668 0.00875305 0)
(1.00385 0.000622476 0)
(0.998458 -0.00810113 0)
(0.972406 -0.0132209 0)
(1.00651 0.0121134 0)
(1.03668 0.0165548 0)
(1.03146 -0.00477399 0)
(0.999276 -0.020217 0)
(0.986876 -0.00564848 0)
(0.998558 -0.00112548 0)
(1.01172 0.00980207 0)
(1.01823 0.00924347 0)
(1.01723 0.00673358 0)
(1.01525 0.00601986 0)
(1.01243 0.00070751 0)
(1.00462 -0.000690502 0)
(0.995932 -0.00115177 0)
(0.992924 0.00180645 0)
(0.992133 0.00256631 0)
(0.991738 0.00653919 0)
(0.992948 0.00887989 0)
(1.0041 0.000594512 0)
(1.00134 -0.00781488 0)
(0.975996 -0.0131894 0)
(0.997035 0.0112944 0)
(1.02674 0.0161852 0)
(1.02779 -0.00426688 0)
(1.00123 -0.0195133 0)
(0.987465 -0.00575207 0)
(0.995866 -0.00133779 0)
(1.00598 0.00928674 0)
(1.01203 0.00916504 0)
(1.01223 0.00666253 0)
(1.01186 0.0061871 0)
(1.01076 0.00103281 0)
(1.0046 -0.000306278 0)
(0.996841 -0.000706155 0)
(0.994042 0.00187678 0)
(0.993064 0.00285224 0)
(0.99236 0.00642315 0)
(0.993129 0.00895761 0)
(1.00379 0.00054503 0)
(1.00279 -0.00756431 0)
(0.979886 -0.0130286 0)
(0.991075 0.0106042 0)
(1.01886 0.0157535 0)
(1.0243 -0.00390314 0)
(1.00234 -0.0188493 0)
(0.988219 -0.00578652 0)
(0.994529 -0.00144212 0)
(1.00197 0.00882525 0)
(1.00733 0.00907454 0)
(1.00811 0.00654007 0)
(1.00888 0.00626346 0)
(1.00903 0.00129703 0)
(1.00429 -1.20572e-05 0)
(0.997523 -0.00028072 0)
(0.995266 0.001948 0)
(0.994382 0.00313096 0)
(0.993622 0.00637941 0)
(0.994051 0.00898392 0)
(1.00348 0.000488908 0)
(1.00318 -0.00735328 0)
(0.983383 -0.0127813 0)
(0.987623 0.0100285 0)
(1.01316 0.0152913 0)
(1.02146 -0.00364905 0)
(1.00288 -0.0182229 0)
(0.988782 -0.00578176 0)
(0.993929 -0.00146773 0)
(0.999435 0.00841129 0)
(1.00417 0.00898412 0)
(1.00516 0.00639127 0)
(1.00664 0.0062683 0)
(1.00758 0.00151614 0)
(1.00391 0.000202946 0)
(0.997996 0.00012255 0)
(0.996395 0.00201535 0)
(0.995758 0.00336873 0)
(0.995117 0.00638753 0)
(0.995333 0.00897217 0)
(1.00331 0.000433452 0)
(1.00298 -0.00717603 0)
(0.986106 -0.0124799 0)
(0.985834 0.00954002 0)
(1.00938 0.0148124 0)
(1.01938 -0.0034735 0)
(1.00313 -0.0176229 0)
(0.989081 -0.00575325 0)
(0.993625 -0.00144309 0)
(0.99793 0.00803014 0)
(1.00225 0.00889244 0)
(1.00331 0.00623506 0)
(1.00522 0.00622067 0)
(1.00659 0.00171165 0)
(1.00364 0.000350268 0)
(0.998341 0.000482877 0)
(0.997321 0.00208 0)
(0.996951 0.0035535 0)
(0.996491 0.00643096 0)
(0.996582 0.00893999 0)
(1.00326 0.000382312 0)
(1.00256 -0.00702489 0)
(0.988001 -0.0121471 0)
(0.985089 0.00910763 0)
(1.0071 0.0143252 0)
(1.01794 -0.00334951 0)
(1.00324 -0.0170376 0)
(0.989193 -0.00570573 0)
(0.993411 -0.00138973 0)
(0.997062 0.00766574 0)
(1.00118 0.00878908 0)
(1.00228 0.00608294 0)
(1.00446 0.00613153 0)
(1.00603 0.0018977 0)
(1.00356 0.000457946 0)
(0.998634 0.000790098 0)
(0.998031 0.00215429 0)
(0.997865 0.00369236 0)
(0.997558 0.00649545 0)
(0.997558 0.00890134 0)
(1.00327 0.000335736 0)
(1.00212 -0.00688998 0)
(0.989211 -0.0117963 0)
(0.984969 0.00870447 0)
(1.00587 0.0138328 0)
(1.01699 -0.00325554 0)
(1.00331 -0.0164569 0)
(0.989234 -0.00563954 0)
(0.993237 -0.00132185 0)
(0.996574 0.007305 0)
(1.0006 0.00866658 0)
(1.0018 0.00593649 0)
(1.00416 0.00600932 0)
(1.0058 0.00207967 0)
(1.00363 0.000556959 0)
(0.998918 0.00105565 0)
(0.998561 0.00224835 0)
(0.998524 0.00379628 0)
(0.998302 0.00656359 0)
(0.99821 0.00886794 0)
(1.00329 0.000292417 0)
(1.00174 -0.00676201 0)
(0.989945 -0.0114352 0)
(0.9852 0.00831172 0)
(1.00528 0.0133339 0)
(1.01632 -0.00317693 0)
(1.00336 -0.0158749 0)
(0.989296 -0.00555348 0)
(0.993122 -0.00124912 0)
(0.996327 0.00694074 0)
(1.00028 0.0085221 0)
(1.0016 0.00579386 0)
(1.00409 0.00586255 0)
(1.00574 0.00225935 0)
(1.00379 0.000662375 0)
(0.999203 0.00129408 0)
(0.998954 0.00236827 0)
(0.998999 0.00387787 0)
(0.998799 0.00662128 0)
(0.998606 0.00884899 0)
(1.0033 0.000251785 0)
(1.00146 -0.00663581 0)
(0.990395 -0.0110691 0)
(0.98561 0.00791769 0)
(1.00501 0.012828 0)
(1.0158 -0.00310409 0)
(1.00339 -0.0152905 0)
(0.98943 -0.00544873 0)
(0.993083 -0.00117426 0)
(0.996252 0.00657235 0)
(1.00006 0.00835183 0)
(1.00152 0.00565448 0)
(1.00409 0.00569649 0)
(1.00573 0.00243484 0)
(1.00396 0.000780359 0)
(0.99948 0.00151997 0)
(0.999245 0.00251697 0)
(0.999363 0.00395117 0)
(0.999145 0.00666016 0)
(0.998851 0.00884581 0)
(1.00326 0.00021273 0)
(1.00128 -0.00650749 0)
(0.990698 -0.0107006 0)
(0.986107 0.00751759 0)
(1.00484 0.0123151 0)
(1.01534 -0.00303035 0)
(1.00338 -0.0147062 0)
(0.989654 -0.00532571 0)
(0.993119 -0.00109847 0)
(0.996307 0.00620046 0)
(0.999899 0.00815976 0)
(1.00147 0.00551722 0)
(1.00408 0.00551945 0)
(1.00573 0.00260167 0)
(1.00408 0.000906532 0)
(0.999735 0.00173137 0)
(0.999459 0.00268837 0)
(0.999667 0.00402709 0)
(0.999416 0.00667727 0)
(0.999031 0.0088517 0)
(1.00317 0.000173855 0)
(1.00117 -0.00637506 0)
(0.990935 -0.0103304 0)
(0.986649 0.00711226 0)
(1.00467 0.0117945 0)
(1.01489 -0.00295308 0)
(1.00333 -0.0141222 0)
(0.98996 -0.00518835 0)
(0.993219 -0.00102254 0)
(0.996469 0.00582627 0)
(0.999753 0.00795149 0)
(1.00143 0.00537917 0)
(1.00401 0.00534059 0)
(1.00568 0.00275829 0)
(1.00414 0.00104201 0)
(0.999959 0.00192979 0)
(0.999612 0.00287887 0)
(0.999941 0.00411209 0)
(0.999659 0.00667755 0)
(0.999202 0.00886035 0)
(1.00303 0.000135608 0)
(1.00113 -0.0062395 0)
(0.991148 -0.00996228 0)
(0.987219 0.00670448 0)
(1.00445 0.0112653 0)
(1.01442 -0.00287084 0)
(1.00324 -0.0135426 0)
(0.990332 -0.00503853 0)
(0.993366 -0.000947443 0)
(0.99671 0.00545169 0)
(0.999619 0.00773164 0)
(1.00138 0.0052386 0)
(1.0039 0.00515699 0)
(1.00559 0.00290355 0)
(1.00412 0.0011849 0)
(1.00015 0.00211592 0)
(0.999721 0.00308638 0)
(1.0002 0.00420239 0)
(0.999901 0.00666207 0)
(0.999386 0.00887139 0)
(1.00286 9.71097e-05 0)
(1.00113 -0.00609923 0)
(0.991358 -0.00959926 0)
(0.987812 0.00629808 0)
(1.00419 0.0107268 0)
(1.01393 -0.00278106 0)
(1.00312 -0.0129725 0)
(0.990746 -0.0048767 0)
(0.993548 -0.000871069 0)
(0.997007 0.00507572 0)
(0.999501 0.00750413 0)
(1.00131 0.00510224 0)
(1.00374 0.00496635 0)
(1.00547 0.00303901 0)
(1.00406 0.00133472 0)
(1.00032 0.00228395 0)
(0.999802 0.0033046 0)
(1.00044 0.00429741 0)
(1.00016 0.00662235 0)
(0.999591 0.00888488 0)
(1.00266 5.76916e-05 0)
(1.00115 -0.00595149 0)
(0.991573 -0.00924089 0)
(0.988416 0.00589675 0)
(1.0039 0.0101805 0)
(1.01343 -0.00268534 0)
(1.00298 -0.0124097 0)
(0.99118 -0.00470908 0)
(0.993755 -0.000790294 0)
(0.997332 0.00469474 0)
(0.999401 0.00726869 0)
(1.00124 0.00498 0)
(1.00357 0.00477247 0)
(1.00532 0.00316896 0)
(1.00396 0.00150309 0)
(1.00046 0.00243467 0)
(0.999868 0.00352436 0)
(1.00067 0.00440905 0)
(1.00043 0.00655426 0)
(0.999815 0.00888525 0)
(1.00247 1.80605e-05 0)
(1.00118 -0.00579565 0)
(0.9918 -0.00889124 0)
(0.989019 0.00550199 0)
(1.00361 0.00962863 0)
(1.01291 -0.00258722 0)
(1.00283 -0.0118545 0)
(0.991614 -0.0045383 0)
(0.99398 -0.000705643 0)
(0.997666 0.0043101 0)
(0.999324 0.00702513 0)
(1.00115 0.00487555 0)
(1.00339 0.00457064 0)
(1.00516 0.00328596 0)
(1.00384 0.0016907 0)
(1.0006 0.00257053 0)
(0.999933 0.00373636 0)
(1.00088 0.00454417 0)
(1.00072 0.00646509 0)
(1.00006 0.00883797 0)
(1.00228 -2.29442e-05 0)
(1.00119 -0.00563048 0)
(0.992045 -0.00855424 0)
(0.989609 0.0051164 0)
(1.00332 0.00907014 0)
(1.01238 -0.00248533 0)
(1.0027 -0.0113089 0)
(0.992036 -0.00437176 0)
(0.994218 -0.000611694 0)
(0.997992 0.0039305 0)
(0.99927 0.00676889 0)
(1.00104 0.00479049 0)
(1.00322 0.00436285 0)
(1.00498 0.00338259 0)
(1.00372 0.00189119 0)
(1.00072 0.0026905 0)
(1.00001 0.00393287 0)
(1.00107 0.00470276 0)
(1.00102 0.00637166 0)
(1.00034 0.00871459 0)
(1.00212 -6.5227e-05 0)
(1.00118 -0.00545473 0)
(0.992311 -0.00823091 0)
(0.990177 0.00474106 0)
(1.00306 0.0085066 0)
(1.01183 -0.00238375 0)
(1.00258 -0.0107723 0)
(0.992442 -0.00421241 0)
(0.994467 -0.000509305 0)
(0.998303 0.00356387 0)
(0.99924 0.00649729 0)
(1.00091 0.00472944 0)
(1.00306 0.0041643 0)
(1.00481 0.00345834 0)
(1.0036 0.00210448 0)
(1.00083 0.00279833 0)
(1.0001 0.00410274 0)
(1.00123 0.00488216 0)
(1.00131 0.00630336 0)
(1.00064 0.00851799 0)
(1.00198 -0.000108651 0)
(1.00114 -0.00526895 0)
(0.992598 -0.00792237 0)
(0.990718 0.0043767 0)
(1.00282 0.00794264 0)
(1.01127 -0.00228603 0)
(1.00248 -0.0102407 0)
(0.99283 -0.00406272 0)
(0.994722 -0.000405947 0)
(0.998594 0.00321236 0)
(0.999233 0.00620885 0)
(1.00077 0.00468809 0)
(1.00292 0.00398383 0)
(1.00464 0.00351039 0)
(1.00348 0.00233247 0)
(1.00093 0.00290697 0)
(1.0002 0.0042358 0)
(1.00138 0.00506508 0)
(1.00159 0.00628973 0)
(1.00095 0.00828559 0)
(1.00186 -0.000152997 0)
(1.00109 -0.00507283 0)
(0.992903 -0.00762849 0)
(0.991235 0.00402107 0)
(1.00259 0.00738258 0)
(1.0107 -0.0021934 0)
(1.00238 -0.00970917 0)
(0.993203 -0.00392126 0)
(0.994977 -0.00030176 0)
(0.998868 0.00287736 0)
(0.999246 0.0058988 0)
(1.00061 0.00465504 0)
(1.00278 0.00382472 0)
(1.00449 0.00353549 0)
(1.00336 0.00256877 0)
(1.00102 0.00302922 0)
(1.00032 0.00433592 0)
(1.00152 0.00521998 0)
(1.00185 0.00632773 0)
(1.00127 0.00807851 0)
(1.00176 -0.000198399 0)
(1.00102 -0.00486654 0)
(0.993219 -0.00734704 0)
(0.99173 0.00367194 0)
(1.00238 0.00682853 0)
(1.01012 -0.0021104 0)
(1.0023 -0.00917373 0)
(0.993565 -0.00377938 0)
(0.995229 -0.00020242 0)
(0.999125 0.00256985 0)
(0.999278 0.00557005 0)
(1.00045 0.00462349 0)
(1.00264 0.00369128 0)
(1.00434 0.00353893 0)
(1.00325 0.00280101 0)
(1.00109 0.00316513 0)
(1.00045 0.00442173 0)
(1.00166 0.00533771 0)
(1.00209 0.00637789 0)
(1.00157 0.00793841 0)
(1.00166 -0.00024525 0)
(1.00095 -0.00465084 0)
(0.99354 -0.00707672 0)
(0.992208 0.00332778 0)
(1.00217 0.00628429 0)
(1.00953 -0.00204207 0)
(1.00221 -0.00863608 0)
(0.993916 -0.00364679 0)
(0.995474 -0.000108797 0)
(0.999365 0.00229768 0)
(0.999328 0.00523155 0)
(1.00028 0.00459385 0)
(1.0025 0.00358411 0)
(1.00422 0.00352668 0)
(1.00315 0.00302508 0)
(1.00115 0.0033068 0)
(1.00058 0.00449604 0)
(1.00179 0.00543731 0)
(1.00231 0.00640063 0)
(1.00184 0.00783692 0)
(1.00158 -0.0002905 0)
(1.00086 -0.00443101 0)
(0.993862 -0.00681616 0)
(0.992671 0.00298531 0)
(1.00197 0.00575835 0)
(1.00896 -0.00199517 0)
(1.00212 -0.00810431 0)
(0.994256 -0.00352003 0)
(0.995708 -2.61959e-05 0)
(0.999588 0.00205679 0)
(0.999393 0.00489026 0)
(1.00011 0.004568 0)
(1.00235 0.00350273 0)
(1.0041 0.00349733 0)
(1.00305 0.00324228 0)
(1.00119 0.0034605 0)
(1.00071 0.00454673 0)
(1.00192 0.00553162 0)
(1.00251 0.00640733 0)
(1.00211 0.00771731 0)
(1.00149 -0.000335676 0)
(1.00078 -0.00420926 0)
(0.99418 -0.00655638 0)
(0.993121 0.00263751 0)
(1.00178 0.00526045 0)
(1.00839 -0.00197727 0)
(1.00203 -0.00758631 0)
(0.994584 -0.00338383 0)
(0.99593 3.27582e-05 0)
(0.999792 0.00183603 0)
(0.999473 0.00454824 0)
(0.999943 0.00453677 0)
(1.00219 0.00344555 0)
(1.00401 0.00344872 0)
(1.00297 0.00344626 0)
(1.00122 0.00364064 0)
(1.00083 0.00457385 0)
(1.00204 0.00560381 0)
(1.00269 0.00643897 0)
(1.00236 0.00756802 0)
(1.00141 -0.000379925 0)
(1.00069 -0.00398715 0)
(0.994491 -0.00629288 0)
(0.993559 0.00227602 0)
(1.00158 0.00479438 0)
(1.00783 -0.00198073 0)
(1.00193 -0.00708409 0)
(0.994898 -0.00323634 0)
(0.996137 7.42228e-05 0)
(0.999976 0.00163064 0)
(0.999565 0.00420883 0)
(0.999787 0.00449646 0)
(1.00203 0.00341116 0)
(1.00393 0.00337956 0)
(1.0029 0.00362253 0)
(1.00123 0.00385048 0)
(1.00094 0.00459531 0)
(1.00218 0.00562054 0)
(1.00285 0.00650145 0)
(1.00259 0.00743131 0)
(1.00132 -0.00041919 0)
(1.0006 -0.00377386 0)
(0.994791 -0.00602096 0)
(0.993986 0.00189717 0)
(1.00139 0.00435635 0)
(1.00728 -0.00199376 0)
(1.00183 -0.00660496 0)
(0.995197 -0.00306753 0)
(0.996329 0.000110615 0)
(1.00014 0.00144306 0)
(0.999668 0.00387612 0)
(0.999641 0.0044554 0)
(1.00185 0.00340919 0)
(1.00386 0.00329598 0)
(1.00285 0.00375476 0)
(1.00122 0.00407947 0)
(1.00103 0.00464052 0)
(1.00231 0.00557487 0)
(1.00299 0.00654868 0)
(1.00278 0.00735196 0)
(1.00124 -0.000454762 0)
(1.00051 -0.00357209 0)
(0.995078 -0.0057275 0)
(0.994401 0.0015005 0)
(1.0012 0.00394609 0)
(1.00675 -0.00201031 0)
(1.00174 -0.00616577 0)
(0.995482 -0.00288575 0)
(0.996502 0.000143999 0)
(1.00028 0.00127202 0)
(0.999781 0.0035508 0)
(0.999509 0.0044118 0)
(1.00165 0.00344747 0)
(1.00379 0.00321112 0)
(1.00284 0.00383174 0)
(1.0012 0.00430885 0)
(1.00108 0.00473064 0)
(1.00245 0.00549881 0)
(1.00314 0.00653059 0)
(1.00293 0.00732621 0)
(1.00116 -0.000485084 0)
(1.00043 -0.00338412 0)
(0.995349 -0.0054154 0)
(0.994803 0.00108861 0)
(1.00101 0.00355927 0)
(1.00622 -0.00201894 0)
(1.00164 -0.00577755 0)
(0.995753 -0.00270285 0)
(0.996657 0.000179601 0)
(1.00041 0.00111257 0)
(0.999905 0.00322469 0)
(0.999394 0.0043522 0)
(1.00144 0.00351901 0)
(1.00372 0.00313676 0)
(1.00285 0.00385133 0)
(1.00118 0.00451621 0)
(1.00109 0.00486555 0)
(1.00257 0.00543482 0)
(1.00331 0.00644533 0)
(1.00307 0.00731468 0)
(1.00107 -0.000506434 0)
(1.00034 -0.00322106 0)
(0.995602 -0.00508055 0)
(0.995192 0.000665326 0)
(1.00084 0.00318225 0)
(1.0057 -0.00201124 0)
(1.00154 -0.00543464 0)
(0.996012 -0.00251625 0)
(0.996791 0.00023078 0)
(1.0005 0.00097043 0)
(1.00004 0.00289479 0)
(0.999303 0.00427358 0)
(1.0012 0.00361697 0)
(1.00363 0.00308651 0)
(1.0029 0.00381981 0)
(1.00118 0.00468039 0)
(1.00106 0.0050218 0)
(1.00265 0.00539624 0)
(1.00348 0.00630995 0)
(1.00321 0.00726623 0)
(1.00099 -0.000519943 0)
(1.00026 -0.00308416 0)
(0.995836 -0.00472116 0)
(0.995564 0.000247666 0)
(1.00067 0.00281233 0)
(1.00519 -0.00196959 0)
(1.00144 -0.00513633 0)
(0.996263 -0.00234218 0)
(0.996906 0.000296375 0)
(1.00058 0.000857533 0)
(1.00018 0.00256409 0)
(0.999241 0.00417374 0)
(1.00096 0.00373489 0)
(1.00352 0.00306946 0)
(1.00296 0.00374817 0)
(1.00121 0.00479544 0)
(1.00102 0.00518581 0)
(1.00269 0.0053864 0)
(1.00366 0.00614897 0)
(1.00337 0.00715484 0)
(1.00091 -0.000524654 0)
(1.0002 -0.0029762 0)
(0.99605 -0.00434643 0)
(0.995916 -0.000150467 0)
(1.00051 0.00244018 0)
(1.00469 -0.0018897 0)
(1.00134 -0.00487201 0)
(0.996508 -0.00218628 0)
(0.997003 0.000376206 0)
(1.00061 0.000783392 0)
(1.00033 0.00223889 0)
(0.999217 0.00403451 0)
(1.0007 0.00385767 0)
(1.00337 0.00308824 0)
(1.00304 0.0036442 0)
(1.00127 0.00485187 0)
(1.00095 0.00535261 0)
(1.00268 0.00541014 0)
(1.00381 0.00598707 0)
(1.00355 0.00698617 0)
(1.00083 -0.000516445 0)
(1.00014 -0.00289714 0)
(0.996246 -0.00396768 0)
(0.996244 -0.000510166 0)
(1.00038 0.00204136 0)
(1.0042 -0.00178383 0)
(1.00124 -0.0046315 0)
(0.996753 -0.00206234 0)
(0.997087 0.000468232 0)
(1.00061 0.000752258 0)
(1.00048 0.00194249 0)
(0.999232 0.00385426 0)
(1.00045 0.00396992 0)
(1.00319 0.00315402 0)
(1.00311 0.00353106 0)
(1.00137 0.00483344 0)
(1.00088 0.00550011 0)
(1.00261 0.00546321 0)
(1.00393 0.00583075 0)
(1.00376 0.00676287 0)
(1.00076 -0.000502541 0)
(1.00009 -0.00283794 0)
(0.996425 -0.00359276 0)
(0.996547 -0.000824801 0)
(1.00026 0.00162144 0)
(1.00372 -0.00166656 0)
(1.00113 -0.00440387 0)
(0.997 -0.00197286 0)
(0.997164 0.000567895 0)
(1.00058 0.000766645 0)
(1.00061 0.00168305 0)
(0.999289 0.00363576 0)
(1.00022 0.0040454 0)
(1.00296 0.00325727 0)
(1.00317 0.00344048 0)
(1.0015 0.00474734 0)
(1.00083 0.00560827 0)
(1.00249 0.00555359 0)
(1.00399 0.00570732 0)
(1.00397 0.00650775 0)
(1.00068 -0.000477242 0)
(1.00005 -0.00280407 0)
(0.996595 -0.00323458 0)
(0.996823 -0.00106626 0)
(1.00016 0.00115821 0)
(1.00326 -0.00152706 0)
(1.001 -0.00414062 0)
(0.997244 -0.00191686 0)
(0.997242 0.000649591 0)
(1.00052 0.000825707 0)
(1.00073 0.00146837 0)
(0.999384 0.00338542 0)
(1.00001 0.00407197 0)
(1.0027 0.00336732 0)
(1.0032 0.00337827 0)
(1.00168 0.00461346 0)
(1.00081 0.00565422 0)
(1.00232 0.00566526 0)
(1.00399 0.00563731 0)
(1.00418 0.00624605 0)
(1.0006 -0.000443622 0)
(1.00003 -0.00278689 0)
(0.996759 -0.00290339 0)
(0.997064 -0.00122984 0)
(1.00009 0.000685329 0)
(1.00284 -0.00136507 0)
(1.00086 -0.0038245 0)
(0.997486 -0.00190638 0)
(0.99733 0.000670595 0)
(1.00042 0.000898899 0)
(1.00082 0.00130076 0)
(0.999506 0.00311464 0)
(0.999848 0.00404814 0)
(1.00243 0.00346738 0)
(1.00319 0.00333589 0)
(1.00186 0.00444827 0)
(1.00083 0.00562474 0)
(1.00214 0.00575867 0)
(1.00391 0.00561223 0)
(1.00435 0.00600266 0)
(1.00053 -0.000407396 0)
(1.00002 -0.00277443 0)
(0.996918 -0.00261578 0)
(0.997271 -0.00131542 0)
(1.00003 0.000245807 0)
(1.00245 -0.00125122 0)
(1.00071 -0.00347723 0)
(0.997717 -0.00189859 0)
(0.997434 0.000635723 0)
(1.00032 0.000974146 0)
(1.00087 0.00119507 0)
(0.999648 0.00284464 0)
(0.999723 0.00397223 0)
(1.00214 0.00355167 0)
(1.00315 0.00331268 0)
(1.00206 0.00426947 0)
(1.0009 0.00553051 0)
(1.00196 0.00581889 0)
(1.00376 0.00562215 0)
(1.00444 0.00581492 0)
(1.00046 -0.000363886 0)
(1.00003 -0.00276578 0)
(0.997082 -0.0023849 0)
(0.997446 -0.00131796 0)
(0.999993 -0.000189141 0)
(1.00211 -0.00120203 0)
(1.00056 -0.00309859 0)
(0.997929 -0.00186135 0)
(0.997553 0.000560084 0)
(1.00021 0.00103818 0)
(1.0009 0.00115338 0)
(0.999799 0.00260049 0)
(0.999642 0.00385623 0)
(1.00186 0.00362051 0)
(1.00306 0.00331501 0)
(1.00225 0.00409259 0)
(1.00102 0.00537955 0)
(1.0018 0.00583708 0)
(1.00356 0.00564572 0)
(1.00446 0.00568783 0)
(1.0004 -0.000323583 0)
(1.00004 -0.00274571 0)
(0.997256 -0.00220904 0)
(0.997591 -0.00126742 0)
(0.999961 -0.000579181 0)
(1.00183 -0.00121729 0)
(1.0004 -0.00270531 0)
(0.998115 -0.00176712 0)
(0.997686 0.000464777 0)
(1.00011 0.00107035 0)
(1.0009 0.00113971 0)
(0.999952 0.00238975 0)
(0.999604 0.00371384 0)
(1.00159 0.00366978 0)
(1.00293 0.00334069 0)
(1.00242 0.00393245 0)
(1.00119 0.00518078 0)
(1.00169 0.00580395 0)
(1.00332 0.00566657 0)
(1.00439 0.00560565 0)
(1.00033 -0.000286746 0)
(1.00007 -0.00270845 0)
(0.997442 -0.00209624 0)
(0.997712 -0.00117385 0)
(0.999927 -0.000884047 0)
(1.00161 -0.00130361 0)
(1.00026 -0.00233902 0)
(0.998272 -0.00160196 0)
(0.997824 0.000377339 0)
(1.00002 0.00106573 0)
(1.00088 0.00113424 0)
(1.0001 0.00221007 0)
(0.999608 0.00355991 0)
(1.00134 0.0036941 0)
(1.00277 0.00337493 0)
(1.00256 0.00379576 0)
(1.00139 0.00494865 0)
(1.00162 0.00570935 0)
(1.00309 0.00567157 0)
(1.00426 0.00554813 0)
(1.00028 -0.000255375 0)
(1.00009 -0.00265167 0)
(0.997644 -0.00204352 0)
(0.997819 -0.00106316 0)
(0.999885 -0.00109271 0)
(1.00144 -0.00142814 0)
(1.00015 -0.00202247 0)
(0.998406 -0.00138406 0)
(0.997957 0.000315425 0)
(0.999945 0.00103555 0)
(1.00085 0.00113593 0)
(1.00026 0.00205643 0)
(0.999652 0.0034003 0)
(1.00112 0.00370002 0)
(1.00259 0.00341294 0)
(1.00266 0.0036845 0)
(1.00161 0.00470495 0)
(1.00162 0.00555022 0)
(1.00286 0.00564177 0)
(1.00408 0.00549293 0)
(1.00023 -0.000232649 0)
(1.00012 -0.00256996 0)
(0.99786 -0.00204193 0)
(0.997921 -0.000949881 0)
(0.999829 -0.00119617 0)
(1.00131 -0.00157313 0)
(1.00009 -0.00178716 0)
(0.998521 -0.00113538 0)
(0.99808 0.000301559 0)
(0.999889 0.000999178 0)
(1.00082 0.00112894 0)
(1.00041 0.00191629 0)
(0.999737 0.00321804 0)
(1.00094 0.00367821 0)
(1.00239 0.00345494 0)
(1.00271 0.00360076 0)
(1.00184 0.00447214 0)
(1.00168 0.00534878 0)
(1.00267 0.00557385 0)
(1.00387 0.00543509 0)
(1.00018 -0.000220264 0)
(1.00015 -0.00245631 0)
(0.99809 -0.00207339 0)
(0.998029 -0.000864927 0)
(0.999757 -0.00118875 0)
(1.00121 -0.00169738 0)
(1.00008 -0.00165586 0)
(0.998637 -0.000889004 0)
(0.998188 0.000350579 0)
(0.99984 0.000975736 0)
(1.00078 0.00111818 0)
(1.00055 0.0017969 0)
(0.999859 0.00302682 0)
(1.00081 0.00362161 0)
(1.00218 0.00349737 0)
(1.00272 0.00354571 0)
(1.00205 0.00425211 0)
(1.00179 0.00511409 0)
(1.00253 0.00546158 0)
(1.00366 0.00536421 0)
(1.00014 -0.000218912 0)
(1.00017 -0.00231555 0)
(0.998324 -0.00211044 0)
(0.998154 -0.000822048 0)
(0.999674 -0.00111702 0)
(1.00113 -0.00176561 0)
(1.00011 -0.00161211 0)
(0.998769 -0.000681622 0)
(0.998285 0.000441013 0)
(0.999793 0.000972255 0)
(1.00075 0.00111109 0)
(1.00068 0.00168987 0)
(1.00001 0.00284067 0)
(1.00074 0.00353274 0)
(1.00198 0.00352567 0)
(1.00269 0.00352314 0)
(1.00224 0.00406043 0)
(1.00195 0.00485524 0)
(1.00245 0.00530511 0)
(1.00345 0.00527586 0)
(1.00011 -0.000225972 0)
(1.00018 -0.00215225 0)
(0.998559 -0.0021465 0)
(0.998297 -0.000814 0)
(0.999586 -0.00101581 0)
(1.00103 -0.0017531 0)
(1.00018 -0.00162968 0)
(0.998931 -0.000547815 0)
(0.998376 0.000553209 0)
(0.999742 0.00101149 0)
(1.00071 0.00112013 0)
(1.00081 0.00159256 0)
(1.00019 0.00264795 0)
(1.00072 0.00341231 0)
(1.00182 0.00351874 0)
(1.00262 0.00351184 0)
(1.00239 0.00391394 0)
(1.00213 0.00459468 0)
(1.00242 0.00510783 0)
(1.00326 0.00516889 0)
(1.00008 -0.000241526 0)
(1.00018 -0.00196773 0)
(0.998785 -0.00216961 0)
(0.99846 -0.000850864 0)
(0.999505 -0.000897591 0)
(1.00093 -0.00164967 0)
(1.00027 -0.00164967 0)
(0.999131 -0.000518841 0)
(0.998479 0.000647868 0)
(0.999688 0.00108408 0)
(1.00065 0.00115165 0)
(1.00091 0.00152643 0)
(1.00038 0.00245632 0)
(1.00075 0.00326935 0)
(1.00168 0.00348662 0)
(1.00254 0.00349154 0)
(1.00249 0.00380628 0)
(1.0023 0.004361 0)
(1.00246 0.004876 0)
(1.00312 0.00502815 0)
(1.00006 -0.000261779 0)
(1.00018 -0.00177865 0)
(0.998994 -0.00216017 0)
(0.998641 -0.000921256 0)
(0.999441 -0.000793155 0)
(1.00081 -0.00149085 0)
(1.00035 -0.00162712 0)
(0.999359 -0.000564729 0)
(0.998611 0.00069215 0)
(0.999635 0.00116591 0)
(1.00058 0.00120604 0)
(1.00099 0.00148859 0)
(1.00057 0.00227971 0)
(1.00083 0.0030933 0)
(1.00159 0.00342754 0)
(1.00246 0.00345642 0)
(1.00255 0.00370889 0)
(1.00245 0.00416784 0)
(1.00253 0.00463825 0)
(1.00303 0.004851 0)
(1.00004 -0.000281935 0)
(1.00016 -0.00159341 0)
(0.999178 -0.00211627 0)
(0.998835 -0.00100882 0)
(0.9994 -0.000715282 0)
(1.00068 -0.00130567 0)
(1.0004 -0.00154339 0)
(0.999601 -0.000641868 0)
(0.998781 0.000659732 0)
(0.999596 0.00123909 0)
(1.00049 0.00128879 0)
(1.00103 0.00147814 0)
(1.00074 0.00213878 0)
(1.00094 0.00289684 0)
(1.00153 0.00332643 0)
(1.00237 0.00340999 0)
(1.00259 0.0036061 0)
(1.00257 0.00399424 0)
(1.00261 0.00441751 0)
(1.00299 0.00464264 0)
(1.00003 -0.000301516 0)
(1.00014 -0.0014202 0)
(0.999334 -0.00202558 0)
(0.999034 -0.00110568 0)
(0.999388 -0.000674095 0)
(1.00055 -0.00111875 0)
(1.00042 -0.0013972 0)
(0.99983 -0.000704983 0)
(0.998988 0.000556149 0)
(0.999592 0.00126973 0)
(1.0004 0.00137633 0)
(1.00104 0.00149545 0)
(1.00089 0.00203046 0)
(1.00108 0.002711 0)
(1.00153 0.00318787 0)
(1.00229 0.00334632 0)
(1.0026 0.00351141 0)
(1.00268 0.00381995 0)
(1.00269 0.00421483 0)
(1.00298 0.00442086 0)
(1.00001 -0.0003152 0)
(1.00012 -0.00126814 0)
(0.999459 -0.00189686 0)
(0.999225 -0.00119104 0)
(0.999405 -0.000671113 0)
(1.00043 -0.000948362 0)
(1.00041 -0.00121829 0)
(1.00003 -0.000716387 0)
(0.999217 0.000428607 0)
(0.999631 0.00124543 0)
(1.00031 0.00144954 0)
(1.00102 0.00154009 0)
(1.00101 0.00194994 0)
(1.00121 0.00254479 0)
(1.00156 0.00302933 0)
(1.00224 0.00324463 0)
(1.00258 0.0034226 0)
(1.00276 0.00364998 0)
(1.00276 0.00401556 0)
(1.00298 0.00421282 0)
(1.00001 -0.000319969 0)
(1.0001 -0.00114262 0)
(0.999555 -0.00174898 0)
(0.999402 -0.00124223 0)
(0.999449 -0.000693778 0)
(1.00033 -0.00080029 0)
(1.00038 -0.00102952 0)
(1.00018 -0.000676316 0)
(0.999449 0.000308137 0)
(0.999713 0.0011639 0)
(1.00024 0.00148841 0)
(1.00097 0.00159275 0)
(1.00108 0.0019074 0)
(1.00133 0.00239867 0)
(1.00161 0.00287086 0)
(1.00222 0.0031108 0)
(1.00256 0.00331758 0)
(1.00281 0.00349995 0)
(1.00283 0.0038095 0)
(1.00298 0.00401987 0)
(0.999998 -0.000318234 0)
(1.00009 -0.00103872 0)
(0.999629 -0.00159307 0)
(0.999557 -0.0012519 0)
(0.999513 -0.000729757 0)
(1.00026 -0.000685096 0)
(1.00033 -0.000842726 0)
(1.0003 -0.000590125 0)
(0.999663 0.000220774 0)
(0.999828 0.00105182 0)
(1.0002 0.00148389 0)
(1.00091 0.00162704 0)
(1.00111 0.0018923 0)
(1.00142 0.00227895 0)
(1.00167 0.00271803 0)
(1.00221 0.00296975 0)
(1.00254 0.00318508 0)
(1.00283 0.00336282 0)
(1.00289 0.00360736 0)
(1.00299 0.00381847 0)
(0.999991 -0.000310503 0)
(1.00007 -0.000950399 0)
(0.999685 -0.0014411 0)
(0.999689 -0.00122338 0)
(0.999589 -0.000760339 0)
(1.00021 -0.000602265 0)
(1.00028 -0.000669574 0)
(1.00037 -0.000477717 0)
(0.999847 0.000175755 0)
(0.999961 0.000942113 0)
(1.0002 0.00144098 0)
(1.00086 0.00163864 0)
(1.00111 0.00187964 0)
(1.00148 0.00218973 0)