/*--------------------------------*- C++ -*----------------------------------*\
| =========                 |                                                 |
| \\      /  F ield         | OpenFOAM: The Open Source CFD Toolbox           |
|  \\    /   O peration     | Version:  v1906                                 |
|   \\  /    A nd           | Web:      www.OpenFOAM.com                      |
|    \\/     M anipulation  |                                                 |
\*---------------------------------------------------------------------------*/
FoamFile
{
    version     2.0;
    format      ascii;
    class       volScalarField;
    location    "8.2";
    object      p;
}
// * * * * * * * * * * * * * * * * * * * * * * * * * * * * * * * * * * * * * //

dimensions      [0 2 -2 0 0 0 0];


internalField   nonuniform List<scalar> 
9600
(
-2.35624e-10
-0.000658309
0.001683
-0.000748018
0.00011748
-0.00214369
-0.000472275
-0.000575067
-0.00104163
-0.000182133
0.00185398
-0.00300522
-0.00460149
-0.00509293
-0.00967216
-0.00874747
-0.0106571
-0.0100805
-0.0120941
-0.0120948
-1.62131e-06
-0.000661451
0.00168527
-0.00075442
0.000123764
-0.00213629
-0.000479616
-0.000579161
-0.00103793
-0.000215468
0.00185728
-0.0030312
-0.00456983
-0.0051012
-0.00963571
-0.00875047
-0.0106038
-0.0100858
-0.0120626
-0.0120912
-3.80375e-06
-0.00066506
0.00168824
-0.000762151
0.000137022
-0.00212812
-0.00049388
-0.00058401
-0.00104214
-0.000262655
0.00184051
-0.00306841
-0.0045376
-0.00511936
-0.00957776
-0.00874748
-0.0105304
-0.0101112
-0.0120379
-0.0120654
-6.04821e-06
-0.000668904
0.00168963
-0.00077199
0.000149429
-0.00212195
-0.000509621
-0.000589596
-0.00104674
-0.000329391
0.00179905
-0.00312066
-0.00450957
-0.00514725
-0.00950078
-0.00874912
-0.0104508
-0.0101586
-0.0120172
-0.0120473
-8.50772e-06
-0.000673478
0.00168877
-0.000784378
0.000160021
-0.00211696
-0.000525706
-0.000595507
-0.00104949
-0.000410492
0.0017422
-0.00317724
-0.00448205
-0.0051803
-0.00941253
-0.00876007
-0.0103806
-0.0102136
-0.0119992
-0.0120544
-1.1238e-05
-0.000679128
0.00168523
-0.000799108
0.000171283
-0.00211175
-0.000542023
-0.000601633
-0.001049
-0.000500755
0.00167741
-0.00323256
-0.00445586
-0.00521474
-0.0093204
-0.00877691
-0.0103194
-0.0102615
-0.0119964
-0.0120798
-1.42754e-05
-0.000686162
0.00167885
-0.000815234
0.000184368
-0.00210545
-0.000558217
-0.000607749
-0.00104426
-0.000596104
0.00160941
-0.00328285
-0.0044317
-0.00524709
-0.0092287
-0.0087937
-0.0102631
-0.0103021
-0.0120132
-0.0121065
-1.76719e-05
-0.000694801
0.00167001
-0.000831791
0.000198604
-0.00209726
-0.000573677
-0.000613498
-0.00103549
-0.00069483
0.00154112
-0.00332602
-0.00440966
-0.0052756
-0.00914013
-0.00880454
-0.0102154
-0.0103383
-0.0120396
-0.0121328
-2.14914e-05
-0.000705041
0.0016595
-0.000848169
0.000212878
-0.00208645
-0.000587832
-0.000618649
-0.00102365
-0.000796358
0.00147365
-0.00336054
-0.00439004
-0.0052991
-0.00905608
-0.00880665
-0.0101787
-0.0103665
-0.0120675
-0.0121714
-2.57857e-05
-0.000716651
0.00164812
-0.000864038
0.000226343
-0.00207281
-0.000600551
-0.00062322
-0.00100973
-0.000900087
0.00140684
-0.00338581
-0.00437363
-0.00531599
-0.00897809
-0.00879954
-0.0101522
-0.0103829
-0.012097
-0.0122311
-3.05808e-05
-0.000729265
0.00163659
-0.000879219
0.000238357
-0.00205675
-0.000612393
-0.000627369
-0.000994587
-0.00100492
0.0013396
-0.00340248
-0.00436119
-0.00532499
-0.00890798
-0.00878259
-0.0101332
-0.0103892
-0.0121272
-0.0123118
-3.58765e-05
-0.000742466
0.00162546
-0.000893663
0.000248423
-0.00203906
-0.000624449
-0.000631307
-0.000979121
-0.00110954
0.0012703
-0.00341197
-0.00435353
-0.0053256
-0.00884684
-0.00875487
-0.0101199
-0.0103896
-0.012151
-0.0124094
-4.16577e-05
-0.000755862
0.00161505
-0.000907409
0.000256155
-0.00202043
-0.000637946
-0.000635254
-0.000964407
-0.00121287
0.00119728
-0.00341604
-0.00435172
-0.00531755
-0.008795
-0.00871637
-0.0101099
-0.0103885
-0.0121595
-0.0125201
-4.79122e-05
-0.000769141
0.00160555
-0.000920505
0.000261264
-0.00200129
-0.000653847
-0.00063909
-0.000951655
-0.00131445
0.0011191
-0.00341632
-0.00435689
-0.00530061
-0.00875216
-0.00866882
-0.0100996
-0.01039
-0.0121461
-0.0126392
-5.46427e-05
-0.000782099
0.00159695
-0.000932962
0.00026355
-0.00198166
-0.000672656
-0.000642446
-0.000942201
-0.00141423
0.00103449
-0.00341389
-0.00436994
-0.00527459
-0.00871785
-0.00861477
-0.0100838
-0.0103998
-0.0121083
-0.0127592
-6.18693e-05
-0.000794637
0.0015891
-0.000944761
0.000262868
-0.00196123
-0.00069459
-0.000645025
-0.000937284
-0.00151206
0.000942396
-0.00340905
-0.0043916
-0.00523969
-0.00869122
-0.00855738
-0.0100566
-0.0104234
-0.0120475
-0.0128697
-6.96245e-05
-0.000806746
0.00158175
-0.000955906
0.000259137
-0.00193952
-0.000719786
-0.000646504
-0.000937856
-0.00160754
0.000841935
-0.00340178
-0.00442224
-0.0051965
-0.00867098
-0.00850099
-0.0100126
-0.0104631
-0.0119676
-0.0129603
-7.79402e-05
-0.000818484
0.00157451
-0.000966435
0.000252345
-0.00191602
-0.000748418
-0.000646583
-0.000944679
-0.00170011
0.000732468
-0.00339201
-0.00446188
-0.00514577
-0.00865465
-0.008451
-0.00994904
-0.0105218
-0.0118742
-0.0130217
-8.68318e-05
-0.000829951
0.00156696
-0.000976377
0.000242514
-0.00189028
-0.000780759
-0.000645098
-0.000958371
-0.0017892
0.000613587
-0.0033795
-0.00451047
-0.00508902
-0.00863795
-0.00841283
-0.00986579
-0.0106446
-0.0117755
-0.0130458
-9.6295e-05
-0.000841263
0.0015587
-0.00098574
0.000229623
-0.00186197
-0.000817184
-0.00064193
-0.00097939
-0.00187456
0.000485102
-0.00336403
-0.0045669
-0.00502879
-0.00861718
-0.00839095
-0.00976123
-0.0107216
-0.0116825
-0.0130271
-0.00010631
-0.000852539
0.00154931
-0.000994502
0.000213562
-0.00183084
-0.000858159
-0.000636941
-0.00100801
-0.00195611
0.000347157
-0.00334606
-0.00462914
-0.00496796
-0.00858902
-0.00838884
-0.00963569
-0.0107982
-0.0116068
-0.0129635
-0.000116834
-0.000863901
0.00153843
-0.00100261
0.000194155
-0.00179664
-0.000904156
-0.000630131
-0.00104436
-0.00203382
0.000200489
-0.00332709
-0.00469524
-0.00490912
-0.00855007
-0.00840825
-0.00949405
-0.0108668
-0.0115554
-0.0128564
-0.000127808
-0.000875486
0.00152577
-0.00100996
0.000171131
-0.00175906
-0.000955568
-0.000621667
-0.00108825
-0.00210831
4.64828e-05
-0.00330881
-0.00476339
-0.00485454
-0.00849809
-0.00844905
-0.00934291
-0.0109193
-0.0115321
-0.0127102
-0.000139155
-0.000887461
0.00151105
-0.00101631
0.000144103
-0.00171787
-0.00101267
-0.000611939
-0.00113933
-0.00218066
-0.000113096
-0.00329261
-0.00483239
-0.00480643
-0.00843132
-0.00850984
-0.00918855
-0.0109482
-0.0115398
-0.012535
-0.000150763
-0.000900002
0.001494
-0.00102132
0.000112592
-0.0016728
-0.00107563
-0.000601511
-0.00119685
-0.00225219
-0.000288278
-0.00328007
-0.00490169
-0.00476636
-0.00834836
-0.00858873
-0.00903929
-0.0109445
-0.0115771
-0.0123454
-0.000162503
-0.000913261
0.00147431
-0.00102465
7.60631e-05
-0.00162362
-0.00114447
-0.000591109
-0.00125945
-0.00232476
-0.000449914
-0.00327207
-0.00497085
-0.00473531
-0.00824895
-0.00868318
-0.00890361
-0.0109009
-0.0116393
-0.0121593
-0.000174237
-0.000927391
0.00145169
-0.00102594
3.39889e-05
-0.00157023
-0.00121892
-0.00058191
-0.0013252
-0.00240094
-0.000607029
-0.00326761
-0.00504021
-0.00471455
-0.00813315
-0.00878985
-0.00878885
-0.0108122
-0.0117183
-0.0119967
-0.000185818
-0.000942546
0.00142578
-0.00102474
-1.41794e-05
-0.00151263
-0.00129832
-0.000575545
-0.00139178
-0.00248344
-0.000758837
-0.00326462
-0.00511105
-0.00470494
-0.00800063
-0.00890449
-0.00870293
-0.0106767
-0.0117997
-0.0118777
-0.0001971
-0.000958876
0.00139619
-0.00102047
-6.90384e-05
-0.00145089
-0.00138172
-0.000573915
-0.00145673
-0.00257409
-0.000904867
-0.00326102
-0.00518404
-0.00470802
-0.00785097
-0.00902076
-0.00865303
-0.0104975
-0.0118656
-0.011819
-0.000207917
-0.000976467
0.00136239
-0.00101253
-0.00013109
-0.00138546
-0.00146769
-0.000579377
-0.0015174
-0.0026736
-0.00104625
-0.00325355
-0.00525924
-0.00472723
-0.00768379
-0.00913022
-0.00864591
-0.0102844
-0.0118966
-0.0118248
-0.000218131
-0.000995361
0.0013237
-0.00100026
-0.000200628
-0.00131703
-0.00155438
-0.000594607
-0.00157098
-0.00278187
-0.00118525
-0.00323906
-0.00533647
-0.00476595
-0.00750008
-0.00922381
-0.00868575
-0.0100479
-0.011869
-0.0118829
-0.000227601
-0.00101561
0.00127935
-0.000983058
-0.00027779
-0.00124647
-0.00163981
-0.000622178
-0.00161518
-0.0028978
-0.00132612
-0.00321527
-0.00541367
-0.00482692
-0.0073033
-0.00929265
-0.00877098
-0.0098106
-0.0117637
-0.0119662
-0.00023616
-0.00103715
0.00122846
-0.000960439
-0.000362523
-0.001175
-0.0017212
-0.000664837
-0.00164905
-0.00301896
-0.00147375
-0.00318031
-0.0054869
-0.00491402
-0.00709905
-0.00932604
-0.0088949
-0.00959544
-0.0115758
-0.0120416
-0.000243734
-0.00105973
0.00117019
-0.000932207
-0.000454352
-0.00110435
-0.00179533
-0.000725098
-0.00167297
-0.00314152
-0.00163255
-0.00313423
-0.00555074
-0.00503059
-0.00689531
-0.00931275
-0.00904535
-0.00942635
-0.0113204
-0.0120731
-0.000250341
-0.00108303
0.00110365
-0.000898308
-0.000552332
-0.00103677
-0.00185914
-0.000804255
-0.00168842
-0.00326108
-0.00180603
-0.00307961
-0.00559842
-0.00517633
-0.00670324
-0.00924642
-0.00920685
-0.00931794
-0.011025
-0.0120256
-0.000256005
-0.00110657
0.00102787
-0.000858843
-0.000655206
-0.000974976
-0.00190967
-0.000902423
-0.00169863
-0.00337241
-0.00199664
-0.00302183
-0.00562309
-0.00534767
-0.0065349
-0.00912596
-0.00936093
-0.00927273
-0.0107166
-0.0118825
-0.000260783
-0.00112987
0.000942073
-0.000814264
-0.000761363
-0.000922105
-0.00194434
-0.00101859
-0.00170802
-0.00346977
-0.00220479
-0.00296861
-0.00561812
-0.00553767
-0.00640228
-0.00895543
-0.00948936
-0.00928287
-0.0104257
-0.0116538
-0.000264869
-0.00115249
0.000845817
-0.000765331
-0.000869136
-0.000881249
-0.00196138
-0.00115039
-0.00172183
-0.00354873
-0.00242785
-0.00292868
-0.00557945
-0.00573646
-0.00631647
-0.00874357
-0.0095757
-0.00933439
-0.0101761
-0.0113693
-0.000268519
-0.00117393
0.000738906
-0.000713236
-0.000988911
-0.000855427
-0.00196001
-0.00129374
-0.00174584
-0.00360722
-0.00266127
-0.00291103
-0.00550773
-0.00593145
-0.0062837
-0.0085055
-0.00960775
-0.00941004
-0.00997705
-0.0110579
-0.000272057
-0.0011936
0.000621495
-0.000659406
-0.00108898
-0.000847682
-0.00194037
-0.00144312
-0.00178596
-0.00364541
-0.00289813
-0.00292256
-0.00540767
-0.00610984
-0.00630376
-0.00825951
-0.00957874
-0.00949327
-0.00982813
-0.010745
-0.000275938
-0.00121094
0.000494205
-0.000605592
-0.00118135
-0.00086041
-0.00190427
-0.00159213
-0.00184656
-0.00366524
-0.00313039
-0.00296769
-0.00528721
-0.00626
-0.00637048
-0.00802422
-0.00948766
-0.00956727
-0.00972661
-0.0104503
-0.00028071
-0.00122514
0.000357966
-0.000554107
-0.00126331
-0.00089492
-0.00185626
-0.00173324
-0.00192879
-0.00367135
-0.00335111
-0.00304791
-0.00515676
-0.00637132
-0.00647288
-0.00781856
-0.0093415
-0.00961426
-0.00966541
-0.0101867
-0.000287152
-0.00123527
0.000214101
-0.000507872
-0.00133172
-0.000951492
-0.00180223
-0.00185958
-0.00203175
-0.00367074
-0.00355458
-0.00316162
-0.00502862
-0.00643755
-0.006597
-0.00765427
-0.00915318
-0.0096189
-0.00963149
-0.00996322
-0.000296256
-0.00124041
6.45052e-05
-0.00047027
-0.0013841
-0.00102877
-0.00174952
-0.00196622
-0.00215153
-0.00367057
-0.00373764
-0.00330538
-0.00491464
-0.00645749
-0.00672538
-0.00753573
-0.00893761
-0.00957137
-0.00960763
-0.00978347
-0.000309026
-0.0012398
-8.85492e-05
-0.000445024
-0.00141919
-0.00112332
-0.00170639
-0.00205109
-0.00228097
-0.00367769
-0.00390024
-0.00347298
-0.00482355
-0.0064338
-0.00684124
-0.00746112
-0.00870718
-0.00947189
-0.00957726
-0.00964153
-0.000326243
-0.00123318
-0.000242301
-0.000435395
-0.00143721
-0.00122982
-0.0016796
-0.00211512
-0.00241314
-0.00369572
-0.00404361
-0.00365496
-0.00475994
-0.00637327
-0.00693222
-0.00742603
-0.00849756
-0.00933082
-0.00952907
-0.00952544
-0.000348418
-0.00122082
-0.000393289
-0.000444015
-0.00144086
-0.00134153
-0.00167296
-0.0021625
-0.00254231
-0.00372634
-0.00416938
-0.00384077
-0.00472493
-0.00628652
-0.00699019
-0.00741775
-0.00831299
-0.00915982
-0.00945699
-0.00942486
-0.000375807
-0.00120356
-0.000537959
-0.000473697
-0.00143474
-0.00145222
-0.00168774
-0.00219849
-0.0026644
-0.0037687
-0.00427904
-0.00402103
-0.00471619
-0.00618626
-0.0070125
-0.00742315
-0.0081593
-0.00897073
-0.00935561
-0.00933262
-0.000408244
-0.00118309
-0.000673011
-0.000523421
-0.00142395
-0.00155714
-0.00172284
-0.00222802
-0.00277655
-0.00382063
-0.00437416
-0.00418964
-0.00473012
-0.00608275
-0.00700108
-0.00743069
-0.00803672
-0.00877682
-0.00922156
-0.00924088
-0.000445209
-0.00116154
-0.000795947
-0.000592124
-0.00141234
-0.00165396
-0.00177487
-0.0022556
-0.00287602
-0.00387894
-0.004457
-0.00434313
-0.0047625
-0.00598282
-0.00696012
-0.00743089
-0.00794128
-0.00859367
-0.00905998
-0.00913622
-0.000486012
-0.00114121
-0.000905397
-0.000675673
-0.00141383
-0.00174283
-0.00184048
-0.00228508
-0.00296124
-0.00393923
-0.00453015
-0.00448021
-0.00480971
-0.00589085
-0.00689512
-0.00741854
-0.00786601
-0.00843064
-0.00888305
-0.00900624
-0.00052998
-0.00112368
-0.0010014
-0.000769811
-0.00142713
-0.00182596
-0.00191745
-0.00231878
-0.00303182
-0.00399692
-0.00459543
-0.00460092
-0.00485954
-0.00580866
-0.00681305
-0.00739176
-0.00780332
-0.00828866
-0.00870474
-0.00884969
-0.000576539
-0.00110999
-0.00108514
-0.000869675
-0.0014532
-0.001907
-0.00200484
-0.00235829
-0.00308785
-0.00404807
-0.00465681
-0.00470772
-0.00491152
-0.00573555
-0.00671611
-0.00734779
-0.00774772
-0.00816523
-0.00853578
-0.00867687
-0.000625131
-0.0011007
-0.0011589
-0.000972322
-0.00149065
-0.00198797
-0.00210211
-0.00240483
-0.00312901
-0.00408875
-0.00471365
-0.0048032
-0.00496317
-0.00566994
-0.00660716
-0.00728404
-0.00769314
-0.00805668
-0.0083803
-0.00850208
-0.000673587
-0.00110702
-0.00122589
-0.00107769
-0.001539
-0.00207104
-0.00221051
-0.00245995
-0.00315519
-0.00411371
-0.00476435
-0.00489228
-0.00501417
-0.00561155
-0.00649059
-0.00719817
-0.00763306
-0.00796074
-0.00823818
-0.00833599
-0.000724805
-0.00110458
-0.0012829
-0.00118072
-0.00159608
-0.00215699
-0.00233077
-0.0025247
-0.00316813
-0.00411998
-0.00480469
-0.0049763
-0.00506883
-0.00556194
-0.00636903
-0.00708949
-0.00756036
-0.0078736
-0.00810856
-0.00818119
-0.000777021
-0.00112053
-0.00133299
-0.00127731
-0.00166064
-0.00224246
-0.00245833
-0.0025996
-0.0031708
-0.00410578
-0.00482927
-0.00505385
-0.00513007
-0.00552439
-0.00624753
-0.00696258
-0.00746739
-0.00778785
-0.00798968
-0.00803493
-0.000818859
-0.00111846
-0.00140193
-0.00140385
-0.00173337
-0.00232033
-0.00258698
-0.00268845
-0.00316906
-0.00406972
-0.00483361
-0.00511948
-0.00519505
-0.0055035
-0.00613367
-0.00682393
-0.00735062
-0.00769321
-0.00787878
-0.00789513
-0.000869988
-0.00114225
-0.00145581
-0.00151225
-0.00180595
-0.00238606
-0.00271255
-0.00279651
-0.00317802
-0.00401675
-0.0048132
-0.00516813
-0.00526054
-0.00549998
-0.00603401
-0.00668122
-0.00721485
-0.00757872
-0.00776895
-0.00776246
-0.000923144
-0.00115799
-0.00150881
-0.00162581
-0.0018851
-0.00244147
-0.00282947
-0.0029228
-0.0032074
-0.00395475
-0.00476462
-0.0051924
-0.00532018
-0.00551116
-0.00595318
-0.00654205
-0.00706815
-0.0074434
-0.00765024
-0.00763683
-0.000977497
-0.00118857
-0.00156066
-0.00173702
-0.00197256
-0.00248804
-0.00292657
-0.00305793
-0.00326126
-0.00389582
-0.00469035
-0.00518605
-0.00536565
-0.00553174
-0.00589296
-0.00641246
-0.00691906
-0.00729526
-0.00751467
-0.00751136
-0.00103908
-0.00122372
-0.00160851
-0.00184195
-0.00206748
-0.00253163
-0.00300105
-0.0031897
-0.00334006
-0.00385279
-0.00459934
-0.00514737
-0.0053878
-0.00555263
-0.00585092
-0.00629772
-0.00677247
-0.00714377
-0.00736444
-0.00737586
-0.00110369
-0.00126956
-0.00165362
-0.00194042
-0.00216889
-0.00258039
-0.00305528
-0.0033036
-0.00343803
-0.00383601
-0.00450275
-0.00507777
-0.00538179
-0.00556463
-0.00582108
-0.00620125
-0.00663197
-0.00699271
-0.0072069
-0.00722658
-0.00117035
-0.00131653
-0.00170376
-0.00203427
-0.00227462
-0.00263659
-0.00309371
-0.00339245
-0.00354071
-0.00384692
-0.00441398
-0.00498365
-0.00534433
-0.00555927
-0.005795
-0.0061214
-0.006501
-0.00684256
-0.00704902
-0.00706662
-0.00124099
-0.00137959
-0.00175531
-0.00211852
-0.00237985
-0.00270068
-0.0031245
-0.00345711
-0.00363363
-0.00388007
-0.00434586
-0.0048765
-0.00527494
-0.0055304
-0.00576399
-0.0060521
-0.0063832
-0.00669687
-0.0068945
-0.00690412
-0.00131505
-0.00144023
-0.00181077
-0.00219742
-0.0024835
-0.00277415
-0.00315674
-0.00350141
-0.003708
-0.00392426
-0.00430055
-0.00477065
-0.00518029
-0.00547259
-0.00571677
-0.00598315
-0.00627601
-0.00655885
-0.00674471
-0.00674491
-0.00139308
-0.00151629
-0.00187197
-0.00227006
-0.00258031
-0.00285195
-0.00319201
-0.00353038
-0.0037615
-0.00396662
-0.00427276
-0.00467596
-0.00507157
-0.00538718
-0.00564751
-0.00590624
-0.006171
-0.00642298
-0.0065953
-0.00659053
-0.00147386
-0.00159048
-0.00194042
-0.00234379
-0.0026715
-0.00293381
-0.00323421
-0.00355121
-0.00379484
-0.00399809
-0.00425478
-0.004593
-0.00495725
-0.00527938
-0.00555339
-0.00581328
-0.00606089
-0.0062862
-0.00644351
-0.0064366
-0.00155945
-0.00167016
-0.0020138
-0.00241645
-0.00275578
-0.00301511
-0.00328342
-0.00357303
-0.00381331
-0.00401347
-0.0042362
-0.00451793
-0.00484218
-0.00515785
-0.00543634
-0.00569704
-0.00593747
-0.00614285
-0.00628468
-0.00627479
-0.00165223
-0.00176387
-0.0020931
-0.00248798
-0.00283243
-0.00309077
-0.00333358
-0.00359662
-0.00382819
-0.00402058
-0.00421164
-0.00444106
-0.00471767
-0.00501625
-0.00529487
-0.00555659
-0.00579923
-0.00599639
-0.00612467
-0.00610817
-0.00174659
-0.00185014
-0.00217865
-0.00256974
-0.00291241
-0.00316947
-0.00338838
-0.00361715
-0.00383231
-0.00401925
-0.00419022
-0.00437326
-0.00458706
-0.004844
-0.00510893
-0.00537211
-0.00562671
-0.00583381
-0.00596471
-0.00595159
-0.00184778
-0.00194758
-0.00226904
-0.00265287
-0.00298987
-0.00324675
-0.00345232
-0.0036466
-0.00382728
-0.00399682
-0.00415512
-0.00431354
-0.00447325
-0.00466643
-0.00488165
-0.00510523
-0.00534107
-0.00555461
-0.00571253
-0.00575271
-0.00195858
-0.00205559
-0.00236586
-0.00273579
-0.00306065
-0.00331269
-0.00351524
-0.0036972
-0.00385219
-0.00397764
-0.00409463
-0.00422451
-0.00435918
-0.00451968
-0.0047052
-0.00488444
-0.005057
-0.00519869
-0.00528198
-0.00527646
-0.00207278
-0.0021678
-0.0024716
-0.00283014
-0.00314319
-0.00337958
-0.0035649
-0.00373893
-0.0039009
-0.00400447
-0.00403752
-0.00404458
-0.00406114
-0.00413665
-0.00428244
-0.00448307
-0.00473422
-0.0049975
-0.00520255
-0.00527273
-0.00219142
-0.00229346
-0.00259413
-0.00293661
-0.003235
-0.00345795
-0.00361987
-0.0037828
-0.00398672
-0.00418776
-0.00428194
-0.00421427
-0.00405747
-0.00394701
-0.0038992
-0.00382078
-0.00367428
-0.00348082
-0.00329645
-0.00319369
-0.00231757
-0.00239604
-0.00268259
-0.00300393
-0.00330409
-0.00355605
-0.00370908
-0.00377989
-0.00382565
-0.00383287
-0.00381598
-0.00383156
-0.00385337
-0.00386088
-0.00388058
-0.00389929
-0.00387738
-0.003804
-0.0036943
-0.00359584
-0.00254958
-0.00265362
-0.00283598
-0.00304053
-0.00323823
-0.00339085
-0.00350715
-0.00363946
-0.00378838
-0.00393259
-0.00403778
-0.00407097
-0.00403284
-0.00391223
-0.00373392
-0.00350322
-0.00322987
-0.00296981
-0.00276009
-0.00266758
-0.00258371
-0.00261268
-0.00282499
-0.00305444
-0.00323109
-0.00337586
-0.0035009
-0.00363723
-0.00376944
-0.00383833
-0.00383017
-0.00379185
-0.00377901
-0.00382796
-0.00394312
-0.00413749
-0.00436648
-0.00458457
-0.00480871
-0.00499629
-0.00278845
-0.00285902
-0.00298074
-0.00309435
-0.00320181
-0.00331052
-0.00342466
-0.00357603
-0.00375429
-0.00389075
-0.003952
-0.00396361
-0.00392338
-0.00381961
-0.00363876
-0.00341648
-0.00316405
-0.00293672
-0.00276118
-0.00269999
-0.00287453
-0.00292042
-0.00301723
-0.00309045
-0.00315402
-0.00323781
-0.00336886
-0.00356469
-0.00376764
-0.00389858
-0.00391476
-0.00388397
-0.00387132
-0.00387329
-0.00390221
-0.00391205
-0.00389919
-0.00383616
-0.00374654
-0.00371085
-0.0121906
-0.0130422
-0.0165727
-0.0204407
-0.0210072
-0.0192631
-0.01707
-0.0149815
-0.0131715
-0.0117191
-0.0106126
-0.00988286
-0.00941696
-0.00883453
-0.00795673
-0.00705065
-0.0063642
-0.00585176
-0.00540532
-0.00493674
-0.00437952
-0.0038251
-0.00347614
-0.00342391
-0.00355109
-0.00361907
-0.00342166
-0.00289178
-0.0021547
-0.0014337
-0.000838789
-0.000354177
6.11052e-05
0.000437789
0.000804083
0.00116691
0.00153808
0.0018766
0.00215723
0.00248083
0.00294897
0.0035032
0.00405977
0.00462446
0.00520486
0.00574854
0.00625981
0.00677635
0.00730934
0.00785375
0.00839863
0.00894237
0.00950542
0.0100816
0.0106502
0.0112081
0.0117675
0.0123712
0.0129935
0.0136518
0.0143621
0.0150962
0.015775
0.0164403
0.0171523
0.0178822
0.0186025
0.0193514
0.020127
0.0209016
0.0216987
0.0225194
0.0233697
0.0242126
0.0250176
0.0258413
0.0267051
0.0276263
0.028546
0.0295011
0.0304458
0.0313942
0.0323687
0.0333661
0.0343823
0.0354124
0.0364822
0.0375369
0.038633
0.039724
0.0408857
0.0420104
0.0432078
0.0443944
0.0456301
0.0469298
0.0482075
0.0496073
0.0507376
0.0520141
-0.0121815
-0.0130889
-0.0164624
-0.0202773
-0.0209195
-0.0192251
-0.0170484
-0.0149678
-0.0131621
-0.0117118
-0.0106057
-0.00987599
-0.00941117
-0.00883007
-0.00795272
-0.00704638
-0.00635977
-0.00584741
-0.00540128
-0.00493319
-0.00437623
-0.00382171
-0.0034726
-0.00342055
-0.00354829
-0.00361695
-0.00342
-0.0028902
-0.00215297
-0.00143194
-0.000837165
-0.000352726
6.24206e-05
0.000438993
0.000805194
0.00116792
0.00153901
0.00187752
0.00215806
0.00248148
0.00294954
0.00350379
0.00406035
0.00462499
0.00520538
0.00574906
0.00626029
0.0067768
0.00730977
0.00785416
0.00839904
0.00894276
0.00950578
0.010082
0.0106505
0.0112084
0.0117678
0.0123715
0.0129938
0.0136521
0.0143623
0.0150965
0.0157753
0.0164405
0.0171526
0.0178824
0.0186027
0.0193516
0.0201273
0.0209018
0.0216989
0.0225196
0.0233699
0.0242128
0.0250177
0.0258415
0.0267052
0.0276264
0.0285462
0.0295012
0.0304459
0.0313943
0.0323688
0.0333662
0.0343824
0.0354126
0.0364823
0.037537
0.0386331
0.0397241
0.0408858
0.0420105
0.0432079
0.0443945
0.0456302
0.0469299
0.0482076
0.0496074
0.0507378
0.0520141
-0.0122937
-0.0132612
-0.0163155
-0.019983
-0.0207601
-0.0191666
-0.0170158
-0.0149433
-0.0131445
-0.0117006
-0.0105987
-0.00987023
-0.00940536
-0.00882459
-0.00794815
-0.00704285
-0.00635682
-0.00584429
-0.00539784
-0.00492986
-0.00437315
-0.00381861
-0.00346935
-0.0034174
-0.00354575
-0.00361528
-0.0034189
-0.00288903
-0.00215136
-0.0014301
-0.000835475
-0.000351287
6.36591e-05
0.000440098
0.000806228
0.00116887
0.0015399
0.00187837
0.00215875
0.00248197
0.00294999
0.00350431
0.00406086
0.00462547
0.00520588
0.00574954
0.00626072
0.00677719
0.00731014
0.00785453
0.00839939
0.00894309
0.0095061
0.0100823
0.0106508
0.0112087
0.0117681
0.0123717
0.0129941
0.0136523
0.0143626
0.0150967
0.0157756
0.0164408
0.0171528
0.0178827
0.0186029
0.0193518
0.0201274
0.020902
0.0216991
0.0225197
0.0233701
0.0242129
0.0250179
0.0258416
0.0267054
0.0276266
0.0285463
0.0295014
0.030446
0.0313944
0.0323689
0.0333663
0.0343825
0.0354126
0.0364824
0.0375371
0.0386332
0.0397241
0.0408859
0.0420106
0.043208
0.0443945
0.0456303
0.04693
0.0482077
0.0496075
0.050738
0.0520142
-0.0124553
-0.0134503
-0.0161244
-0.0195883
-0.0205212
-0.0190706
-0.0169601
-0.0149007
-0.0131138
-0.0116817
-0.010589
-0.00986383
-0.00939751
-0.00881572
-0.00794145
-0.00703967
-0.00635556
-0.00584255
-0.00539471
-0.00492622
-0.00437003
-0.00381595
-0.00346639
-0.00341392
-0.0035426
-0.00361329
-0.00341787
-0.0028879
-0.00214948
-0.00142779
-0.000833345
-0.000349571
6.50718e-05
0.000441388
0.000807498
0.00117006
0.00154096
0.00187932
0.0021595
0.00248249
0.00295047
0.00350488
0.00406143
0.00462601
0.00520644
0.00575007
0.00626117
0.0067776
0.00731054
0.00785491
0.00839977
0.00894343
0.00950643
0.0100826
0.0106512
0.0112091
0.0117683
0.012372
0.0129943
0.0136525
0.0143628
0.015097
0.0157758
0.016441
0.017153
0.0178829
0.0186031
0.019352
0.0201276
0.0209022
0.0216992
0.0225199
0.0233702
0.0242131
0.0250181
0.0258418
0.0267055
0.0276267
0.0285465
0.0295015
0.0304462
0.0313945
0.032369
0.0333664
0.0343826
0.0354127
0.0364825
0.0375372
0.0386333
0.0397242
0.040886
0.0420107
0.043208
0.0443946
0.0456303
0.0469301
0.0482077
0.0496077
0.0507382
0.0520144
-0.0126128
-0.0136062
-0.015897
-0.0191504
-0.0202408
-0.0189527
-0.0168906
-0.0148451
-0.0130716
-0.0116547
-0.0105753
-0.00985545
-0.00938613
-0.00880179
-0.00793131
-0.0070363
-0.00635618
-0.00584254
-0.00539179
-0.00492184
-0.00436696
-0.0038146
-0.00346466
-0.00341031
-0.00353829
-0.00361023
-0.00341637
-0.0028865
-0.0021471
-0.00142473
-0.000830504
-0.000347417
6.67712e-05
0.000443064
0.000809304
0.00117177
0.0015424
0.00188054
0.0021605
0.00248326
0.00295113
0.00350557
0.00406213
0.00462669
0.00520712
0.00575069
0.00626171
0.00677808
0.00731098
0.00785535
0.00840019
0.00894383
0.00950681
0.010083
0.0106515
0.0112094
0.0117686
0.0123723
0.0129946
0.0136528
0.0143631
0.0150973
0.0157761
0.0164412
0.0171532
0.0178831
0.0186033
0.0193522
0.0201279
0.0209024
0.0216994
0.0225201
0.0233704
0.0242134
0.0250183
0.0258419
0.0267056
0.0276268
0.0285466
0.0295017
0.0304463
0.0313947
0.0323692
0.0333666
0.0343827
0.0354128
0.0364826
0.0375373
0.0386334
0.0397243
0.0408861
0.0420108
0.0432081
0.0443947
0.0456304
0.0469302
0.0482078
0.0496078
0.0507385
0.0520148
-0.0127361
-0.01373
-0.0156724
-0.0187041
-0.0199378
-0.0188239
-0.0168167
-0.0147836
-0.0130226
-0.0116223
-0.0105585
-0.00984464
-0.00937073
-0.00878277
-0.00791777
-0.00703258
-0.00635844
-0.00584411
-0.0053889
-0.00491634
-0.00436376
-0.00381514
-0.00346531
-0.00340754
-0.00353313
-0.0036059
-0.00341401
-0.00288453
-0.00214396
-0.00142064
-0.000826725
-0.000344752
6.87119e-05
0.000445156
0.000811846
0.00117426
0.00154441
0.00188218
0.00216198
0.00248451
0.00295215
0.00350651
0.00406306
0.00462759
0.00520795
0.00575142
0.00626235
0.00677867
0.00731152
0.00785585
0.00840069
0.00894431
0.00950725
0.0100834
0.0106519
0.0112098
0.011769
0.0123726
0.0129948
0.013653
0.0143634
0.0150976
0.0157764
0.0164414
0.0171535
0.0178834
0.0186036
0.0193524
0.0201281
0.0209026
0.0216996
0.0225203
0.0233707
0.0242136
0.0250185
0.0258421
0.0267058
0.027627
0.0285468
0.0295018
0.0304465
0.0313948
0.0323693
0.0333667
0.0343828
0.035413
0.0364827
0.0375374
0.0386335
0.0397244
0.0408862
0.0420109
0.0432082
0.0443948
0.0456305
0.0469303
0.0482078
0.049608
0.0507389
0.0520152
-0.0128218
-0.0138483
-0.0154765
-0.0182559
-0.0196101
-0.0186824
-0.0167396
-0.0147187
-0.0129694
-0.0115863
-0.0105394
-0.00983185
-0.00935233
-0.00876003
-0.0079016
-0.00702842
-0.00636183
-0.00584689
-0.00538592
-0.00490966
-0.00436008
-0.00381725
-0.00346864
-0.00340655
-0.0035282
-0.00360101
-0.00341099
-0.00288176
-0.00213972
-0.00141515
-0.000821691
-0.000341429
7.08526e-05
0.000447569
0.000815117
0.0011776
0.00154702
0.00188435
0.0021642
0.00248658
0.00295374
0.00350783
0.00406436
0.00462882
0.00520899
0.00575229
0.00626315
0.00677941
0.00731215
0.00785644
0.00840129
0.00894492
0.00950782
0.0100839
0.0106524
0.0112103
0.0117694
0.0123729
0.0129951
0.0136534
0.0143637
0.015098
0.0157767
0.0164417
0.0171537
0.0178836
0.0186038
0.0193526
0.0201284
0.0209028
0.0216999
0.0225205
0.0233709
0.0242139
0.0250187
0.0258422
0.0267059
0.0276272
0.0285469
0.029502
0.0304467
0.0313949
0.0323695
0.0333668
0.034383
0.0354131
0.0364829
0.0375375
0.0386336
0.0397245
0.0408863
0.042011
0.0432083
0.0443949
0.0456305
0.0469304
0.0482078
0.0496081
0.0507394
0.0520159
-0.0128861
-0.0139739
-0.0153077
-0.017798
-0.0192506
-0.0185254
-0.0166602
-0.0146524
-0.0129132
-0.0115474
-0.0105182
-0.00981765
-0.00933222
-0.00873503
-0.00788355
-0.00702362
-0.00636567
-0.00585037
-0.00538298
-0.00490226
-0.00435596
-0.00382031
-0.00347416
-0.00340774
-0.00352472
-0.00359693
-0.00340822
-0.00287849
-0.00213421
-0.00140795
-0.000815069
-0.000337179
7.33226e-05
0.000450264
0.000818981
0.0011816
0.00155004
0.00188689
0.0021672
0.00248968
0.00295616
0.00350976
0.00406621
0.00463052
0.00521032
0.00575335
0.00626414
0.00678033
0.00731292
0.00785712
0.00840202
0.0089457
0.00950855
0.0100846
0.0106531
0.0112109
0.01177
0.0123733
0.0129955
0.0136538
0.0143642
0.0150984
0.0157771
0.016442
0.017154
0.0178839
0.0186041
0.0193529
0.0201286
0.0209031
0.0217001
0.0225207
0.0233712
0.0242142
0.0250189
0.0258424
0.0267061
0.0276274
0.0285472
0.0295022
0.0304469
0.0313951
0.0323696
0.033367
0.0343832
0.0354132
0.036483
0.0375377
0.0386337
0.0397246
0.0408864
0.0420111
0.0432084
0.044395
0.0456306
0.0469305
0.0482078
0.0496082
0.0507401
0.0520168
-0.0129375
-0.0140932
-0.0151549
-0.0173295
-0.0188602
-0.0183533
-0.0165806
-0.0145864
-0.0128547
-0.0115054
-0.0104948
-0.00980223
-0.00931109
-0.00870854
-0.00786393
-0.00701794
-0.00636948
-0.00585422
-0.00538027
-0.00489473
-0.0043518
-0.00382413
-0.00348141
-0.00341109
-0.00352341
-0.00359489
-0.00340693
-0.00287553
-0.00212776
-0.00139902
-0.000806719
-0.000331773
7.63694e-05
0.000453348
0.000823332
0.00118602
0.00155311
0.00188942
0.00217071
0.00249371
0.00295947
0.00351244
0.00406881
0.00463285
0.00521203
0.00575464
0.00626537
0.00678148
0.00731386
0.0078579
0.00840285
0.00894665
0.00950947
0.0100854
0.0106539
0.0112118
0.0117707
0.0123738
0.0129959
0.0136543
0.0143647
0.0150989
0.0157775
0.0164424
0.0171544
0.0178842
0.0186043
0.0193532
0.0201289
0.0209033
0.0217004
0.022521
0.0233715
0.0242145
0.0250192
0.0258426
0.0267063
0.0276276
0.0285474
0.0295025
0.0304471
0.0313953
0.0323699
0.0333672
0.0343834
0.0354134
0.0364832
0.0375378
0.0386339
0.0397247
0.0408866
0.0420112
0.0432085
0.0443951
0.0456306
0.0469306
0.0482078
0.0496083
0.0507409
0.052018
-0.0129707
-0.0141895
-0.0150174
-0.016862
-0.018444
-0.0181658
-0.0165006
-0.0145213
-0.0127938
-0.0114598
-0.0104688
-0.00978566
-0.00928913
-0.00868076
-0.00784281
-0.00701127
-0.00637311
-0.00585839
-0.00537791
-0.00488742
-0.00434796
-0.00382881
-0.00349032
-0.00341665
-0.00352454
-0.00359545
-0.00340799
-0.00287382
-0.00212111
-0.00138887
-0.000796889
-0.00032523
8.01287e-05
0.000456949
0.00082814
0.00119069
0.00155598