/*--------------------------------*- C++ -*----------------------------------*\
| =========                 |                                                 |
| \\      /  F ield         | OpenFOAM: The Open Source CFD Toolbox           |
|  \\    /   O peration     | Version:  v1906                                 |
|   \\  /    A nd           | Web:      www.OpenFOAM.com                      |
|    \\/     M anipulation  |                                                 |
\*---------------------------------------------------------------------------*/
FoamFile
{
    version     2.0;
    format      ascii;
    class       surfaceScalarField;
    location    "8.2";
    object      phi;
}
// * * * * * * * * * * * * * * * * * * * * * * * * * * * * * * * * * * * * * //

dimensions      [0 3 -1 0 0 0 0];
oriented        oriented;


internalField   nonuniform List<scalar> 
19000
(
1.15683e-06
6.74697e-08
1.13989e-06
-4.86103e-07
1.15795e-06
9.58464e-07
1.1342e-06
-2.15347e-06
1.18704e-06
1.15742e-06
1.19173e-06
1.89986e-07
1.15516e-06
7.33461e-07
1.14992e-06
8.67026e-07
1.14996e-06
8.14627e-07
1.06968e-06
-1.38378e-06
1.12602e-06
4.93011e-07
1.06433e-06
-1.43406e-06
1.13418e-06
-3.45557e-07
1.11439e-06
-6.03692e-07
1.16693e-06
-2.66456e-07
1.1618e-06
5.53166e-08
1.17835e-06
-8.69203e-08
1.19198e-06
3.1957e-07
1.19849e-06
2.31382e-07
4.35182e-07
1.20413e-06
1.21321e-06
7.85219e-08
1.19554e-06
-4.68436e-07
1.21285e-06
9.41158e-07
1.19163e-06
-2.13225e-06
1.2387e-06
1.11035e-06
1.25094e-06
1.77747e-07
1.20623e-06
7.78175e-07
1.20446e-06
8.68798e-07
1.2049e-06
8.14178e-07
1.13231e-06
-1.31118e-06
1.17257e-06
4.52744e-07
1.11606e-06
-1.37755e-06
1.17521e-06
-4.04706e-07
1.16909e-06
-5.97569e-07
1.20793e-06
-3.053e-07
1.23631e-06
2.69363e-08
1.22213e-06
-7.2736e-08
1.27518e-06
2.66518e-07
1.2422e-06
2.64364e-07
3.88988e-07
1.28839e-06
1.27331e-06
8.7992e-08
1.25405e-06
-4.49168e-07
1.27074e-06
9.24464e-07
1.2502e-06
-2.11171e-06
1.29477e-06
1.06578e-06
1.31102e-06
1.61504e-07
1.26527e-06
8.23921e-07
1.26047e-06
8.73599e-07
1.26478e-06
8.09866e-07
1.20298e-06
-1.24938e-06
1.23092e-06
4.24799e-07
1.18991e-06
-1.33654e-06
1.22797e-06
-4.42765e-07
1.23911e-06
-6.08708e-07
1.25964e-06
-3.2583e-07
1.30107e-06
-1.44963e-08
1.28029e-06
-5.19498e-08
1.32255e-06
2.24256e-07
1.31163e-06
2.7528e-07
3.8197e-07
1.31865e-06
1.33685e-06
9.52473e-08
1.31655e-06
-4.28873e-07
1.33099e-06
9.10022e-07
1.31181e-06
-2.09253e-06
1.35405e-06
1.02354e-06
1.37427e-06
1.41286e-07
1.33176e-06
8.66434e-07
1.32285e-06
8.82503e-07
1.32925e-06
8.03467e-07
1.27834e-06
-1.19847e-06
1.29404e-06
4.09099e-07
1.26745e-06
-1.30995e-06
1.28938e-06
-4.64697e-07
1.31297e-06
-6.3229e-07
1.32386e-06
-3.36724e-07
1.36213e-06
-5.27618e-08
1.35225e-06
-4.20779e-08
1.37228e-06
2.04227e-07
1.37921e-06
2.68348e-07
3.82662e-07
1.37852e-06
1.40335e-06
1.00248e-07
1.38348e-06
-4.09005e-07
1.39405e-06
8.99455e-07
1.37608e-06
-2.07455e-06
1.41759e-06
9.82022e-07
1.43982e-06
1.1906e-07
1.40472e-06
9.01533e-07
1.3934e-06
8.93823e-07
1.39972e-06
7.97146e-07
1.3558e-06
-1.15455e-06
1.36428e-06
4.00614e-07
1.3461e-06
-1.29176e-06
1.35818e-06
-4.76774e-07
1.3837e-06
-6.57813e-07
1.39568e-06
-3.48699e-07
1.42729e-06
-8.43725e-08
1.42968e-06
-4.44659e-08
1.4392e-06
1.94707e-07
1.44887e-06
2.58673e-07
3.80381e-07
1.45115e-06
1.47229e-06
1.03639e-07
1.45503e-06
-3.91751e-07
1.46084e-06
8.9365e-07
1.44329e-06
-2.05701e-06
1.48551e-06
9.39803e-07
1.50657e-06
9.7997e-08
1.48107e-06
9.27038e-07
1.47067e-06
9.04221e-07
1.47543e-06
7.9239e-07
1.43459e-06
-1.11371e-06
1.44014e-06
3.95058e-07
1.4238e-06
-1.27542e-06
1.43055e-06
-4.83523e-07
1.45178e-06
-6.79047e-07
1.46814e-06
-3.65061e-07
1.49594e-06
-1.12169e-07
1.50608e-06
-5.46112e-08
1.51409e-06
1.86699e-07
1.52367e-06
2.49098e-07
3.76625e-07
1.52742e-06
1.54336e-06
1.06499e-07
1.53088e-06
-3.79276e-07
1.53218e-06
8.92354e-07
1.51405e-06
-2.03888e-06
1.5571e-06
8.96756e-07
1.57355e-06
8.15448e-08
1.558e-06
9.42592e-07
1.5521e-06
9.10118e-07
1.55523e-06
7.89257e-07
1.51549e-06
-1.07397e-06
1.52117e-06
3.89384e-07
1.50231e-06
-1.25656e-06
1.50556e-06
-4.86775e-07
1.52022e-06
-6.93705e-07
1.53943e-06
-3.84274e-07
1.56527e-06
-1.38008e-07
1.58069e-06
-7.00329e-08
1.58979e-06
1.77602e-07
1.60069e-06
2.38196e-07
3.71744e-07
1.60557e-06
1.61678e-06
1.09853e-07
1.61031e-06
-3.72815e-07
1.6083e-06
8.94364e-07
1.58862e-06
-2.0192e-06
1.63131e-06
8.54065e-07
1.64046e-06
7.24044e-08
1.63445e-06
9.48595e-07
1.63607e-06
9.08505e-07
1.63818e-06
7.87138e-07
1.59932e-06
-1.03511e-06
1.60681e-06
3.81899e-07
1.58321e-06
-1.23296e-06
1.58421e-06
-4.87767e-07
1.59157e-06
-7.01065e-07
1.61141e-06
-4.04117e-07
1.63511e-06
-1.61713e-07
1.65481e-06
-8.97283e-08
1.66556e-06
1.66853e-07
1.67871e-06
2.25041e-07
3.64663e-07
1.68579e-06
1.69318e-06
1.14243e-07
1.69264e-06
-3.72268e-07
1.68888e-06
8.98116e-07
1.66685e-06
-1.99716e-06
1.70759e-06
8.13327e-07
1.70838e-06
7.16092e-08
1.71144e-06
9.45534e-07
1.72233e-06
8.97617e-07
1.72408e-06
7.85388e-07
1.68643e-06
-9.97462e-07
1.69648e-06
3.71853e-07
1.66741e-06
-1.2039e-06
1.66738e-06
-4.87734e-07
1.66712e-06
-7.00808e-07
1.68616e-06
-4.2316e-07
1.70681e-06
-1.82363e-07
1.72984e-06
-1.12753e-07
1.74273e-06
1.53958e-07
1.75853e-06
2.0924e-07
3.54232e-07
1.76897e-06
1.77334e-06
1.19629e-07
1.77752e-06
-3.76449e-07
1.77343e-06
9.02204e-07
1.74849e-06
-1.97223e-06
1.78626e-06
7.75557e-07
1.77973e-06
7.81452e-08
1.79126e-06
9.33997e-07
1.81134e-06
8.7754e-07
1.8131e-06
7.83625e-07
1.7766e-06
-9.60959e-07
1.78933e-06
3.59125e-07
1.75493e-06
-1.16949e-06
1.75502e-06
-4.87826e-07
1.7472e-06
-6.92991e-07
1.7647e-06
-4.40663e-07
1.78145e-06
-1.99112e-07
1.80662e-06
-1.37918e-07
1.82204e-06
1.38531e-07
1.84044e-06
1.90843e-07
3.3955e-07
1.85512e-06
1.85783e-06
1.25552e-07
1.86502e-06
-3.83647e-07
1.86168e-06
9.0555e-07
1.83362e-06
-1.94417e-06
1.86838e-06
7.40801e-07
1.85713e-06
8.93939e-08
1.87612e-06
9.15011e-07
1.90328e-06
8.50376e-07
1.90534e-06
7.81571e-07
1.86929e-06
-9.24911e-07
1.88446e-06
3.43951e-07
1.84535e-06
-1.13038e-06
1.84643e-06
-4.88903e-07
1.83166e-06
-6.7823e-07
1.84722e-06
-4.56224e-07
1.85951e-06
-2.11399e-07
1.88536e-06
-1.63762e-07
1.90329e-06
1.20601e-07
1.92349e-06
1.70637e-07
3.20233e-07
1.94281e-06
1.94699e-06
1.31402e-07
1.95545e-06
-3.9211e-07
1.95367e-06
9.07333e-07
1.9226e-06
-1.9131e-06
1.95495e-06
7.08452e-07
1.94214e-06
1.02201e-07
1.96691e-06
8.90244e-07
1.99765e-06
8.19628e-07
2.00051e-06
7.78717e-07
1.96399e-06
-8.88388e-07
1.98129e-06
3.26644e-07
1.93833e-06
-1.08741e-06
1.94087e-06
-4.91442e-07
1.9203e-06
-6.57667e-07
1.9337e-06
-4.69625e-07
1.94131e-06
-2.19008e-07
1.96607e-06
-1.88518e-07
1.98597e-06
1.00696e-07
2.00644e-06
1.50167e-07
2.96661e-07
2.03002e-06
2.04095e-06
1.36646e-07
2.0492e-06
-4.00363e-07
2.04964e-06
9.06888e-07
2.01578e-06
-1.87924e-06
2.04637e-06
6.77866e-07
2.03455e-06
1.14017e-07
2.06301e-06
8.6178e-07
2.09364e-06
7.89004e-07
2.0982e-06
7.74157e-07
2.06057e-06
-8.50766e-07
2.07983e-06
3.07388e-07
2.03395e-06
-1.04153e-06
2.03804e-06
-4.95529e-07
2.01311e-06
-6.32737e-07
2.02428e-06
-4.80797e-07
2.02738e-06
-2.22106e-07
2.04918e-06
-2.10321e-07
2.07014e-06
7.97418e-08
2.08895e-06
1.31353e-07
2.69993e-07
2.11562e-06
2.13968e-06
1.40971e-07
2.14671e-06
-4.07401e-07
2.14989e-06
9.03707e-07
2.11339e-06
-1.84273e-06
2.1425e-06
6.48755e-07
2.13293e-06
1.23584e-07
2.16311e-06
8.31602e-07
2.19086e-06
7.61258e-07
2.19826e-06
7.66753e-07
2.15946e-06
-8.11965e-07
2.18068e-06
2.86172e-07
2.13277e-06
-9.93629e-07
2.13819e-06
-5.00947e-07
2.1103e-06
-6.04843e-07
2.11928e-06
-4.89779e-07
2.11845e-06
-2.21281e-07
2.13562e-06
-2.27489e-07
2.15661e-06
5.87523e-08
2.17206e-06
1.15903e-07
2.41977e-07
2.20008e-06
2.24314e-06
1.44321e-07
2.24849e-06
-4.12748e-07
2.2547e-06
8.97498e-07
2.21558e-06
-1.80362e-06
2.24315e-06
6.21185e-07
2.23578e-06
1.30957e-07
2.26627e-06
8.01104e-07
2.28988e-06
7.3765e-07
2.30113e-06
7.55509e-07
2.26145e-06
-7.72285e-07
2.28473e-06
2.62885e-07
2.23558e-06
-9.44472e-07
2.24192e-06
-5.0729e-07
2.21221e-06
-5.75137e-07
2.21906e-06
-4.96621e-07
2.21522e-06
-2.17447e-07
2.22655e-06
-2.38818e-07
2.24677e-06
3.8536e-08
2.25783e-06
1.04842e-07
2.14621e-07
2.28518e-06
2.35136e-06
1.46837e-07
2.35499e-06
-4.16379e-07
2.36427e-06
8.88222e-07
2.32252e-06
-1.76187e-06
2.34839e-06
5.95307e-07
2.34234e-06
1.37016e-07
2.37252e-06
7.70918e-07
2.39203e-06
7.18138e-07
2.40767e-06
7.39874e-07
2.36746e-06
-7.32072e-07
2.39286e-06
2.37484e-07
2.34308e-06
-8.94691e-07
2.34987e-06
-5.14086e-07
2.31919e-06
-5.44452e-07
2.32389e-06
-5.01322e-07
2.31813e-06
-2.11691e-07
2.32298e-06
-2.43665e-07
2.34196e-06
1.95501e-08
2.34844e-06
9.83657e-08
1.89837e-07
2.37322e-06
2.46448e-06
1.48757e-07
2.46665e-06
-4.18551e-07
2.47879e-06
8.76075e-07
2.43443e-06
-1.7175e-06
2.45863e-06
5.71111e-07
2.45281e-06
1.42836e-07
2.48266e-06
7.41064e-07
2.49884e-06
7.01965e-07
2.51889e-06
7.1982e-07
2.47832e-06
-6.91503e-07
2.50568e-06
2.10129e-07
2.45575e-06
-8.44771e-07
2.46255e-06
-5.20882e-07
2.4315e-06
-5.13397e-07
2.43394e-06
-5.03771e-07
2.42738e-06
-2.05128e-07
2.42566e-06
-2.41947e-07
2.44321e-06
2.00401e-09
2.44561e-06
9.59665e-08
1.69099e-07
2.46635e-06
2.58273e-06
1.50322e-07
2.5838e-06
-4.19626e-07
2.59845e-06
8.61429e-07
2.55159e-06
-1.67064e-06
2.57437e-06
5.48329e-07
2.56795e-06
1.49254e-07
2.59778e-06
7.11233e-07
2.61151e-06
6.88238e-07
2.63559e-06
6.95737e-07
2.59469e-06
-6.50604e-07
2.62361e-06
1.81205e-07
2.57391e-06
-7.95069e-07
2.5803e-06
-5.27272e-07
2.54939e-06
-4.82482e-07
2.54937e-06
-5.03752e-07
2.54306e-06
-1.98817e-07
2.53519e-06
-2.34081e-07
2.55115e-06
-1.39525e-08
2.55052e-06
9.65935e-08
1.53262e-07
2.56636e-06
2.70642e-06
1.51728e-07
2.70676e-06
-4.1996e-07
2.72345e-06
8.44742e-07
2.67426e-06
-1.62146e-06
2.69611e-06
5.2648e-07
2.68862e-06
1.56743e-07
2.71882e-06
6.81034e-07
2.73081e-06
6.76254e-07
2.75828e-06
6.68265e-07
2.71704e-06
-6.09365e-07
2.74699e-06
1.5125e-07
2.69779e-06
-7.45865e-07
2.70339e-06
-5.3287e-07
2.67309e-06
-4.52184e-07
2.67033e-06
-5.00991e-07
2.66517e-06
-1.93656e-07
2.65201e-06
-2.20919e-07
2.66616e-06
-2.81034e-08
2.6639e-06
9.88501e-08
1.42545e-07
2.67462e-06
2.83588e-06
1.53112e-07
2.83577e-06
-4.19847e-07
2.85404e-06
8.26473e-07
2.80277e-06
-1.57019e-06
2.82425e-06
5.04996e-07
2.81551e-06
1.65485e-07
2.84641e-06
6.50128e-07
2.85711e-06
6.65559e-07
2.88724e-06
6.38138e-07
2.84572e-06
-5.67846e-07
2.87609e-06
1.20881e-07
2.82766e-06
-6.9744e-07
2.83205e-06
-5.3726e-07
2.80287e-06
-4.23005e-07
2.79706e-06
-4.95184e-07
2.79367e-06
-1.90264e-07
2.7764e-06
-2.03649e-07
2.78843e-06
-4.01266e-08
2.78603e-06
1.0124e-07
1.36604e-07
2.79198e-06
2.97145e-06
1.5456e-07
2.9711e-06
-4.19495e-07
2.99055e-06
8.07021e-07
2.93741e-06
-1.51705e-06
2.95908e-06
4.83332e-07
2.94905e-06
1.75508e-07
2.9809e-06
6.18288e-07
2.99058e-06
6.55875e-07
3.02264e-06
6.06078e-07
2.98102e-06
-5.26227e-07
3.01114e-06
9.07614e-08
2.96383e-06
-6.50131e-07
2.96658e-06
-5.40004e-07
2.93898e-06
-3.95408e-07
2.92988e-06
-4.86088e-07
2.92855e-06
-1.88927e-07
2.90847e-06
-1.83571e-07
2.91802e-06
-4.96753e-08
2.9168e-06
1.02459e-07
1.34666e-07
2.91874e-06
3.11345e-06
1.56114e-07
3.11299e-06
-4.19031e-07
3.13332e-06
7.86691e-07
3.07851e-06
-1.46224e-06
3.1008e-06
4.61037e-07
3.08954e-06
1.86768e-07
3.12244e-06
5.85395e-07
3.13132e-06
6.46992e-07
3.16464e-06
5.72754e-07
3.12323e-06
-4.84812e-07
3.15241e-06
6.15758e-08
3.10664e-06
-6.04354e-07
3.10729e-06
-5.40663e-07
3.08168e-06
-3.69791e-07
3.06918e-06
-4.73594e-07
3.06985e-06
-1.89596e-07
3.04828e-06
-1.62002e-07
3.05494e-06
-5.63287e-08
3.05588e-06
1.01521e-07
1.35709e-07
3.05483e-06
3.26224e-06
1.57784e-07
3.26172e-06
-4.18508e-07
3.28272e-06
7.65692e-07
3.22636e-06
-1.40589e-06
3.24963e-06
4.37772e-07
3.2372e-06
1.99199e-07
3.27116e-06
5.51432e-07
3.27945e-06
6.387e-07
3.31342e-06
5.38785e-07
3.27265e-06
-4.4404e-07
3.30017e-06
3.4055e-08
3.2564e-06
-5.60586e-07
3.25459e-06
-5.3885e-07
3.23122e-06
-3.46425e-07
3.21541e-06
-4.57781e-07
3.21777e-06
-1.91955e-07
3.19593e-06
-1.40159e-07
3.19935e-06
-5.97481e-08
3.2029e-06
9.79626e-08
1.38557e-07
3.20006e-06
3.41816e-06
1.59555e-07
3.41758e-06
-4.17923e-07
3.43912e-06
7.44144e-07
3.38132e-06
-1.34808e-06
3.40579e-06
4.13298e-07
3.39226e-06
2.12734e-07
3.42722e-06
5.16469e-07
3.43517e-06
6.30747e-07
3.46918e-06
5.04782e-07
3.42961e-06
-4.04477e-07
3.45473e-06
8.94062e-09
3.41344e-06
-5.19296e-07
3.40889e-06
-5.34307e-07
3.38788e-06
-3.25409e-07
3.36901e-06
-4.38917e-07
3.37256e-06
-1.95498e-07
3.35149e-06
-1.19096e-07
3.35154e-06
-5.97944e-08
3.35766e-06
9.18398e-08
1.41994e-07
3.35423e-06
3.58157e-06
1.61395e-07
3.58088e-06
-4.1723e-07
3.60293e-06
7.2209e-07
3.54372e-06
-1.28887e-06
3.56955e-06
3.87472e-07
3.55498e-06
2.27304e-07
3.59079e-06
4.80661e-07
3.59872e-06
6.22814e-07
3.63212e-06
4.71383e-07
3.59446e-06
-3.66817e-07
3.61646e-06
-1.30623e-08
3.57801e-06
-4.8084e-07
3.57068e-06
-5.26984e-07
3.55191e-06
-3.06639e-07
3.5304e-06
-4.17403e-07
3.53457e-06
-1.99672e-07
3.51512e-06
-9.96487e-08
3.51185e-06
-5.65192e-08
3.52007e-06
8.36211e-08
1.4486e-07
3.5172e-06
3.75284e-06
1.63262e-07
3.75196e-06
-4.16356e-07
3.77455e-06
6.99509e-07
3.71397e-06
-1.2283e-06
3.74121e-06
3.60234e-07
3.72567e-06
2.42838e-07
3.76208e-06
4.44251e-07
3.77038e-06
6.14521e-07
3.80251e-06
4.39246e-07
3.76753e-06
-3.31829e-07
3.78585e-06
-3.13891e-08
3.75035e-06
-4.45341e-07
3.74043e-06
-5.17058e-07
3.7236e-06
-2.89812e-07
3.69997e-06
-3.93775e-07
3.70417e-06
-2.0387e-07
3.68699e-06
-8.2464e-08
3.68063e-06
-5.01616e-08
3.69012e-06
7.41243e-08
1.46091e-07
3.68889e-06
3.93234e-06
1.65112e-07
3.93119e-06
-4.1521e-07
3.95438e-06
6.76324e-07
3.89245e-06
-1.16637e-06
3.92108e-06
3.31601e-07
3.90468e-06
2.59238e-07
3.94137e-06
4.07562e-07
3.95047e-06
6.05414e-07
3.98065e-06
4.09067e-07
3.94908e-06
-3.00251e-07
3.96341e-06
-4.57232e-08
3.93072e-06
-4.12651e-07
3.91854e-06
-5.04881e-07
3.90332e-06
-2.74592e-07
3.87804e-06
-3.68493e-07
3.88174e-06
-2.07567e-07
3.86728e-06
-6.8003e-08
3.8582e-06
-4.10835e-08
3.86802e-06
6.43068e-08
1.44864e-07
3.86924e-06
4.12046e-06
1.66902e-07
4.11894e-06
-4.13688e-07
4.14285e-06
6.52409e-07
4.07957e-06
-1.10308e-06
4.10951e-06
3.01661e-07
4.09239e-06
2.76357e-07
4.12895e-06
3.71e-07
4.13938e-06
5.9499e-07
4.16696e-06
3.81483e-07
4.13931e-06
-2.72603e-07
4.14967e-06
-5.60862e-08
4.11939e-06
-3.82366e-07
4.10541e-06
-4.90899e-07
4.0915e-06
-2.60683e-07
4.06494e-06
-3.41935e-07
4.06767e-06
-2.103e-07
4.05625e-06
-5.65817e-08
4.04496e-06
-2.97944e-08
4.05394e-06
5.53263e-08
1.40568e-07
4.05824e-06
4.31761e-06
1.68591e-07
4.3156e-06
-4.11679e-07
4.34041e-06
6.27605e-07
4.27576e-06
-1.03843e-06
4.30686e-06
2.70557e-07
4.28925e-06
2.93969e-07
4.3252e-06
3.3505e-07
4.3375e-06
5.82692e-07
4.36196e-06
3.57019e-07
4.33842e-06
-2.49055e-07
4.34521e-06
-6.28789e-08
4.31669e-06
-3.53851e-07
4.30137e-06
-4.75571e-07
4.28856e-06
-2.47875e-07
4.26103e-06
-3.14408e-07
4.26231e-06
-2.11581e-07
4.25413e-06
-4.83968e-08
4.24137e-06
-1.70381e-08
4.24836e-06
4.83323e-08
1.33049e-07
4.25588e-06
4.52422e-06
1.7014e-07
4.52161e-06
-4.09064e-07
4.54748e-06
6.01738e-07
4.48147e-06
-9.72422e-07
4.51354e-06
2.38484e-07
4.49576e-06
3.11748e-07
4.53054e-06
3.00274e-07
4.54528e-06
5.67945e-07
4.5662e-06
3.36106e-07
4.54664e-06
-2.295e-07
4.55052e-06
-6.67613e-08
4.52305e-06
-3.26374e-07
4.50676e-06
-4.59281e-07
4.49495e-06
-2.36073e-07
4.46668e-06
-2.86132e-07
4.46601e-06
-2.10911e-07
4.4611e-06
-4.34904e-08
4.4478e-06
-3.7354e-09
4.452e-06
4.4136e-08
1.22864e-07
4.46218e-06
4.74075e-06
1.71509e-07
4.73739e-06
-4.05711e-07
4.7645e-06
5.74635e-07
4.69717e-06
-9.05091e-07
4.72996e-06
2.05689e-07
4.71244e-06
3.29265e-07
4.74543e-06
2.67293e-07
4.76313e-06
5.5024e-07
4.78027e-06
3.18962e-07
4.76426e-06
-2.13487e-07
4.76611e-06
-6.8609e-08
4.73899e-06
-2.99251e-07
4.72188e-06
-4.4218e-07
4.71118e-06
-2.25364e-07
4.68237e-06
-2.57331e-07
4.67926e-06
-2.07799e-07
4.67742e-06
-4.16459e-08
4.6647e-06
8.98083e-09
4.66565e-06
4.31821e-08
1.11238e-07
4.67728e-06
4.96766e-06
1.72647e-07
4.96342e-06
-4.01466e-07
4.99191e-06
5.46141e-07
4.92336e-06
-8.3654e-07
4.95656e-06
1.72481e-07
4.93985e-06
3.45979e-07
4.97035e-06
2.36789e-07
4.99142e-06
5.29174e-07
5.00483e-06
3.05555e-07
4.99163e-06
-2.0029e-07
4.99244e-06
-6.94173e-08
4.9651e-06
-2.71911e-07
4.94714e-06
-4.24222e-07
4.93768e-06
-2.15904e-07
4.90871e-06
-2.28361e-07
4.90273e-06
-2.01818e-07
4.90353e-06
-4.24446e-08
4.89237e-06
2.01436e-08
4.89028e-06
4.52677e-08
9.98427e-08
4.90168e-06
5.20547e-06
1.73489e-07
5.20017e-06
-3.96159e-07
5.23015e-06
5.16154e-07
5.16057e-06
-7.66959e-07
5.19382e-06
1.39231e-07
5.17852e-06
3.61277e-07
5.20584e-06
2.0947e-07
5.23051e-06
5.04511e-07
5.2405e-06
2.9556e-07
5.2292e-06
-1.88988e-07
5.22988e-06
-7.01031e-08
5.20205e-06
-2.44081e-07
5.18297e-06
-4.05141e-07
5.17498e-06
-2.07908e-07
5.14634e-06
-1.99723e-07
5.13716e-06
-1.9264e-07
5.13991e-06
-4.51901e-08
5.13109e-06
2.89633e-08
5.12669e-06
4.9663e-08
9.03498e-08
5.13618e-06
5.45472e-06
1.73962e-07
5.44816e-06
-3.89601e-07
5.47968e-06
4.84628e-07
5.40938e-06
-6.96649e-07
5.44222e-06
1.06382e-07
5.42901e-06
3.74492e-07
5.45245e-06
1.86025e-07
5.48077e-06
4.76198e-07
5.48792e-06
2.88405e-07
5.47748e-06
-1.78542e-07
5.47882e-06
-7.14465e-08
5.45057e-06
-2.15834e-07
5.42989e-06
-3.84461e-07
5.42356e-06
-2.01575e-07
5.39584e-06
-1.72005e-07
5.38331e-06
-1.80111e-07
5.38712e-06
-4.89933e-08
5.38109e-06
3.49906e-08
5.37553e-06
5.52183e-08
8.38105e-08
5.38207e-06
5.71594e-06
1.73981e-07
5.70793e-06
-3.81594e-07
5.74097e-06
4.51593e-07
5.67036e-06
-6.26037e-07
5.70229e-06
7.44501e-08
5.69185e-06
3.84934e-07
5.71079e-06
1.67085e-07
5.74259e-06
4.44394e-07
5.74771e-06
2.83288e-07
5.73708e-06
-1.6792e-07
5.73958e-06
-7.39468e-08
5.71136e-06
-1.87607e-07
5.68853e-06
-3.61634e-07
5.68385e-06
-1.96899e-07
5.6579e-06
-1.46048e-07
5.64202e-06
-1.64238e-07
5.64588e-06
-5.28482e-08
5.64271e-06
3.81629e-08
5.63714e-06
6.07851e-08
8.04491e-08
5.6405e-06
5.98972e-06
1.73456e-07
5.98007e-06
-3.71944e-07
6.0145e-06
4.17161e-07
5.94414e-06
-5.55676e-07
5.97457e-06
4.40179e-08
5.96758e-06
3.91924e-07
5.98154e-06
1.53126e-07
6.0164e-06
4.09531e-07
6.02046e-06
2.79228e-07
6.0087e-06
-1.56161e-07
6.01256e-06
-7.78045e-08
5.98506e-06
-1.6011e-07
5.95971e-06
-3.36285e-07
5.95622e-06
-1.93408e-07
5.93295e-06
-1.22777e-07
5.91414e-06
-1.45429e-07
5.91696e-06
-5.567e-08
5.91641e-06
3.87126e-08
5.91171e-06
6.54935e-08
7.96283e-08
5.91253e-06
6.27665e-06
1.72296e-07
6.26517e-06
-3.60465e-07
6.3008e-06
3.81534e-07
6.23137e-06
-4.8625e-07
6.25965e-06
1.57405e-08
6.25673e-06
3.94843e-07
6.26549e-06
1.44365e-07
6.30269e-06
3.72333e-07
6.30673e-06
2.75188e-07
6.29315e-06
-1.42582e-07
6.29817e-06
-8.28272e-08
6.27227e-06
-1.34205e-07
6.24424e-06
-3.0826e-07
6.24124e-06
-1.904e-07
6.22137e-06
-1.0291e-07
6.20044e-06
-1.245e-07
6.20123e-06
-5.64574e-08
6.20279e-06
3.71539e-08
6.19943e-06
6.88506e-08
8.0236e-08
6.19882e-06
6.57736e-06
1.70405e-07
6.56389e-06
-3.46995e-07
6.60044e-06
3.44984e-07
6.53277e-06
-4.18577e-07
6.55817e-06
-9.66476e-09
6.55984e-06
3.93174e-07
6.56347e-06
1.40731e-07
6.602e-06
3.33808e-07
6.60707e-06
2.70115e-07
6.5913e-06
-1.26806e-07
6.59692e-06
-8.84558e-08
6.57352e-06
-1.10805e-07
6.54302e-06
-2.77753e-07
6.53953e-06
-1.86907e-07
6.5235e-06
-8.68883e-08
6.50142e-06
-1.02413e-07
6.49962e-06
-5.46566e-08
6.50259e-06
3.41801e-08
6.50076e-06
7.06835e-08
8.12375e-08
6.49975e-06
6.8925e-06
1.67694e-07
6.8769e-06
-3.31394e-07
6.91416e-06
3.07726e-07
6.84906e-06
-3.53483e-07
6.87085e-06
-3.1452e-08
6.87746e-06
3.86565e-07
6.87634e-06
1.41848e-07
6.91494e-06
2.9521e-07
6.92199e-06
2.63069e-07
6.90405e-06
-1.08863e-07
6.90946e-06
-9.38691e-08
6.88928e-06
-9.06295e-08
6.85689e-06
-2.45361e-07
6.85184e-06
-1.81856e-07
6.83973e-06
-7.4776e-08
6.81769e-06
-8.03772e-08
6.81291e-06
-4.98784e-08
6.81665e-06
3.04418e-08
6.81631e-06
7.10241e-08
8.20355e-08
6.81551e-06
7.22276e-06
1.64073e-07
7.20491e-06
-3.13549e-07
7.24268e-06
2.69955e-07
7.18088e-06
-2.91675e-07
7.19845e-06
-4.90244e-08
7.21018e-06
3.74832e-07
7.20499e-06
1.47034e-07
7.24222e-06
2.57983e-07
7.25197e-06
2.53319e-07
7.23226e-06
-8.91547e-08
7.23652e-06
-9.81296e-08
7.21998e-06
-7.40897e-08
7.1866e-06
-2.11975e-07
7.17899e-06
-1.7425e-07
7.1705e-06
-6.62804e-08
7.14969e-06
-5.95694e-08
7.14207e-06
-4.22628e-08
7.14577e-06
2.67441e-08
7.14681e-06
6.99906e-08
8.23982e-08
7.14644e-06
7.56883e-06
1.59465e-07
7.54867e-06
-2.93384e-07
7.58673e-06
2.31898e-07
7.52876e-06
-2.33713e-07
7.54173e-06
-6.19865e-08
7.55853e-06
3.58029e-07
7.55038e-06
1.55189e-07
7.58464e-06
2.23714e-07
7.59747e-06
2.40493e-07
7.57673e-06
-6.84142e-08
7.57899e-06
-1.0039e-07
7.56607e-06
-6.11675e-08
7.53273e-06
-1.78637e-07
7.52202e-06
-1.63535e-07
7.51633e-06
-6.05979e-08
7.49777e-06
-4.10056e-08
7.48796e-06
-3.24518e-08
7.49078e-06
2.39214e-08
7.49295e-06
6.78261e-08
8.21032e-08
7.49324e-06
7.93147e-06
1.5381e-07
7.90897e-06
-2.70891e-07
7.94702e-06
1.93852e-07
7.89346e-06
-1.80154e-07
7.90148e-06
-7.00027e-08
7.92305e-06
3.3646e-07
7.91324e-06
1.64991e-07
7.94308e-06
1.9388e-07
7.95894e-06
2.24633e-07
7.93817e-06
-4.76498e-08
7.93774e-06
-9.9964e-08
7.92801e-06
-5.14356e-08
7.89576e-06
-1.46386e-07
7.88183e-06
-1.49598e-07
7.8779e-06
-5.6677e-08
7.86242e-06
-2.55161e-08
7.85118e-06
-2.12148e-08
7.85255e-06
2.25544e-08
7.85561e-06
6.47646e-08
8.12192e-08
7.85649e-06
8.3114e-06
1.47089e-07
8.28673e-06
-2.46221e-07
8.32429e-06
1.56298e-07
8.27575e-06
-1.3162e-07
8.27856e-06
-7.2809e-08
8.30419e-06
3.1083e-07
8.29423e-06
1.74946e-07
8.31851e-06
1.69605e-07
8.33688e-06
2.06261e-07
8.31713e-06
-2.78997e-08
8.31359e-06
-9.64243e-08
8.30638e-06
-4.42235e-08
8.27611e-06
-1.16119e-07
8.25928e-06
-1.32763e-07
8.25612e-06
-5.35199e-08
8.24395e-06
-1.33419e-08
8.23232e-06
-9.59291e-09
8.23205e-06
2.28238e-08
8.23543e-06
6.13925e-08
7.96132e-08
8.23703e-06
8.70941e-06
1.39338e-07
8.68295e-06
-2.19763e-07
8.71926e-06
1.19994e-07
8.67641e-06
-8.8769e-08
8.67385e-06
-7.02537e-08
8.70239e-06
2.82292e-07
8.69383e-06
1.83506e-07
8.71213e-06
1.51301e-07
8.73179e-06
1.86602e-07
8.71393e-06
-1.00346e-08
8.70728e-06
-8.97739e-08
8.70166e-06
-3.86096e-08
8.6743e-06
-8.87523e-08
8.6553e-06
-1.13767e-07
8.65193e-06
-5.01458e-08
8.64297e-06
-4.38654e-09
8.63193e-06
1.44393e-09
8.63008e-06
2.46757e-08
8.63343e-06
5.80481e-08
7.74865e-08
8.63555e-06
9.12629e-06
1.30667e-07
9.0986e-06
-1.92073e-07
9.13272e-06
8.58739e-08
9.09616e-06
-5.22093e-08
9.08841e-06
-6.25037e-08
9.11839e-06
2.5231e-07
9.11255e-06
1.89352e-07
9.12507e-06
1.38777e-07
9.14434e-06
1.6733e-07
9.12893e-06
5.37352e-09
9.11932e-06
-8.01605e-08
9.11466e-06
-3.3953e-08
9.09097e-06
-6.50558e-08
9.07083e-06
-9.36337e-08
9.06654e-06
-4.58489e-08
9.06029e-06
1.85749e-09
9.05056e-06
1.11792e-08
9.04748e-06
2.77529e-08
9.05044e-06
5.50879e-08
7.49414e-08
9.05299e-06
9.56287e-06
1.21258e-07
9.53473e-06
-1.63934e-07
9.56558e-06
5.50251e-08
9.53601e-06
-2.26367e-08
9.52343e-06
-4.99297e-08
9.55311e-06
2.22633e-07
9.5507e-06
1.91762e-07
9.55825e-06
1.31227e-07
9.57574e-06
1.49838e-07
9.56291e-06
1.82007e-08
9.55091e-06
-6.81544e-08
9.54672e-06
-2.97606e-08
9.52701e-06
-4.53462e-08
9.50692e-06
-7.35483e-08
9.5012e-06
-4.01241e-08
9.49692e-06
6.13191e-09
9.48896e-06
1.91406e-08
9.48501e-06
3.17058e-08
9.48744e-06
5.26521e-08
7.21231e-08
9.49026e-06
1.002e-05
1.11347e-07
9.99243e-06
-1.36321e-07
1.00189e-05
2.85921e-08
9.99662e-06
-3.90874e-10
9.98038e-06
-3.36852e-08
1.00076e-05
1.95458e-07
1.00086e-05
1.90685e-07
1.00126e-05
1.27253e-07
1.00277e-05
1.34734e-07
1.00171e-05
2.87749e-08
1.00037e-05
-5.47388e-08
9.99945e-06
-2.54913e-08
9.9836e-06
-2.94967e-08
9.96431e-06
-5.42633e-08
9.9572e-06
-3.30149e-08
9.95407e-06
9.2645e-09
9.94797e-06
2.52432e-08
9.94371e-06
3.5962e-08
9.94528e-06
5.10835e-08
6.889e-08
9.94851e-06
1.04988e-05
1.01204e-07
1.04727e-05
-1.10191e-07
1.04938e-05
7.49086e-09
1.04786e-05
1.48045e-08
1.04604e-05
-1.54824e-08
1.04835e-05
1.72359e-07
1.04877e-05
1.86459e-07
1.04893e-05
1.25665e-07
1.05016e-05
1.22405e-07
1.0493e-05
3.73417e-08
1.04792e-05
-4.09176e-08
1.04743e-05
-2.05916e-08
1.04618e-05
-1.69397e-08
1.04439e-05
-3.64524e-08
1.04357e-05
-2.47836e-08
1.0433e-05
1.19895e-08
1.04286e-05
2.96324e-08
1.04246e-05
3.99592e-08
1.04251e-05
5.05484e-08
6.54964e-08
1.04285e-05
1.10001e-05
9.10884e-08
1.09762e-05
-8.62649e-08
1.09917e-05
-7.95975e-09
1.09824e-05
2.40196e-08
1.09641e-05
2.84953e-09
1.09828e-05
1.53681e-07
1.09895e-05
1.79779e-07
1.09894e-05
1.25693e-07
1.09988e-05
1.13094e-07
1.0992e-05
4.40453e-08
1.09784e-05
-2.72412e-08
1.09727e-05
-1.49098e-08
1.09626e-05
-6.85805e-09
1.09467e-05
-2.05078e-08
1.09378e-05
-1.59315e-08
1.09349e-05
1.48716e-08
1.09319e-05
3.26806e-08
1.09286e-05
4.32719e-08
1.09283e-05
5.08412e-08
6.23062e-08
1.09315e-05
1.15252e-05
8.12261e-08
1.15039e-05
-6.49787e-08
1.15141e-05
-1.81029e-08
1.15093e-05
2.87771e-08
1.14924e-05
1.97272e-08
1.15069e-05
1.39227e-07
1.1515e-05
1.71638e-07
1.15142e-05
1.2656e-07
1.15207e-05
1.06599e-07
1.15153e-05
4.94e-08
1.15023e-05
-1.42398e-08
1.14957e-05
-8.30185e-09
1.14874e-05
1.45201e-09
1.14735e-05
-6.597e-09
1.14644e-05
-6.84816e-09
1.14613e-05
1.80174e-08
1.1459e-05
3.49131e-08
1.14566e-05
4.56899e-08
1.1456e-05
5.1429e-08
5.99575e-08
1.14584e-05
1.20753e-05
7.17797e-08
1.20567e-05
-4.64382e-08
1.20625e-05
-2.38485e-08
1.20605e-05
3.07596e-08
1.20462e-05
3.40672e-08
1.2057e-05
1.28391e-07
1.20656e-05
1.63045e-07
1.20645e-05
1.27642e-07
1.20685e-05
1.02604e-07
1.20639e-05
5.39995e-08
1.2052e-05
-2.32607e-09
1.20445e-05
-8.70808e-10
1.20374e-05
8.62906e-09
1.20254e-05
5.34968e-09
1.20165e-05
2.10558e-09
1.20131e-05
2.13629e-08
1.20114e-05
3.66653e-08
1.20097e-05
4.73703e-08
1.20093e-05
5.18172e-08
5.845e-08
1.20108e-05
1.26515e-05
6.28707e-08
1.26356e-05
-3.05335e-08
1.2638e-05
-2.62329e-08
1.26373e-05
3.142e-08
1.26259e-05
4.54666e-08
1.26341e-05
1.20226e-07
1.26425e-05
1.54624e-07
1.26412e-05
1.28913e-07
1.26431e-05
1.00714e-07
1.2639e-05
5.8108e-08
1.26283e-05
8.41305e-09
1.26204e-05
6.97414e-09
1.26138e-05
1.52286e-08
1.26037e-05
1.5457e-08
1.25952e-05
1.06738e-08
1.25916e-05
2.48804e-08
1.25902e-05
3.80783e-08
1.25891e-05
4.85213e-08
1.25891e-05
5.17808e-08
5.73662e-08
1.25902e-05
1.32552e-05
5.45862e-08
1.32418e-05
-1.71633e-08
1.32417e-05
-2.6051e-08
1.32414e-05
3.16757e-08
1.32327e-05
5.41682e-08
1.32392e-05
1.13707e-07
1.3247e-05
1.469e-07
1.32454e-05
1.30431e-07
1.32456e-05
1.00571e-07
1.32418e-05
6.18931e-08
1.32324e-05
1.78456e-08
1.32245e-05
1.4878e-08
1.32183e-05
2.14071e-08
1.32096e-05
2.41411e-08
1.32017e-05
1.8539e-08
1.3198e-05
2.86557e-08
1.31969e-05
3.91071e-08
1.31962e-05
4.92585e-08
1.31965e-05
5.14563e-08
5.62421e-08
1.31976e-05
1.38878e-05
4.69638e-08
1.38769e-05
-6.27687e-09
1.38746e-05
-2.37683e-08
1.38744e-05
3.1879e-08
1.38678e-05
6.08188e-08
1.38731e-05
1.08357e-07
1.38799e-05
1.40156e-07
1.38783e-05
1.3201e-07
1.38771e-05
1.01776e-07
1.38735e-05
6.54937e-08
1.38654e-05
2.59426e-08
1.38578e-05
2.24835e-08
1.3852e-05
2.71887e-08
1.38444e-05
3.17072e-08
1.38373e-05
2.56175e-08
1.38334e-05
3.25918e-08
1.38326e-05
3.98674e-08
1.38324e-05
4.95402e-08
1.38328e-05
5.09948e-08
5.48673e-08
1.38342e-05
1.45507e-05
3.99778e-08
1.45415e-05
2.8293e-09
1.45379e-05
-2.00747e-08
1.45381e-05
3.167e-08
1.45325e-05
6.63526e-08
1.45363e-05
1.04618e-07
1.45424e-05
1.34031e-07
1.45412e-05
1.33219e-07
1.45391e-05
1.03827e-07
1.45354e-05
6.92424e-08
1.45286e-05
3.27258e-08
1.45217e-05
2.93573e-08
1.45163e-05
3.25698e-08
1.45098e-05
3.82676e-08
1.45034e-05
3.19748e-08
1.44995e-05
3.64769e-08
1.44988e-05
4.06375e-08
1.4499e-05
4.93332e-08
1.44996e-05
5.04202e-08
5.33085e-08
1.45011e-05
1.52449e-05
3.39344e-08
1.52368e-05
1.09322e-08
1.52338e-05
-1.70671e-08
1.5234e-05
3.14801e-08
1.52279e-05
7.24666e-08
1.52297e-05
1.02804e-07
1.52362e-05
1.27559e-07
1.5236e-05
1.33387e-07
1.52334e-05
1.0648e-07
1.52291e-05
7.34532e-08
1.52233e-05
3.86165e-08
1.52174e-05
3.52014e-08
1.52127e-05
3.73141e-08
1.5207e-05
4.39055e-08
1.52014e-05
3.76384e-08
1.51977e-05
4.01121e-08
1.51968e-05
4.15705e-08
1.51974e-05
4.87282e-08
1.51982e-05
4.95811e-08
5.17597e-08
1.51998e-05
1.59736e-05
2.77137e-08
1.59752e-05
9.28613e-09
1.59708e-05
-1.26256e-08
1.59628e-05
3.9439e-08
1.59546e-05
8.06385e-08
1.59553e-05
1.02091e-07
1.59628e-05
1.20143e-07
1.59643e-05
1.31887e-07
1.59613e-05
1.09385e-07
1.59566e-05
7.81913e-08
1.59511e-05
4.41182e-08
1.59463e-05
4.00077e-08
1.59424e-05
4.11947e-08
1.59378e-05
4.85429e-08
1.59329e-05
4.25619e-08
1.59294e-05
4.35256e-08
1.59284e-05
4.25839e-08
1.59291e-05
4.80943e-08
1.59304e-05
4.82996e-08
5.02827e-08
1.59318e-05
1.67351e-05
2.32541e-08
1.6724e-05
2.03353e-08
1.67179e-05
-6.53741e-09
1.67187e-05
3.8634e-08
1.67159e-05
8.34653e-08
1.67166e-05
1.01385e-07
1.67243e-05
1.12455e-07
1.67275e-05
1.28691e-07
1.67247e-05
1.12136e-07
1.67194e-05
8.35672e-08
1.6714e-05
4.95321e-08
1.67097e-05
4.42607e-08
1.67069e-05
4.3976e-08
1.67034e-05
5.20329e-08
1.66993e-05
4.6659e-08
1.66963e-05
4.65924e-08
1.66952e-05
4.36351e-08
1.66958e-05
4.75095e-08
1.66975e-05
4.66349e-08
4.87776e-08
1.6699e-05
1.7535e-05
1.86202e-08
1.75309e-05
2.44132e-08
1.75218e-05
2.60708e-09
1.75175e-05
4.28579e-08
1.75144e-05
8.65827e-08
1.75141e-05
1.01751e-07
1.75215e-05
1.05032e-07
1.75267e-05
1.23487e-07
1.75251e-05
1.13766e-07
1.75193e-05
8.93251e-08
1.75137e-05
5.50923e-08
1.75098e-05
4.81819e-08
1.75078e-05
4.59907e-08
1.75056e-05
5.4265e-08
1.75025e-05
4.97367e-08
1.74998e-05
4.93043e-08
1.74988e-05
4.45787e-08
1.74992e-05
4.71164e-08
1.7501e-05
4.49021e-08
4.69286e-08
1.75028e-05
1.83718e-05
1.51617e-08
1.83655e-05
3.07505e-08
1.83576e-05
1.04381e-08
1.83553e-05
4.5184e-08
1.83532e-05
8.86474e-08
1.83514e-05
1.03587e-07
1.83569e-05
9.9575e-08
1.83636e-05
1.1677e-07
1.83637e-05
1.13698e-07
1.83581e-05
9.48811e-08
1.83522e-05
6.1026e-08
1.83483e-05
5.20326e-08
1.83468e-05
4.75331e-08
1.83457e-05
5.5378e-08
1.83438e-05
5.162e-08
1.83416e-05
5.14492e-08
1.83409e-05
4.53103e-08
1.83413e-05
4.67383e-08
1.83428e-05
4.33442e-08
4.46975e-08
1.83451e-05
1.92495e-05
1.20767e-08
1.92451e-05
3.51093e-08
1.92363e-05