/*--------------------------------*- C++ -*----------------------------------*\
| =========                 |                                                 |
| \\      /  F ield         | OpenFOAM: The Open Source CFD Toolbox           |
|  \\    /   O peration     | Version:  v1812                                 |
|   \\  /    A nd           | Web:      www.OpenFOAM.com                      |
|    \\/     M anipulation  |                                                 |
\*---------------------------------------------------------------------------*/
FoamFile
{
    version     2.0;
    format      ascii;
    class       volScalarField;
    location    "1.2";
    object      p;
}
// * * * * * * * * * * * * * * * * * * * * * * * * * * * * * * * * * * * * * //

dimensions      [0 2 -2 0 0 0 0];


internalField   nonuniform List<scalar> 
9600
(
-1.1426e-10
0.00215634
0.001662
0.00244162
0.00272109
0.00203219
0.00186239
0.0027496
0.00182798
0.00244111
0.00321038
0.00462353
0.00491109
0.00512627
0.00686774
0.00808387
0.00959546
0.0110489
0.0150608
0.019815
5.29631e-07
0.00215557
0.0016669
0.00243831
0.00271465
0.00203156
0.00187416
0.00274822
0.00183357
0.00243987
0.00320681
0.00462212
0.00490684
0.00512519
0.00687175
0.00806759
0.00963026
0.0110059
0.0151775
0.0193582
1.72674e-06
0.00215492
0.00167232
0.00243355
0.00270861
0.00203298
0.00188485
0.00274457
0.00184361
0.00243431
0.00320456
0.00461768
0.00489827
0.00512884
0.00686864
0.00804831
0.00964331
0.0109551
0.0152188
0.0187381
4.05961e-06
0.00215444
0.0016776
0.00242957
0.00270279
0.00203451
0.00189254
0.00273936
0.0018581
0.00242619
0.0032053
0.00461056
0.00488734
0.00513628
0.00686076
0.00802451
0.00965745
0.0109022
0.0151835
0.0182183
7.93117e-06
0.00215382
0.00168348
0.00242605
0.00269589
0.0020363
0.00189816
0.00273278
0.00187784
0.00241628
0.00320773
0.00460071
0.00487556
0.00514405
0.00685541
0.00799848
0.00967186
0.0108414
0.0151194
0.0177536
1.34361e-05
0.00215287
0.00169018
0.00242229
0.00268772
0.00203832
0.00190215
0.00272533
0.00190251
0.00240548
0.00321095
0.00458894
0.00486368
0.00515074
0.00685059
0.00797095
0.00968188
0.0107773
0.0150247
0.017318
2.037e-05
0.00215134
0.0016976
0.00241816
0.00267853
0.00204023
0.00190507
0.00271762
0.00193109
0.00239501
0.00321496
0.00457652
0.00485197
0.0051554
0.00684619
0.00794178
0.00968582
0.0107116
0.0148931
0.0169044
2.83748e-05
0.00214914
0.00170564
0.00241376
0.00266855
0.00204177
0.00190762
0.00270985
0.00196271
0.00238581
0.0032201
0.00456441
0.00484026
0.00515718
0.00684159
0.00791118
0.00968187
0.0106448
0.0147234
0.0165095
3.71229e-05
0.00214632
0.00171425
0.00240915
0.00265803
0.00204288
0.00191037
0.00270202
0.00199675
0.00237822
0.00322662
0.00455299
0.00482828
0.00515556
0.00683598
0.00787983
0.00966797
0.010577
0.0145169
0.0161293
4.64059e-05
0.00214301
0.00172335
0.00240436
0.00264716
0.00204355
0.00191365
0.00269397
0.00203268
0.00237221
0.00323452
0.00454229
0.00481595
0.00515051
0.00682847
0.00784852
0.00964223
0.0105079
0.0142761
0.0157588
5.6128e-05
0.00213933
0.00173291
0.00239939
0.0026361
0.00204486
0.00191766
0.00268557
0.00207002
0.00236755
0.00324353
0.00453218
0.00480316
0.00514243
0.00681818
0.00781771
0.00960305
0.0104367
0.0140045
0.0153918
6.62681e-05
0.00213535
0.00174292
0.00239418
0.00262492
0.00204447
0.00192246
0.00267668
0.00210838
0.00236396
0.00325324
0.00452238
0.00478965
0.00513199
0.00680432
0.00778779
0.00954929
0.0103619
0.0137055
0.0150224
7.68449e-05
0.00213109
0.00175337
0.00238868
0.0026137
0.00204343
0.00192808
0.00266722
0.00214744
0.00236121
0.00326305
0.0045126
0.00477518
0.00511993
0.00678616
0.00775897
0.00948054
0.0102808
0.0133651
0.0146464
8.78949e-05
0.00212654
0.0017643
0.00238282
0.00260251
0.00204165
0.00193452
0.00265716
0.00218692
0.00235917
0.00327231
0.00450277
0.00475943
0.0051069
0.00676304
0.00773077
0.00939743
0.0101907
0.0130245
0.0142613
9.94635e-05
0.00212166
0.00177573
0.00237653
0.0025914
0.00203909
0.0019418
0.00264652
0.00222656
0.0023578
0.00328043
0.00449301
0.00474188
0.00509331
0.00673456
0.00770213
0.00930125
0.010088
0.0126742
0.013866
0.000111603
0.00211636
0.0017877
0.00236978
0.00258044
0.00203571
0.0019499
0.00263537
0.00226613
0.00235724
0.00328683
0.00448354
0.00472204
0.00507931
0.00670071
0.00767133
0.00919346
0.00996978
0.012316
0.0134619
0.000124374
0.00211056
0.00180027
0.00236249
0.0025697
0.00203145
0.00195881
0.00262378
0.0023053
0.00235773
0.00329103
0.00447455
0.00469956
0.00506468
0.00666186
0.00763614
0.00907526
0.00983447
0.011951
0.0130498
0.000137847
0.00210416
0.00181348
0.00235462
0.00255921
0.0020263
0.0019685
0.00261196
0.00234366
0.00235966
0.00329257
0.00446621
0.00467423
0.00504864
0.00661873
0.00759406
0.00894779
0.00968211
0.0115874
0.0126312
0.000152109
0.00209704
0.00182737
0.00234614
0.00254904
0.00202023
0.00197887
0.00260011
0.0023808
0.00236346
0.00329099
0.00445858
0.00464619
0.00503005
0.00657228
0.00754274
0.00881055
0.00951386
0.0112133
0.0122076
0.000167251
0.00208906
0.00184196
0.00233699
0.00253925
0.00201329
0.00198973
0.00258852
0.00241618
0.00236947
0.00328607
0.00445144
0.0046158
0.0050077
0.00652332
0.00748093
0.00866254
0.00933141
0.0108358
0.0117801
0.000183378
0.00208006
0.0018573
0.00232714
0.00252985
0.00200557
0.00200084
0.00257756
0.00244926
0.00237787
0.00327779
0.00444443
0.00458362
0.00497998
0.00647184
0.00740774
0.00850217
0.00913666
0.0104562
0.0113487
0.000200609
0.00206988
0.00187339
0.00231661
0.0025208
0.0019972
0.00201188
0.00256761
0.00247959
0.00238877
0.00326621
0.00443679
0.00455047
0.00494542
0.00641697
0.00732378
0.00832852
0.00893074
0.0100765
0.0109134
0.000219075
0.00205836
0.00189021
0.0023054
0.00251208
0.00198844
0.00202246
0.00255907
0.00250681
0.00240217
0.00325163
0.00442723
0.00451727
0.0049033
0.00635748
0.0072259
0.00814091
0.00871394
0.0096996
0.0104744
0.000238914
0.0020453
0.00190774
0.00229355
0.00250358
0.0019796
0.00203211
0.00255225
0.00253071
0.00241772
0.00323463
0.00441456
0.00448455
0.00485323
0.00629178
0.00712737
0.0079392
0.00848584
0.00932822
0.0100327
0.000260267
0.00203054
0.00192591
0.00228116
0.00249515
0.00197102
0.00204038
0.00254729
0.00255125
0.00243488
0.00321605
0.00439768
0.00445241
0.0047949
0.00621807
0.00702298
0.00772448
0.00824508
0.00896392
0.00959021
0.000283294
0.00201391
0.00194459
0.00226839
0.00248655
0.00196315
0.00204696
0.00254413
0.00256858
0.00245296
0.00319655
0.00437567
0.00442052
0.00472853
0.00613443
0.00691244
0.00749882
0.00799096
0.00860762
0.00914951
0.000308154
0.00199526
0.0019636
0.00225544
0.00247749
0.00195644
0.00205161
0.00254262
0.00258307
0.00247082
0.00317659
0.00434802
0.00438815
0.00465484
0.00603912
0.00679547
0.00726476
0.00772324
0.00825978
0.00871329
0.000334995
0.0019745
0.0019827
0.00224253
0.00246765
0.00195128
0.00205419
0.0025425
0.00259518
0.00248759
0.00315635
0.00431438
0.00435421
0.00457424
0.00593092
0.00667209
0.007025
0.00744144
0.00791982
0.0082854
0.000363961
0.00195159
0.00200153
0.00222993
0.00245678
0.00194796
0.00205478
0.00254329
0.00260517
0.00250264
0.00313593
0.0042745
0.00431754
0.00448707
0.00580893
0.00654218
0.00678266
0.00714533
0.00758568
0.00787145
0.000395181
0.00192654
0.00201967
0.0022179
0.00244464
0.0019467
0.00205362
0.0025444
0.00261337
0.00251531
0.0031152
0.00422828
0.00427675
0.00439378
0.00567266
0.00640506
0.00654109
0.00683588
0.00725361
0.00747725
0.000428764
0.00189946
0.00203662
0.00220666
0.00243114
0.00194756
0.00205096
0.00254528
0.00262007
0.00252509
0.00309359
0.00417566
0.00423042
0.0042945
0.00552276
0.00626015
0.00630283
0.00651572
0.00691782
0.00710507
0.000464772
0.00187056
0.00205184
0.00219634
0.00241639
0.00195042
0.00204705
0.00254555
0.00262546
0.00253137
0.00307021
0.00411685
0.00417753
0.0041894
0.00536022
0.00610677
0.00606934
0.00618873
0.00657262
0.00675193
0.000503223
0.00184037
0.00206486
0.00218695
0.00240053
0.00195505
0.00204208
0.00254485
0.00262968
0.00253343
0.00304386
0.00405225
0.00411762
0.00407866
0.00518605
0.0059445
0.00584077
0.00585891
0.00621618
0.00641098
0.000544161
0.00180919
0.00207497
0.00217835
0.00238373
0.00196139
0.00203618
0.00254278
0.00263279
0.00253076
0.00301329
0.00398191
0.00405059
0.00396254
0.00500132
0.00577308
0.00561671
0.00552977
0.00585012
0.00607334
0.000587572
0.00177742
0.00208197
0.00217035
0.002366
0.00196943
0.00202959
0.00253875
0.00263492
0.00252295
0.00297696
0.0039056
0.00397704
0.00384198
0.00480648
0.00559167
0.00539753
0.00520432
0.00547697
0.00573199
0.000633352
0.00174549
0.00208546
0.00216271
0.00234714
0.00197929
0.00202266
0.00253186
0.00263636
0.00250981
0.002933
0.00382321
0.00389819
0.00371814
0.00460183
0.00539912
0.00518361
0.00488484
0.00509893
0.00538363
0.000681375
0.00171383
0.00208546
0.00215513
0.00232663
0.00199109
0.00201589
0.00252101
0.00263698
0.00249161
0.00287996
0.00373422
0.00381525
0.0035918
0.00438769
0.00519413
0.00497463
0.00457391
0.00471816
0.0050275
0.00073148
0.00168282
0.00208211
0.00214731
0.0023037
0.00200459
0.00200997
0.00250504
0.00263606
0.00246979
0.00281742
0.00363761
0.00372896
0.00346415
0.00416472
0.00497499
0.00476947
0.00427471
0.004337
0.00466381
0.000783459
0.0016528
0.00207545
0.00213939
0.00227757
0.00201923
0.00200585
0.00248272
0.00263216
0.00244651
0.0027462
0.003532
0.00363874
0.00333738
0.00393469
0.00473956
0.0045656
0.00399035
0.0039586
0.00429294
0.000837089
0.00162414
0.00206554
0.00213173
0.00224762
0.00203372
0.00200495
0.00245338
0.00262273
0.00242412
0.00266892
0.0034159
0.0035426
0.00321277
0.00370062
0.00448685
0.00435856
0.00372268
0.00358719
0.00391539
0.000892162
0.00159714
0.00205238
0.00212507
0.00221334
0.00204547
0.00200818
0.00241753
0.00260493
0.00240332
0.00258892
0.00328893
0.00343777
0.00309018
0.00346657
0.00421824
0.00414319
0.00347158
0.00322796
0.00353174
0.0009484
0.00157213
0.00203584
0.00212022
0.00217412
0.00205111
0.00201522
0.00237719
0.00257665
0.00238318
0.00250995
0.00315207
0.00332149
0.00296852
0.00323592
0.00393684
0.00391615
0.00323487
0.00288636
0.00314375
0.00100543
0.00154954
0.00201577
0.00211756
0.00213247
0.0020474
0.00202486
0.00233523
0.00253686
0.00236139
0.00243464
0.00300798
0.00319172
0.00284517
0.00301063
0.00364694
0.00367645
0.0030083
0.00256635
0.00275618
0.00106286
0.00152982
0.0019919
0.00211699
0.00208997
0.00203182
0.0020346
0.00229459
0.002486
0.00233372
0.00236349
0.00286075
0.00304801
0.00271665
0.00279142
0.00335256
0.00342448
0.00278746
0.00226961
0.00237703
0.00112017
0.00151351
0.00196399
0.00211834
0.0020491
0.00200289
0.00204077
0.00225752
0.00242572
0.00229625
0.00229567
0.00271485
0.0028922
0.00257947
0.00257739
0.00305677
0.00316125
0.00256945
0.00199549
0.0020145
0.00117681
0.00150118
0.00193192
0.00212076
0.00201248
0.00195986
0.00203874
0.00222543
0.00235889
0.00224623
0.00222828
0.00257335
0.00272836
0.00243164
0.00236621
0.00276198
0.00288791
0.00235183
0.00174171
0.00167359
0.00123216
0.00149338
0.00189588
0.00212315
0.00198219
0.00190377
0.00202333
0.00219843
0.00227973
0.00218237
0.00215629
0.00243669
0.00256118
0.00227412
0.00215559
0.00246984
0.00260554
0.00213178
0.00150613
0.00135624
0.00128564
0.00149059
0.00185619
0.00211886
0.00195998
0.00183834
0.00199004
0.00217481
0.00221335
0.00210576
0.00207445
0.00230339
0.00239479
0.00211004
0.00194462
0.00218051
0.00231528
0.00190583
0.00128653
0.00106399
0.00133667
0.00149306
0.00181354
0.0021072
0.00194677
0.00176871
0.00193581
0.00214921
0.0021568
0.00202079
0.00197947
0.00216966
0.00223134
0.00194372
0.00173423
0.00189403
0.00201881
0.0016708
0.00107824
0.000798645
0.00138464
0.00150077
0.00176935
0.00208531
0.00194169
0.00170152
0.00185959
0.00211358
0.00210946
0.00193494
0.00187211
0.00202996
0.00206984
0.00177875
0.00152644
0.00161178
0.00171862
0.00142577
0.000874009
0.000559247
0.00142894
0.00151342
0.00172578
0.00205124
0.00194196
0.00164327
0.00176285
0.00206186
0.00207082
0.00185614
0.00175516
0.00187988
0.00190652
0.00161606
0.00132519
0.00133642
0.00141715
0.00117214
0.000667189
0.000339617
0.00146904
0.00153047
0.00168512
0.00200427
0.00194114
0.00159857
0.00165254
0.00198254
0.00203308
0.0017895
0.00163524
0.00171926
0.00173632
0.00145388
0.0011328
0.00107197
0.00111745
0.000912076
0.000455395
0.000130683
0.00150464
0.00155086
0.00164945
0.00194337
0.00193902
0.00156874
0.0015401
0.00187452
0.00198293
0.00173439
0.00152246
0.00155127
0.00155559
0.00128849
0.00094754
0.000822349
0.000824088
0.000647954
0.00023997
-7.44995e-05
0.00153569
0.00157286
0.00162034
0.00187321
0.00191287
0.00155297
0.00143633
0.00173868
0.00190868
0.00168737
0.00142385
0.00138241
0.00136415
0.00111506
0.000766321
0.000587363
0.000542608
0.000383582
2.36192e-05
-0.000277449
0.00156234
0.00159454
0.00159823
0.00179652
0.0018697
0.00154408
0.00134791
0.0015853
0.00180287
0.00163757
0.00134103
0.00122323
0.00116603
0.000930258
0.000584622
0.000364066
0.000275343
0.000122829
-0.000191308
-0.000475061
0.00158466
0.001614
0.00158252
0.00171733
0.00180858
0.00153026
0.00127741
0.00143085
0.00166585
0.00156849
0.00127109
0.00108196
0.000968748
0.000735085
0.000398117
0.000149185
2.14314e-05
-0.000131582
-0.000403801
-0.000663402
0.00160271
0.00162971
0.00157205
0.00163946
0.00173036
0.00150688
0.00122589
0.0012863
0.00150184
0.00146891
0.00120319
0.00096059
0.000783323
0.000534575
0.000204121
-6.18225e-05
-0.000220695
-0.000378685
-0.000614548
-0.000841782
0.0016167
0.00164024
0.00156467
0.00156657
0.0016377
0.00146878
0.00118486
0.00115902
0.00132456
0.00133752
0.00112106
0.000855347
0.000618403
0.000338075
5.12375e-06
-0.000273057
-0.00045388
-0.000617918
-0.000824438
-0.00101307
0.00162681
0.00164475
0.00155754
0.00150068
0.00153671
0.0014117
0.00114573
0.00105156
0.00115047
0.00117789
0.00101388
0.000755446
0.00047438
0.000156245
-0.000192543
-0.000485438
-0.000681706
-0.000849344
-0.00103348
-0.00118143
0.0016331
0.00164293
0.00154748
0.00144198
0.00143354
0.00133561
0.00109966
0.000962017
0.000989586
0.00100084
0.00087893
0.000646975
0.000346667
-5.29016e-06
-0.000378732
-0.000694085
-0.000906958
-0.00107428
-0.00124102
-0.00135105
0.00163559
0.00163482
0.00153199
0.00138976
0.00133256
0.00124297
0.00104088
0.000882149
0.000845181
0.000821674
0.000719856
0.000520216
0.000225443
-0.000147898
-0.000545697
-0.000890756
-0.00112744
-0.00129446
-0.00144554
-0.0015241
0.00163397
0.00162089
0.00150997
0.00134118
0.00123661
0.0011385
0.000966172
0.000803804
0.000716437
0.0006511
0.000545938
0.000372422
9.97055e-05
-0.000275962
-0.000692276
-0.001067
-0.00133656
-0.00150966
-0.00164521
-0.00169948
0.00162775
0.00160177
0.00148111
0.00130215
0.00114698
0.00102781
0.000875437
0.000720254
0.000600151
0.000493432
0.000370604
0.000208471
-3.83622e-05
-0.000397775
-0.000820889
-0.00121868
-0.00152452
-0.00171527
-0.00183812
-0.00187312
0.00161633
0.00157476
0.00144482
0.00125117
0.00106312
0.000916042
0.000770655
0.000626764
0.000489861
0.000348874
0.000202511
3.68163e-05
-0.000189704
-0.000521706
-0.000935805
-0.00134736
-0.00168489
-0.00190347
-0.00202135
-0.00203901
0.00159942
0.00154684
0.00140191
0.00119604
0.000983743
0.000806706
0.000655624
0.000521131
0.000379148
0.000215733
4.58449e-05
-0.000131618
-0.0003477
-0.000652209
-0.00104404
-0.00145644
-0.00181607
-0.00206536
-0.00218986
-0.00219345
0.00157646
0.00151429
0.00135377
0.00113538
0.000905108
0.000700698
0.000535504
0.000404096
0.000263129
8.99449e-05
-9.87051e-05
-0.0002907
-0.000504303
-0.000785805
-0.00114984
-0.00154984
-0.0019192
-0.0021951
-0.00233626
-0.00233312
0.00154724
0.00147686
0.00130142
0.00106928
0.000823986
0.000596642
0.00041406
0.000278323
0.000139491
-3.37399e-05
-0.00023236
-0.000437512
-0.000652409
-0.000915244
-0.00125151
-0.00163089
-0.0019968
-0.00228989
-0.00245173
-0.00245114
0.0015117
0.00143429
0.00124519
0.00099796
0.00073892
0.00049304
0.000292165
0.000146288
7.9154e-06
-0.00015949
-0.000358011
-0.000570987
-0.000787828
-0.00103381
-0.00134139
-0.00169601
-0.00204898
-0.00234811
-0.00252892
-0.00253873
0.00146994
0.00138628
0.00118547
0.00092235
0.000648385
0.000387185
0.000169465
9.96719e-06
-0.000131028
-0.000290021
-0.000480728
-0.000692495
-0.000907995
-0.00113725
-0.00141306
-0.00173789
-0.00207025
-0.00236411
-0.00255789
-0.00258324
0.00142221
0.00133286
0.00112183
0.00084308
0.000552908
0.000276563
4.38451e-05
-0.000130094
-0.000276844
-0.000427368
-0.000605104
-0.000805649
-0.00101111
-0.00122131
-0.00146143
-0.00174741
-0.002049
-0.00232455
-0.00252061
-0.00256263
0.00136897
0.00127438
0.00105409
0.000759756
0.000452697
0.000161696
-8.62364e-05
-0.000276023
-0.000431221
-0.000575353
-0.000737113
-0.000917048
-0.00109841
-0.00128074
-0.0014788
-0.00171468
-0.00197121
-0.00221073
-0.00238963
-0.00243736
0.00131082
0.00121084
0.000981539
0.000672875
0.000347947
4.19774e-05
-0.000220938
-0.000428769
-0.000596648
-0.000739844
-0.000888229
-0.00104181
-0.00118258
-0.00131519
-0.0014519
-0.00161599
-0.00181
-0.00200196
-0.00215088
-0.00219016
0.00125046
0.00114246
0.000902803
0.00058163
0.000240275
-8.25845e-05
-0.000362242
-0.000589139
-0.000773411
-0.000923895
-0.00106678
-0.00120374
-0.0013093
-0.00136828
-0.00138643
-0.00138706
-0.00140571
-0.00146704
-0.0015766
-0.00168855
0.00118837
0.00106977
0.000819365
0.000485709
0.000128596
-0.000211262
-0.000509392
-0.000758808
-0.000963729
-0.00112951
-0.00127581
-0.00140396
-0.00151114
-0.00158076
-0.00158352
-0.00145963
-0.00113726
-0.000632383
-0.000101666
0.000271691
0.00112085
0.000995815
0.000736077
0.000388816
1.20754e-05
-0.000348307
-0.000664006
-0.000934742
-0.00116509
-0.00135832
-0.00152123
-0.00162714
-0.00164012
-0.00150414
-0.00115858
-0.00062002
-2.30501e-05
0.000472642
0.000752655
0.000766104
0.00104936
0.000920622
0.000654505
0.000294935
-0.000106479
-0.000496193
-0.000838456
-0.0011267
-0.00135886
-0.00153245
-0.00164926
-0.0016606
-0.00147591
-0.00109008
-0.000603026
-0.000133635
0.000243657
0.00051079
0.000656465
0.000628557
0.000978696
0.00084227
0.000570896
0.000206215
-0.00020684
-0.000625703
-0.00102914
-0.00138547
-0.00164886
-0.00175439
-0.00164179
-0.0013329
-0.000929631
-0.000521055
-0.000134188
0.000219186
0.000517675
0.000738264
0.000836749
0.000753854
0.000912953
0.000768832
0.000481318
9.85124e-05
-0.000318782
-0.000709568
-0.00103371
-0.00127267
-0.00142808
-0.00151272
-0.00155326
-0.00155526
-0.00147132
-0.00124878
-0.000838092
-0.000242846
0.000389127
0.00088423
0.00113101
0.00108517
0.000853564
0.000706023
0.000422558
3.76243e-05
-0.000408959
-0.000866951
-0.0012829
-0.00158222
-0.00169827
-0.00161137
-0.00136718
-0.00103876
-0.000673375
-0.000305307
3.26846e-05
0.000331038
0.000571327
0.000734844
0.0007903
0.000669352
0.00080128
0.000639791
0.000340943
-5.19994e-05
-0.000487471
-0.000904486
-0.0012623
-0.00151857
-0.00163922
-0.00160869
-0.00141754
-0.00111663
-0.0007862
-0.000464486
-0.00017601
8.25527e-05
0.000314101
0.000496214
0.000580575
0.0004947
0.0285814
0.0199692
0.00921113
0.00141282
-0.00151292
-0.00125223
-0.000668797
-0.000813455
-0.0012592
-0.00156751
-0.00183824
-0.00214505
-0.0023873
-0.00262429
-0.00296289
-0.00332394
-0.00360893
-0.00385916
-0.00412451
-0.0044028
-0.00470681
-0.00501911
-0.00528817
-0.00553151
-0.00579993
-0.00609506
-0.00638591
-0.00665931
-0.00693534
-0.00722586
-0.00751385
-0.00779392
-0.00808103
-0.00837297
-0.00866307
-0.00895387
-0.00925273
-0.00955577
-0.00986778
-0.0101888
-0.0105059
-0.0108236
-0.0111588
-0.011506
-0.0118381
-0.0121627
-0.0125051
-0.0128616
-0.0132144
-0.0135681
-0.0139394
-0.01432
-0.0147106
-0.0151111
-0.0155118
-0.0159053
-0.0162991
-0.0167033
-0.0171076
-0.0175271
-0.0179656
-0.018414
-0.0188745
-0.019334
-0.0197938
-0.0202528
-0.0207256
-0.0212098
-0.0216969
-0.0222008
-0.0227046
-0.0232215
-0.0237511
-0.0242757
-0.0248158
-0.0253577
-0.0259127
-0.0264788
-0.0270336
-0.0276232
-0.0282212
-0.0288128
-0.0294428
-0.0300461
-0.0306584
-0.0313191
-0.0319516
-0.0325915
-0.0332802
-0.0339351
-0.0345863
-0.0353005
-0.0360105
-0.0366906
-0.0374179
-0.0381612
-0.0388968
-0.0396355
-0.0403441
-0.0410654
0.0270465
0.0197683
0.00929011
0.00154891
-0.00142108
-0.00120523
-0.000639274
-0.00079409
-0.00124618
-0.00155753
-0.00183001
-0.00213828
-0.00238134
-0.00261872
-0.00295793
-0.0033197
-0.00360515
-0.00385569
-0.00412136
-0.0043999
-0.00470416
-0.00501678
-0.00528607
-0.00552953
-0.00579807
-0.00609336
-0.00638437
-0.00665787
-0.00693397
-0.00722458
-0.00751266
-0.00779279
-0.00807995
-0.00837196
-0.00866211
-0.00895295
-0.00925185
-0.00955492
-0.00986696
-0.010188
-0.0105052
-0.0108229
-0.0111581
-0.0115054
-0.0118375
-0.0121621
-0.0125045
-0.0128611
-0.0132139
-0.0135677
-0.0139389
-0.0143196
-0.0147102
-0.0151107
-0.0155114
-0.015905
-0.0162988
-0.016703
-0.0171073
-0.0175268
-0.0179653
-0.0184137
-0.0188742
-0.0193337
-0.0197936
-0.0202526
-0.0207254
-0.0212096
-0.0216967
-0.0222006
-0.0227044
-0.0232213
-0.0237509
-0.0242756
-0.0248156
-0.0253575
-0.0259126
-0.0264786
-0.0270335
-0.0276231
-0.0282211
-0.0288127
-0.0294426
-0.030046
-0.0306583
-0.0313191
-0.0319515
-0.0325914
-0.0332802
-0.0339351
-0.0345863
-0.0353004
-0.0360105
-0.0366906
-0.0374178
-0.0381612
-0.0388967
-0.0396355
-0.0403441
-0.0410654
0.025851
0.0196522
0.0094879
0.00181137
-0.00126363
-0.00114593
-0.000611927
-0.000772714
-0.00122821
-0.00154323
-0.00181905
-0.00213003
-0.00237482
-0.00261316
-0.00295309
-0.00331544
-0.00360132
-0.00385227
-0.00411835
-0.00439716
-0.00470166
-0.00501457
-0.00528408
-0.00552766
-0.00579636
-0.00609182
-0.00638296
-0.00665656
-0.00693273
-0.00722345
-0.00751161
-0.00779179
-0.00807901
-0.00837107
-0.00866127
-0.00895215
-0.00925109
-0.00955419
-0.00986625
-0.0101873
-0.0105045
-0.0108223
-0.0111575
-0.0115048
-0.011837
-0.0121616
-0.012504
-0.0128606
-0.0132134
-0.0135672
-0.0139385
-0.0143192
-0.0147098
-0.0151103
-0.0155111
-0.0159047
-0.0162985
-0.0167027
-0.017107
-0.0175265
-0.0179651
-0.0184134
-0.018874
-0.0193335
-0.0197934
-0.0202524
-0.0207252
-0.0212094
-0.0216965
-0.0222004
-0.0227043
-0.0232212
-0.0237508
-0.0242754
-0.0248155
-0.0253574
-0.0259125
-0.0264785
-0.0270333
-0.0276229
-0.028221
-0.0288126
-0.0294425
-0.0300459
-0.0306582
-0.031319
-0.0319515
-0.0325913
-0.0332801
-0.033935
-0.0345862
-0.0353004
-0.0360105
-0.0366905
-0.0374178
-0.0381612
-0.0388967
-0.0396355
-0.0403441
-0.0410654
0.0247598
0.0194977
0.00971202
0.0021251
-0.00105839
-0.00106724
-0.000575612
-0.000741501
-0.00119983
-0.00152067
-0.00180213
-0.00211738
-0.00236552
-0.00260615
-0.00294709
-0.00330979
-0.00359613
-0.00384786
-0.00411466
-0.00439385
-0.00469853
-0.00501171
-0.00528153
-0.0055254
-0.00579433
-0.00608997
-0.00638128
-0.00665503
-0.00693134
-0.00722218
-0.00751044
-0.00779069
-0.00807799
-0.00837012
-0.00866038
-0.0089513
-0.00925029
-0.00955343
-0.00986551
-0.0101866
-0.0105039
-0.0108216
-0.0111569
-0.0115043
-0.0118365
-0.0121611
-0.0125035
-0.0128602
-0.013213
-0.0135668
-0.0139381
-0.0143188
-0.0147095
-0.01511
-0.0155107
-0.0159044
-0.0162982
-0.0167024
-0.0171067
-0.0175262
-0.0179648
-0.0184132
-0.0188737
-0.0193333
-0.0197932
-0.0202522
-0.020725
-0.0212092
-0.0216964
-0.0222002
-0.0227041
-0.023221
-0.0237506
-0.0242753
-0.0248153
-0.0253573
-0.0259123
-0.0264784
-0.0270332
-0.0276228
-0.0282209
-0.0288125
-0.0294425
-0.0300458
-0.0306581
-0.0313189
-0.0319514
-0.0325913
-0.03328
-0.033935
-0.0345862
-0.0353003
-0.0360104
-0.0366905
-0.0374178
-0.0381611
-0.0388967
-0.0396355
-0.0403441
-0.0410656
0.0236632
0.0192652
0.00992634
0.00244992
-0.00083668
-0.000980204
-0.000535938
-0.000703754
-0.0011621
-0.00148953
-0.00177812
-0.00209873
-0.00235196
-0.00259662
-0.00293905
-0.00330185
-0.00358877
-0.00384178
-0.00410981
-0.00438959
-0.00469436
-0.00500764
-0.00527792
-0.00552238
-0.00579167
-0.00608745
-0.00637896
-0.006653
-0.00692955
-0.00722056
-0.00750895
-0.00778934
-0.00807677
-0.00836898
-0.0086593
-0.00895031
-0.00924939
-0.00955256
-0.00986466
-0.0101858
-0.0105031
-0.0108209
-0.0111562
-0.0115036
-0.0118358
-0.0121605
-0.0125029
-0.0128596
-0.0132125
-0.0135663
-0.0139377
-0.0143184
-0.014709
-0.0151096
-0.0155104
-0.015904
-0.0162978
-0.0167021
-0.0171064
-0.0175259
-0.0179645
-0.0184129
-0.0188735
-0.0193331
-0.0197929
-0.020252
-0.0207247
-0.021209
-0.0216961
-0.0222
-0.0227039
-0.0232208
-0.0237504
-0.0242751
-0.0248152
-0.0253571
-0.0259122
-0.0264783
-0.0270331
-0.0276227
-0.0282208
-0.0288123
-0.0294423
-0.0300457
-0.030658
-0.0313188
-0.0319513
-0.0325912
-0.03328
-0.0339349
-0.0345861
-0.0353003
-0.0360104
-0.0366904
-0.0374177
-0.0381611
-0.0388966
-0.0396355
-0.0403441
-0.0410658
0.0225688
0.018967
0.0101328
0.00278021
-0.000606257
-0.000889403
-0.000497211
-0.000664758
-0.00112008
-0.00145348
-0.00174934
-0.00207544
-0.00233469
-0.00258457
-0.00292878
-0.00329148
-0.00357911
-0.00383388
-0.00410362
-0.00438428
-0.00468899
-0.00500215
-0.00527304
-0.00551847
-0.00578825
-0.00608409
-0.00637579
-0.00665027
-0.00692721
-0.00721841
-0.007507
-0.00778762
-0.00807524
-0.00836756
-0.00865797
-0.00894911
-0.00924833
-0.00955156
-0.00986363
-0.0101848
-0.0105022
-0.0108201
-0.0111554
-0.0115027
-0.011835
-0.0121597
-0.0125023
-0.012859
-0.0132118
-0.0135657
-0.0139371
-0.0143178
-0.0147085
-0.0151091
-0.0155099
-0.0159036
-0.0162975
-0.0167017
-0.017106
-0.0175255
-0.0179642
-0.0184126
-0.0188732
-0.0193328
-0.0197927
-0.0202517
-0.0207245
-0.0212088
-0.0216959
-0.0221998
-0.0227037
-0.0232206
-0.0237503
-0.0242749
-0.024815
-0.0253569
-0.025912
-0.0264781
-0.0270329
-0.0276225
-0.0282206
-0.0288122
-0.0294422
-0.0300456
-0.0306578
-0.0313187
-0.0319512
-0.0325911
-0.0332799
-0.0339348
-0.034586
-0.0353002
-0.0360103
-0.0366904
-0.0374177
-0.038161
-0.0388966
-0.0396354
-0.0403442
-0.0410661
0.0214947
0.0186165
0.0103306
0.00311339
-0.000368659
-0.000794942
-0.000459892
-0.000626336
-0.00107616
-0.00141474
-0.00171793
-0.00204954
-0.00231514
-0.00257069
-0.00291675
-0.0032792
-0.00356764
-0.00382448
-0.00409628
-0.00437801
-0.00468253
-0.00499534
-0.00526699
-0.00551372
-0.0057841
-0.00607988
-0.00637173
-0.00664679
-0.00692421
-0.00721563
-0.00750444
-0.00778542
-0.00807333
-0.00836578
-0.00865631
-0.00894765
-0.00924707
-0.00955036
-0.00986237
-0.0101836
-0.0105012
-0.0108192
-0.0111545
-0.0115017
-0.0118341
-0.0121589
-0.0125015
-0.0128582
-0.013211
-0.0135649
-0.0139364
-0.0143172
-0.014708
-0.0151086
-0.0155094
-0.0159032
-0.016297
-0.0167013
-0.0171055
-0.0175251
-0.0179638
-0.0184122
-0.0188729
-0.0193324
-0.0197923
-0.0202514
-0.0207242
-0.0212085
-0.0216956
-0.0221996
-0.0227035
-0.0232204
-0.02375
-0.0242747
-0.0248148
-0.0253567
-0.0259118
-0.0264779
-0.0270327
-0.0276223
-0.0282205
-0.028812
-0.0294421
-0.0300455
-0.0306577
-0.0313186
-0.0319511
-0.0325909
-0.0332798
-0.0339347
-0.0345859
-0.0353001
-0.0360103
-0.0366903
-0.0374176
-0.038161
-0.0388965
-0.0396354
-0.0403443
-0.0410665
0.0204543
0.0182171
0.0105113
0.00344559
-0.000123645
-0.000694973
-0.000423131
-0.00058887
-0.00103094
-0.00137387
-0.00168469
-0.0020221
-0.0022942
-0.00255561
-0.00290356
-0.00326568
-0.00355498
-0.00381405
-0.00408807
-0.00437099
-0.00467524
-0.00498757
-0.00526003
-0.0055083
-0.00577937
-0.00607499
-0.00636695
-0.00664266
-0.00692062
-0.00721221
-0.00750127
-0.0077827
-0.00807097
-0.00836361
-0.00865429
-0.00894587
-0.00924557
-0.00954897
-0.00986084
-0.010182
-0.0104998
-0.0108182
-0.0111534
-0.0115005
-0.0118329
-0.012158
-0.0125007
-0.0128573
-0.0132101
-0.013564
-0.0139356
-0.0143164
-0.0147072
-0.0151079
-0.0155088
-0.0159026
-0.0162965
-0.0167008
-0.017105
-0.0175245
-0.0179633
-0.0184118
-0.0188724
-0.019332
-0.019792
-0.0202511
-0.0207239
-0.0212082
-0.0216953
-0.0221993
-0.0227032
-0.0232201
-0.0237498
-0.0242744
-0.0248145
-0.0253565
-0.0259115
-0.0264777
-0.0270325
-0.0276221
-0.0282203
-0.0288118
-0.0294419
-0.0300453
-0.0306575
-0.0313184
-0.031951
-0.0325908
-0.0332796
-0.0339346
-0.0345858
-0.0353
-0.0360101
-0.0366902
-0.0374175
-0.0381609
-0.0388965
-0.0396354
-0.0403444
-0.0410669
0.0194563
0.0177686
0.010666
0.00377513
0.000130998
-0.000586911
-0.000385968
-0.000552775
-0.00098494
-0.00133115
-0.00164991
-0.00199352
-0.00227229
-0.00253972
-0.00288967
-0.00325143
-0.00354156
-0.0038029
-0.00407923
-0.0043634
-0.00466738
-0.00497916
-0.00525248
-0.00550238
-0.0057742
-0.00606964
-0.00636168
-0.00663808
-0.00691658
-0.00720828
-0.00749755
-0.00777948
-0.00806818
-0.00836102
-0.0086519
-0.0089438
-0.00924385
-0.00954738
-0.00985908
-0.0101801
-0.0104983
-0.0108169
-0.011152
-0.0114989
-0.0118315
-0.0121569
-0.0124997
-0.0128562
-0.013209
-0.013563
-0.0139346
-0.0143155
-0.0147063
-0.015107
-0.015508
-0.015902
-0.016296
-0.0167002
-0.0171043
-0.0175238
-0.0179627
-0.0184112
-0.0188719
-0.0193315
-0.0197915
-0.0202506
-0.0207235
-0.0212078
-0.0216949
-0.0221989
-0.0227029
-0.0232198
-0.0237495
-0.0242741
-0.0248143
-0.0253562
-0.0259113
-0.0264774
-0.0270322
-0.0276218
-0.02822
-0.0288115
-0.0294416
-0.030045
-0.0306572
-0.0313182
-0.0319507
-0.0325906
-0.0332794
-0.0339344
-0.0345856
-0.0352998
-0.03601
-0.03669
-0.0374174
-0.0381608
-0.0388964
-0.0396353
-0.0403445
-0.0410675
0.018506
0.0172739
0.0107891
0.00410176
0.000397001
-0.000469039
-0.000348025
-0.000518934
-0.000939043
-0.00128687
-0.00161361
-0.00196383
-0.00224955
-0.00252324
-0.00287531
-0.00323667
-0.00352755
-0.00379117
-0.00406987
-0.00435535
-0.00465909
-0.00497031
-0.00524448
-0.0054961
-0.00576871
-0.00606395
-0.00635608
-0.00663321
-0.00691226
-0.00720401
-0.00749344
-0.00777588
-0.00806503
-0.00835809
-0.00864919
-0.00894145
-0.0092419
-0.00954561
-0.00985713
-0.010178
-0.0104964
-0.0108155
-0.0111505
-0.0114971
-0.0118299
-0.0121557
-0.0124987
-0.0128551
-0.0132079
-0.0135619
-0.0139335
-0.0143144
-0.0147052
-0.0151059
-0.0155071
-0.0159013
-0.0162954
-0.0166996
-0.0171036
-0.0175231
-0.0179619
-0.0184106
-0.0188713
-0.0193309
-0.0197909
-0.0202501
-0.020723
-0.0212073
-0.0216944
-0.0221985
-0.0227025
-0.0232194
-0.0237491
-0.0242738
-0.0248139
-0.0253559
-0.0259109
-0.026477
-0.0270318
-0.0276215
-0.0282197
-0.0288112
-0.0294413
-0.0300447
-0.0306569
-0.0313179
-0.0319505
-0.0325903
-0.0332792
-0.0339341
-0.0345854
-0.0352996
-0.0360098
-0.0366899
-0.0374172