/*--------------------------------*- C++ -*----------------------------------*\
| =========                 |                                                 |
| \\      /  F ield         | OpenFOAM: The Open Source CFD Toolbox           |
|  \\    /   O peration     | Version:  v1906                                 |
|   \\  /    A nd           | Web:      www.OpenFOAM.com                      |
|    \\/     M anipulation  |                                                 |
\*---------------------------------------------------------------------------*/
FoamFile
{
    version     2.0;
    format      ascii;
    class       volVectorField;
    location    "1.2";
    object      U;
}
// * * * * * * * * * * * * * * * * * * * * * * * * * * * * * * * * * * * * * //

dimensions      [0 1 -1 0 0 0 0];


internalField   nonuniform List<vector> 
9600
(
(0.856468 -0.00397515 0)
(1.14122 0.00312303 0)
(0.875056 -0.00177442 0)
(1.1609 0.00229942 0)
(0.854831 -0.00131246 0)
(1.10129 0.00186443 0)
(0.899845 -0.00340206 0)
(1.15387 -0.00859831 0)
(0.89457 -0.00318493 0)
(1.1649 0.0023656 0)
(0.896052 0.00269901 0)
(1.12408 0.0103204 0)
(0.907861 0.00870736 0)
(1.09496 0.00569986 0)
(0.916647 -0.000446833 0)
(1.08189 -0.00446722 0)
(0.907504 0.00130996 0)
(1.09117 -0.0110942 0)
(0.884361 0.00187517 0)
(1.10367 -0.0157932 0)
(0.867523 -0.00403243 0)
(1.13215 0.00313239 0)
(0.890233 -0.00210859 0)
(1.14918 0.00262417 0)
(0.875619 -0.000880774 0)
(1.0891 0.001582 0)
(0.920366 -0.00427117 0)
(1.1354 -0.00835392 0)
(0.915229 -0.00359255 0)
(1.14451 0.00252001 0)
(0.923511 0.00307537 0)
(1.09767 0.0103053 0)
(0.945659 0.00909763 0)
(1.05753 0.00565312 0)
(0.966828 -0.00018731 0)
(1.03041 -0.00424953 0)
(0.974172 0.00101613 0)
(1.01629 -0.0110359 0)
(0.979096 0.00210102 0)
(0.99479 -0.0173877 0)
(0.887227 -0.0040953 0)
(1.11338 0.00307402 0)
(0.915574 -0.00237473 0)
(1.12594 0.00292986 0)
(0.908974 -0.000516712 0)
(1.06805 0.00129843 0)
(0.949863 -0.0048702 0)
(1.10346 -0.00815888 0)
(0.949848 -0.0038623 0)
(1.10874 0.00261034 0)
(0.965545 0.00365207 0)
(1.06032 0.0101217 0)
(0.985664 0.0096871 0)
(1.02708 0.00540063 0)
(0.997572 0.000258516 0)
(1.0059 -0.00435489 0)
(0.997491 0.00133685 0)
(1.00146 -0.0107083 0)
(0.995347 0.00187687 0)
(0.996829 -0.0129219 0)
(0.912134 -0.00414205 0)
(1.0877 0.00294507 0)
(0.943788 -0.00253812 0)
(1.09512 0.00307436 0)
(0.943498 -0.00013634 0)
(1.0447 0.00101638 0)
(0.976953 -0.00525179 0)
(1.06719 -0.00814876 0)
(0.98216 -0.00397731 0)
(1.07241 0.00248905 0)
(0.999267 0.00424505 0)
(1.03432 0.00992041 0)
(1.00768 0.0101179 0)
(1.01643 0.00531084 0)
(1.00668 0.000617211 0)
(1.00138 -0.00432584 0)
(1.001 0.00142062 0)
(0.999534 -0.0106743 0)
(0.996278 0.00206956 0)
(0.995942 -0.0115836 0)
(0.937836 -0.00416185 0)
(1.06032 0.00276219 0)
(0.96828 -0.002633 0)
(1.0632 0.0031198 0)
(0.970419 0.000223453 0)
(1.02546 0.000773273 0)
(0.994698 -0.00546808 0)
(1.03638 -0.00823583 0)
(1.00132 -0.00406589 0)
(1.04554 0.00227967 0)
(1.01618 0.00468787 0)
(1.02301 0.00985186 0)
(1.01625 0.0103668 0)
(1.01501 0.00541138 0)
(1.00892 0.000939763 0)
(1.00095 -0.00417781 0)
(1.00166 0.00142874 0)
(0.998394 -0.0103718 0)
(0.995615 0.00194681 0)
(0.993995 -0.0104131 0)
(0.960307 -0.00415449 0)
(1.03639 0.00255906 0)
(0.985332 -0.00266641 0)
(1.03617 0.00312779 0)
(0.986764 0.000492405 0)
(1.01316 0.000584523 0)
(1.00296 -0.00554067 0)
(1.01548 -0.00834354 0)
(1.00728 -0.00419939 0)
(1.02848 0.00207386 0)
(1.02022 0.00492836 0)
(1.01878 0.00986364 0)
(1.01861 0.0105236 0)
(1.01504 0.0055846 0)
(1.00942 0.00128575 0)
(1.00102 -0.00400759 0)
(1.00163 0.00146112 0)
(0.998238 -0.00997363 0)
(0.99461 0.0017488 0)
(0.993105 -0.00902325 0)
(0.977214 -0.00412752 0)
(1.01892 0.00237642 0)
(0.994689 -0.00265106 0)
(1.01702 0.00312342 0)
(0.994472 0.00064442 0)
(1.00689 0.000448761 0)
(1.00544 -0.00550635 0)
(1.00371 -0.00842592 0)
(1.00556 -0.00436221 0)
(1.01743 0.00186787 0)
(1.01754 0.00501043 0)
(1.01552 0.00985659 0)
(1.01773 0.0106296 0)
(1.01427 0.00577146 0)
(1.00891 0.00163224 0)
(1.00115 -0.00381327 0)
(1.00131 0.00147798 0)
(0.998545 -0.00947909 0)
(0.993969 0.00152928 0)
(0.992762 -0.00757445 0)
(0.988268 -0.00409008 0)
(1.00811 0.0022371 0)
(0.998401 -0.00260613 0)
(1.00553 0.00311431 0)
(0.997248 0.000698248 0)
(1.00431 0.000345979 0)
(1.00568 -0.0054077 0)
(0.998219 -0.00845674 0)
(1.00134 -0.00450567 0)
(1.00934 0.00165563 0)
(1.01212 0.00499833 0)
(1.01118 0.00979247 0)
(1.01474 0.0106891 0)
(1.01248 0.00593559 0)
(1.00779 0.00195227 0)
(1.00111 -0.0036067 0)
(1.00101 0.00145706 0)
(0.998871 -0.00890906 0)
(0.99385 0.00128271 0)
(0.992737 -0.00613421 0)
(0.994604 -0.00404883 0)
(1.00237 0.00214192 0)
(0.999061 -0.00254512 0)
(0.999664 0.00309786 0)
(0.998069 0.000686657 0)
(1.00342 0.000253042 0)
(1.00546 -0.00527752 0)
(0.996336 -0.00843076 0)
(0.997392 -0.00459035 0)
(1.00299 0.00145805 0)
(1.00601 0.00494243 0)
(1.00602 0.00967605 0)
(1.01063 0.0106915 0)
(1.01008 0.00604541 0)
(1.00647 0.00222123 0)
(1.00092 -0.00339724 0)
(1.0008 0.00138521 0)
(0.999115 -0.00827813 0)
(0.99403 0.00101421 0)
(0.992925 -0.00475423 0)
(0.997822 -0.00400633 0)
(0.999662 0.00207971 0)
(0.998611 -0.00247591 0)
(0.997182 0.00306737 0)
(0.998426 0.000640384 0)
(1.00311 0.000159275 0)
(1.00519 -0.00513804 0)
(0.996179 -0.00835582 0)
(0.994538 -0.00459456 0)
(0.998141 0.00129899 0)
(1.00042 0.00487588 0)
(1.00094 0.00951945 0)
(1.00647 0.0106255 0)
(1.00767 0.00608464 0)
(1.00528 0.00241934 0)
(1.00073 -0.0031832 0)
(1.00066 0.00126705 0)
(0.999272 -0.00760158 0)
(0.994294 0.000733575 0)
(0.993184 -0.00346251 0)
(0.999293 -0.00396216 0)
(0.99847 0.00203667 0)
(0.998049 -0.00240367 0)
(0.996429 0.00301973 0)
(0.99876 0.000581482 0)
(1.00291 6.62369e-05 0)
(1.00484 -0.00500058 0)
(0.996594 -0.00824467 0)
(0.992715 -0.00451915 0)
(0.99476 0.00118722 0)
(0.996071 0.00481662 0)
(0.996798 0.00932895 0)
(1.00307 0.0104917 0)
(1.00575 0.0060583 0)
(1.00441 0.002544 0)
(1.00065 -0.00295746 0)
(1.00057 0.00111907 0)
(0.999361 -0.00688752 0)
(0.994541 0.000453446 0)
(0.993415 -0.00228335 0)
(0.999906 -0.00391489 0)
(0.99793 0.00200124 0)
(0.997695 -0.00233088 0)
(0.996436 0.00295595 0)
(0.999092 0.000523919 0)
(1.00267 -2.35227e-05 0)
(1.00433 -0.00486772 0)
(0.996986 -0.00810997 0)
(0.991628 -0.00438178 0)
(0.992696 0.00111615 0)
(0.993246 0.00476851 0)
(0.994029 0.00911321 0)
(1.0008 0.0102974 0)
(1.00452 0.005981 0)
(1.00392 0.00260627 0)
(1.0007 -0.00271568 0)
(1.00052 0.000943268 0)
(0.999407 -0.00615456 0)
(0.994754 0.000211996 0)
(0.993589 -0.00123744 0)
(1.00014 -0.00386337 0)
(0.997654 0.00196602 0)
(0.99755 -0.00225827 0)
(0.996716 0.00287853 0)
(0.999376 0.000475383 0)
(1.00241 -0.000109001 0)
(1.00375 -0.00473713 0)
(0.997149 -0.00796265 0)
(0.991017 -0.00420386 0)
(0.991654 0.00107098 0)
(0.991807 0.00472457 0)
(0.992606 0.00888585 0)
(0.999644 0.0100513 0)
(1.00394 0.00587144 0)
(1.00375 0.00261745 0)
(1.00086 -0.00245091 0)
(1.00053 0.00076165 0)
(0.999439 -0.00542663 0)
(0.994957 2.20163e-05 0)
(0.993729 -0.000336192 0)
(1.00022 -0.0038069 0)
(0.997494 0.00192692 0)
(0.997533 -0.00218544 0)
(0.997048 0.00278997 0)
(0.999595 0.000438498 0)
(1.00216 -0.000188477 0)
(1.00318 -0.00460439 0)
(0.9971 -0.00781005 0)
(0.990712 -0.00400569 0)
(0.991292 0.00103629 0)
(0.991367 0.00467607 0)
(0.992195 0.00865376 0)
(0.999296 0.00976406 0)
(1.00381 0.00575484 0)
(1.00376 0.00259333 0)
(1.00107 -0.00215991 0)
(1.00055 0.000594569 0)
(0.999471 -0.00472433 0)
(0.995175 -9.69199e-05 0)
(0.99387 0.00042026 0)
(1.00023 -0.00374517 0)
(0.997399 0.00188183 0)
(0.997573 -0.00211115 0)
(0.997341 0.00269153 0)
(0.999753 0.000413564 0)
(1.00195 -0.000263702 0)
(1.00269 -0.00446583 0)
(0.996934 -0.00765458 0)
(0.990604 -0.00380211 0)
(0.991318 0.00100216 0)
(0.9915 0.00461475 0)
(0.992379 0.00842227 0)
(0.999402 0.0094461 0)
(1.0039 0.00564671 0)
(1.00383 0.00254736 0)
(1.00127 -0.00185213 0)
(1.00059 0.00045728 0)
(0.999508 -0.00405937 0)
(0.995419 -0.000117625 0)
(0.994037 0.00104487 0)
(1.00023 -0.00367816 0)
(0.997348 0.00182971 0)
(0.997629 -0.00203375 0)
(0.997563 0.00258365 0)
(0.999855 0.00039983 0)
(1.0018 -0.000336414 0)
(1.00233 -0.00432016 0)
(0.996748 -0.00749651 0)
(0.990625 -0.00360063 0)
(0.991526 0.000965752 0)
(0.991874 0.00453299 0)
(0.992808 0.00819683 0)
(0.999669 0.00910782 0)
(1.00403 0.00555039 0)
(1.00386 0.00249404 0)
(1.00142 -0.00154079 0)
(1.00062 0.000364106 0)
(0.999548 -0.00343833 0)
(0.995687 -6.48899e-05 0)
(0.994239 0.00156156 0)
(1.00022 -0.00360596 0)
(0.99733 0.00177004 0)
(0.997683 -0.00195155 0)
(0.997718 0.00246676 0)
(0.999908 0.000395296 0)
(1.00168 -0.000408528 0)
(1.00206 -0.00416589 0)
(0.996604 -0.00733644 0)
(0.990732 -0.00340735 0)
(0.991799 0.000929683 0)
(0.992292 0.0044265 0)
(0.993264 0.00797904 0)
(0.999922 0.00875413 0)
(1.0041 0.00546705 0)
(1.00382 0.00244291 0)
(1.0015 -0.00123744 0)
(1.00063 0.00032149 0)
(0.999588 -0.00286094 0)
(0.995973 3.73011e-05 0)
(0.994472 0.00198597 0)
(1.00021 -0.00352864 0)
(0.997336 0.00170238 0)
(0.997729 -0.00186311 0)
(0.997823 0.00234148 0)
(0.999921 0.000398466 0)
(1.00159 -0.000482191 0)
(1.00187 -0.00400431 0)
(0.996522 -0.00717215 0)
(0.990893 -0.00322376 0)
(0.99208 0.000897112 0)
(0.992671 0.00429461 0)
(0.993647 0.00777115 0)
(1.00009 0.00838674 0)
(1.00407 0.0053892 0)
(1.0037 0.00240973 0)
(1.00151 -0.000952337 0)
(1.00062 0.00034207 0)
(0.999622 -0.0023177 0)
(0.996265 0.000178349 0)
(0.994729 0.00233556 0)
(1.0002 -0.00344621 0)
(0.997358 0.00162631 0)
(0.997767 -0.00176738 0)
(0.997898 0.00220794 0)
(0.999905 0.000409046 0)
(1.00152 -0.000559279 0)
(1.00171 -0.00383859 0)
(0.996498 -0.00700126 0)
(0.991089 -0.00305046 0)
(0.992352 0.000872205 0)
(0.992991 0.00413988 0)
(0.99394 0.00757299 0)
(1.00015 0.00801548 0)
(1.00397 0.00530585 0)
(1.00352 0.00239274 0)
(1.00149 -0.000699778 0)
(1.00059 0.000406422 0)
(0.999651 -0.00180853 0)
(0.996556 0.000340059 0)
(0.995001 0.00263733 0)
(1.0002 -0.00335886 0)
(0.997392 0.00154232 0)
(0.997798 -0.00166456 0)
(0.99796 0.00206673 0)
(0.999871 0.000426234 0)
(1.00145 -0.000638628 0)
(1.00157 -0.00367163 0)
(0.996517 -0.00682138 0)
(0.991306 -0.00289159 0)
(0.992613 0.000863563 0)
(0.993268 0.0039661 0)
(0.994163 0.00737925 0)
(1.00015 0.00764804 0)
(1.00381 0.00521101 0)
(1.0033 0.00239971 0)
(1.00143 -0.000470572 0)
(1.00055 0.000498984 0)
(0.999678 -0.00131746 0)
(0.996844 0.000502954 0)
(0.995284 0.00289596 0)
(1.00019 -0.00326662 0)
(0.997434 0.00145004 0)
(0.997822 -0.00155353 0)
(0.998018 0.00191788 0)
(0.999827 0.000447986 0)
(1.00138 -0.000718622 0)
(1.00144 -0.00350629 0)
(0.996563 -0.00662907 0)
(0.991533 -0.00274709 0)
(0.992866 0.00086813 0)
(0.993519 0.00378105 0)
(0.994343 0.00718643 0)
(1.00009 0.00728894 0)
(1.00362 0.00509602 0)
(1.00306 0.00244161 0)
(1.00136 -0.000247193 0)
(1.00051 0.000605499 0)
(0.999705 -0.000837622 0)
(0.997127 0.000667331 0)
(0.995576 0.00311204 0)
(1.00018 -0.00316934 0)
(0.997484 0.00134913 0)
(0.997843 -0.00143469 0)
(0.998077 0.00176305 0)
(0.999779 0.000473717 0)
(1.00131 -0.000797831 0)
(1.00131 -0.00334491 0)
(0.996623 -0.0064238 0)
(0.991767 -0.00261863 0)
(0.993114 0.000884903 0)
(0.99376 0.0035829 0)
(0.994503 0.00699037 0)
(1.00002 0.00695466 0)
(1.00342 0.00495391 0)
(1.0028 0.00250674 0)
(1.00129 -2.78876e-05 0)
(1.00048 0.000716369 0)
(0.999735 -0.000372065 0)
(0.997403 0.000839093 0)
(0.995878 0.00328006 0)
(1.00017 -0.00306709 0)
(0.99754 0.00124017 0)
(0.99786 -0.00130957 0)
(0.998137 0.00160353 0)
(0.999729 0.000503331 0)
(1.00125 -0.00087323 0)
(1.00118 -0.00319277 0)
(0.996691 -0.00620134 0)
(0.992005 -0.00250718 0)
(0.993358 0.000914483 0)
(0.994 0.00337774 0)
(0.994659 0.00678579 0)
(0.999929 0.00664907 0)
(1.00323 0.00478871 0)
(1.00255 0.00258462 0)
(1.00122 0.000192062 0)
(1.00047 0.000822108 0)
(0.999769 7.81345e-05 0)
(0.997669 0.00102295 0)
(0.996188 0.00339269 0)
(1.00016 -0.0029602 0)
(0.997601 0.0011235 0)
(0.997877 -0.00117758 0)
(0.998197 0.00143938 0)
(0.999679 0.000533576 0)
(1.00119 -0.000944473 0)
(1.00105 -0.00305101 0)
(0.996761 -0.00596014 0)
(0.992247 -0.00241054 0)
(0.993598 0.000950201 0)
(0.994243 0.003179 0)
(0.994816 0.00656201 0)
(0.999839 0.00637193 0)
(1.00305 0.00460325 0)
(1.0023 0.00267199 0)
(1.00114 0.000417779 0)
(1.00047 0.000921206 0)
(0.99981 0.000497064 0)
(0.997923 0.00122932 0)
(0.996504 0.00346307 0)
(1.00014 -0.00284878 0)
(0.997666 0.0009998 0)
(0.997894 -0.00104133 0)
(0.998257 0.00127431 0)
(0.999631 0.000562234 0)
(1.00113 -0.00100672 0)
(1.00093 -0.00292188 0)
(0.996832 -0.0057049 0)
(0.992497 -0.00232299 0)
(0.993835 0.000989008 0)
(0.994487 0.00298489 0)
(0.994976 0.00631956 0)
(0.999749 0.00612128 0)
(1.00288 0.0044085 0)
(1.00207 0.00276322 0)
(1.00105 0.00065473 0)
(1.00048 0.00102107 0)
(0.99986 0.000874517 0)
(0.998164 0.00145822 0)
(0.996825 0.00350156 0)
(1.00013 -0.00273256 0)
(0.997733 0.000868528 0)
(0.997915 -0.000901423 0)
(0.998316 0.00110952 0)
(0.999585 0.000586792 0)
(1.00107 -0.0010561 0)
(1.00081 -0.00280835 0)
(0.996901 -0.00543733 0)
(0.992754 -0.00224301 0)
(0.994067 0.00102131 0)
(0.994732 0.00280756 0)
(0.995141 0.00606026 0)
(0.99966 0.00589457 0)
(1.00272 0.00421189 0)
(1.00186 0.00284159 0)
(1.00097 0.000905483 0)
(1.00051 0.00112585 0)
(0.99992 0.00120924 0)
(0.998391 0.00170094 0)
(0.997145 0.0035169 0)
(1.00012 -0.0026124 0)
(0.997803 0.000731805 0)
(0.997939 -0.000760346 0)
(0.998372 0.000947093 0)
(0.999542 0.000606003 0)
(1.00101 -0.00109105 0)
(1.0007 -0.00270932 0)
(0.996969 -0.00515778 0)
(0.993018 -0.00217086 0)
(0.994299 0.00104312 0)
(0.994976 0.00264919 0)
(0.995309 0.00578671 0)
(0.999574 0.00568684 0)
(1.00257 0.00402556 0)
(1.00167 0.00290382 0)
(1.00087 0.00117039 0)
(1.00055 0.00123474 0)
(0.999992 0.00149949 0)
(0.998602 0.00195168 0)
(0.997461 0.00351867 0)
(1.00011 -0.00248851 0)
(0.997875 0.000590707 0)
(0.997968 -0.000621439 0)
(0.998428 0.00079203 0)
(0.999503 0.000617203 0)
(1.00094 -0.00111058 0)
(1.00059 -0.00262333 0)
(0.997035 -0.00487189 0)
(0.99329 -0.00209944 0)
(0.99453 0.00105649 0)
(0.995218 0.00250267 0)
(0.995482 0.00550693 0)
(0.999492 0.00549022 0)
(1.00243 0.00385365 0)
(1.0015 0.00295553 0)
(1.00078 0.00143785 0)
(1.00059 0.00134623 0)
(1.00008 0.00174094 0)
(0.9988 0.00220789 0)
(0.997767 0.00352388 0)
(1.0001 -0.00236106 0)
(0.99795 0.00044615 0)
(0.998 -0.000486622 0)
(0.998482 0.000646444 0)
(0.999467 0.000618095 0)
(1.00087 -0.001115 0)
(1.0005 -0.00254772 0)
(0.9971 -0.00458711 0)
(0.993566 -0.00202431 0)
(0.994761 0.00106073 0)
(0.995459 0.00237351 0)
(0.995658 0.00522075 0)
(0.999415 0.00530684 0)
(1.0023 0.00369802 0)
(1.00135 0.00299184 0)
(1.00068 0.0017087 0)
(1.00063 0.00146946 0)
(1.00018 0.00193473 0)
(0.998986 0.00246137 0)
(0.998056 0.0035489 0)
(1.00009 -0.00223117 0)
(0.998028 0.000300325 0)
(0.998035 -0.000359132 0)
(0.998536 0.000512669 0)
(0.999437 0.000609234 0)
(1.0008 -0.00110451 0)
(1.00041 -0.00247981 0)
(0.997165 -0.00430557 0)
(0.993844 -0.0019417 0)
(0.994995 0.00105027 0)
(0.995696 0.00225952 0)
(0.995839 0.0049348 0)
(0.999345 0.0051322 0)
(1.00218 0.00356552 0)
(1.00123 0.00301592 0)
(1.00058 0.00197181 0)
(1.00067 0.00160702 0)
(1.0003 0.00208506 0)
(0.999166 0.00269375 0)
(0.998319 0.00360901 0)
(1.00009 -0.00209847 0)
(0.998109 0.000154352 0)
(0.998074 -0.000242533 0)
(0.998589 0.000394807 0)
(0.999412 0.000590424 0)
(1.00072 -0.00108426 0)
(1.00033 -0.00241613 0)
(0.997233 -0.00402898 0)
(0.994123 -0.00185487 0)
(0.995229 0.00103004 0)
(0.995931 0.00215576 0)
(0.996024 0.00465707 0)
(0.999282 0.00496228 0)
(1.00206 0.00345765 0)
(1.00114 0.00303201 0)
(1.00048 0.00221347 0)
(1.00069 0.00175719 0)
(1.00043 0.00220052 0)
(0.999348 0.00288477 0)
(0.998554 0.00371438 0)
(1.00008 -0.00196486 0)
(0.998194 1.26958e-05 0)
(0.998116 -0.000138955 0)
(0.998642 0.000291788 0)
(0.999392 0.00056235 0)
(1.00064 -0.00105586 0)
(1.00026 -0.00235169 0)
(0.997303 -0.00376217 0)
(0.9944 -0.00176221 0)
(0.995465 0.000999038 0)
(0.996164 0.00206807 0)
(0.996214 0.00439548 0)
(0.99923 0.00479595 0)
(1.00195 0.00336999 0)
(1.00107 0.00303433 0)
(1.00039 0.00243651 0)
(1.00071 0.00191569 0)
(1.00056 0.00229937 0)
(0.999539 0.00303021 0)
(0.998766 0.00384345 0)
(1.00007 -0.00183076 0)
(0.998284 -0.000124966 0)
(0.998161 -5.04583e-05 0)
(0.998693 0.000204121 0)
(0.999377 0.000526615 0)
(1.00057 -0.00102204 0)
(1.00019 -0.00228561 0)
(0.997376 -0.00350333 0)
(0.994674 -0.00166345 0)
(0.995702 0.000959221 0)
(0.996395 0.00199203 0)
(0.996408 0.00415225 0)
(0.999187 0.00463195 0)
(1.00185 0.0032976 0)
(1.00102 0.00302929 0)
(1.00031 0.00263072 0)
(1.00071 0.00207577 0)
(1.0007 0.00239234 0)
(0.999742 0.0031363 0)
(0.998964 0.00395738 0)
(1.00007 -0.00169597 0)
(0.998377 -0.000259107 0)
(0.998211 2.14405e-05 0)
(0.998743 0.000131002 0)
(0.999365 0.000485128 0)
(1.00049 -0.000979054 0)
(1.00012 -0.00222146 0)
(0.997452 -0.00325138 0)
(0.994945 -0.0015607 0)
(0.99594 0.000917396 0)
(0.996625 0.0019237 0)
(0.996605 0.00392917 0)
(0.999154 0.00447685 0)
(1.00175 0.00323752 0)
(1.001 0.00301658 0)
(1.00025 0.00279991 0)
(1.0007 0.00223976 0)
(1.00084 0.00247694 0)
(0.999955 0.00321284 0)
(0.99916 0.00403636 0)
(1.00006 -0.0015628 0)
(0.998473 -0.000384014 0)
(0.998265 7.66836e-05 0)
(0.998792 6.91749e-05 0)
(0.999358 0.000438454 0)
(1.00042 -0.000926963 0)
(1.00007 -0.00215746 0)
(0.997533 -0.00300949 0)
(0.995211 -0.00144793 0)
(0.996177 0.000867442 0)
(0.996854 0.00186551 0)
(0.996806 0.00373058 0)
(0.999131 0.00433046 0)
(1.00167 0.00318323 0)
(1.00099 0.00299012 0)
(1.00019 0.00294713 0)
(1.00069 0.00240598 0)
(1.00096 0.0025496 0)
(1.00017 0.00327126 0)
(0.999362 0.00408182 0)
(1.00005 -0.00143137 0)
(0.998572 -0.000498841 0)
(0.998325 0.000117198 0)
(0.998841 1.59975e-05 0)
(0.999353 0.000388336 0)
(1.00034 -0.000862782 0)
(1.00002 -0.00209756 0)
(0.997618 -0.00277694 0)
(0.995472 -0.00132533 0)
(0.996414 0.000812518 0)
(0.997083 0.00181105 0)
(0.997009 0.0035542 0)
(0.999115 0.00418826 0)
(1.00158 0.00313082 0)
(1.001 0.00295097 0)
(1.00016 0.00306504 0)
(1.00066 0.00257096 0)
(1.00108 0.00261272 0)
(1.0004 0.00331293 0)
(0.999574 0.00410134 0)
(1.00005 -0.00130221 0)
(0.998673 -0.000602995 0)
(0.998389 0.000145351 0)
(0.998888 -3.47747e-05 0)
(0.999354 0.000333625 0)
(1.00026 -0.000785466 0)
(0.999972 -0.00203588 0)
(0.99771 -0.00255702 0)
(0.995726 -0.0011904 0)
(0.996649 0.000763936 0)
(0.997314 0.00174712 0)
(0.997214 0.00339568 0)
(0.999107 0.00404766 0)
(1.0015 0.00307842 0)
(1.00102 0.00290535 0)
(1.00014 0.00315655 0)
(1.00062 0.00273782 0)
(1.00119 0.00267582 0)
(1.00062 0.0033374 0)
(0.999796 0.00410514 0)
(1.00004 -0.00117619 0)
(0.998775 -0.000694857 0)
(0.998458 0.000161309 0)
(0.998934 -7.99188e-05 0)
(0.99936 0.000269437 0)
(1.00019 -0.000696394 0)
(0.99993 -0.00196688 0)
(0.997809 -0.00234847 0)
(0.995973 -0.00103996 0)
(0.996879 0.000730679 0)
(0.997546 0.00167931 0)
(0.997422 0.00324791 0)
(0.999106 0.0039176 0)
(1.00142 0.00303099 0)
(1.00106 0.00284824 0)
(1.00015 0.00321715 0)
(1.00058 0.00290102 0)
(1.00128 0.00274218 0)
(1.00085 0.00334109 0)
(1.00003 0.00409451 0)
(1.00003 -0.00105481 0)
(0.998877 -0.000773708 0)
(0.998531 0.000165606 0)
(0.998979 -0.000117336 0)
(0.999373 0.00019591 0)
(1.00011 -0.000597242 0)
(0.99989 -0.00188603 0)
(0.997915 -0.00216056 0)
(0.996216 -0.000873395 0)
(0.997102 0.000719654 0)
(0.997777 0.00160818 0)
(0.997633 0.00309465 0)
(0.999111 0.00379797 0)
(1.00134 0.00299162 0)
(1.00111 0.00278137 0)
(1.00018 0.00324284 0)
(1.00054 0.00305694 0)
(1.00135 0.00282159 0)
(1.00107 0.00333007 0)
(1.00027 0.00407129 0)
(1.00003 -0.000938113 0)
(0.998979 -0.00083952 0)
(0.998609 0.000158783 0)
(0.999022 -0.000146501 0)
(0.999393 0.000108437 0)
(1.00004 -0.000496349 0)
(0.99985 -0.00178021 0)
(0.99803 -0.00199991 0)
(0.996456 -0.000699048 0)
(0.997314 0.000736996 0)
(0.998004 0.00152832 0)
(0.99785 0.00293105 0)
(0.999126 0.00367717 0)
(1.00126 0.00296413 0)
(1.00117 0.00271812 0)
(1.00024 0.00323091 0)
(1.0005 0.00319231 0)
(1.0014 0.00291771 0)
(1.00128 0.00331282 0)
(1.00051 0.0040348 0)
(1.00002 -0.000826471 0)
(0.99908 -0.000893402 0)
(0.998691 0.000142142 0)
(0.999062 -0.000162776 0)
(0.99942 3.76382e-06 0)
(0.999983 -0.000399967 0)
(0.999809 -0.00164489 0)
(0.998151 -0.00184923 0)
(0.996696 -0.000534799 0)
(0.997515 0.000781604 0)
(0.998222 0.00145927 0)
(0.998071 0.00276132 0)
(0.999155 0.00355612 0)
(1.00117 0.00294822 0)
(1.00123 0.00266404 0)
(1.00032 0.0031878 0)
(1.00048 0.0032943 0)
(1.00142 0.00302169 0)
(1.00148 0.00329259 0)
(1.00077 0.00397369 0)
(1.00001 -0.000722344 0)
(0.99918 -0.000930803 0)
(0.998778 0.000112353 0)
(0.999099 -0.000165309 0)
(0.999455 -0.000108986 0)
(0.999932 -0.000321035 0)
(0.999767 -0.001477 0)
(0.998277 -0.00170135 0)
(0.996939 -0.000390651 0)
(0.997705 0.0008469 0)
(0.998428 0.00141078 0)
(0.998296 0.00258588 0)
(0.999201 0.00342713 0)
(1.00109 0.00293771 0)
(1.00128 0.00262514 0)
(1.00043 0.00313004 0)
(1.00048 0.00335945 0)
(1.00143 0.00312121 0)
(1.00165 0.00327907 0)
(1.00103 0.00388716 0)
(1.00001 -0.000625153 0)
(0.999276 -0.000952501 0)
(0.998869 6.95127e-05 0)
(0.999132 -0.000151905 0)
(0.999494 -0.000223965 0)
(0.999896 -0.000266878 0)
(0.999727 -0.00128263 0)
(0.998402 -0.0015486 0)
(0.997184 -0.000272232 0)
(0.997887 0.000918128 0)
(0.998619 0.00138902 0)
(0.998522 0.00241682 0)
(0.999267 0.00328368 0)
(1.00102 0.00292821 0)
(1.00132 0.00260271 0)
(1.00055 0.00306457 0)
(1.0005 0.00339071 0)
(1.00142 0.00320754 0)
(1.00179 0.00328126 0)
(1.00128 0.00378903 0)
(1 -0.000536723 0)
(0.999369 -0.000956937 0)
(0.998966 1.32169e-05 0)
(0.999161 -0.000122319 0)
(0.999535 -0.000331907 0)
(0.999879 -0.00024444 0)
(0.999691 -0.00107373 0)
(0.998523 -0.00138196 0)
(0.997432 -0.000180684 0)
(0.998066 0.000982775 0)
(0.998794 0.00139609 0)
(0.998742 0.00226529 0)
(0.999353 0.00312849 0)
(1.00095 0.00291219 0)
(1.00136 0.00259579 0)
(1.00069 0.00299886 0)
(1.00054 0.00339906 0)
(1.00141 0.00327944 0)
(1.0019 0.00329544 0)
(1.00153 0.00369527 0)
(0.999997 -0.00045768 0)
(0.999457 -0.000943223 0)
(0.999068 -5.63091e-05 0)
(0.999189 -7.90056e-05 0)
(0.999577 -0.000422779 0)
(0.999881 -0.000254528 0)
(0.999664 -0.000862542 0)
(0.998637 -0.00119632 0)
(0.997679 -0.000108 0)
(0.998245 0.00103732 0)
(0.998953 0.00142282 0)
(0.998953 0.00214422 0)
(0.999458 0.0029645 0)
(1.00091 0.00287606 0)
(1.00139 0.00259843 0)
(1.00083 0.00293714 0)
(1.00061 0.0033866 0)
(1.0014 0.00333625 0)
(1.00198 0.00331119 0)
(1.00175 0.00361683 0)
(0.999995 -0.000388477 0)
(0.999539 -0.000911782 0)
(0.999174 -0.000137513 0)
(0.999215 -2.89121e-05 0)
(0.999615 -0.000483576 0)
(0.999904 -0.000294646 0)
(0.99965 -0.000661492 0)
(0.998742 -0.000982165 0)
(0.997924 -4.98921e-05 0)
(0.998428 0.00106283 0)
(0.999102 0.00145815 0)
(0.999148 0.00205502 0)
(0.999575 0.00280622 0)
(1.00088 0.00281756 0)
(1.00142 0.00259939 0)
(1.00097 0.00287959 0)
(1.0007 0.00335122 0)
(1.00139 0.00337787 0)
(1.00204 0.00332538 0)
(1.00194 0.00355322 0)
(0.999993 -0.000330065 0)
(0.999613 -0.000863355 0)
(0.999285 -0.000226846 0)
(0.999244 2.02956e-05 0)
(0.999646 -0.000504699 0)
(0.999944 -0.000356126 0)
(0.999657 -0.000485393 0)
(0.998837 -0.000747827 0)
(0.998156 6.30286e-06 0)
(0.998618 0.00105707 0)
(0.999246 0.00149161 0)
(0.999329 0.00199556 0)
(0.9997 0.00266685 0)
(1.00087 0.00274572 0)
(1.00145 0.0025891 0)
(1.00111 0.00282527 0)
(1.00081 0.00329651 0)
(1.0014 0.00340064 0)
(1.00208 0.0033404 0)
(1.0021 0.00349351 0)
(0.999993 -0.000281382 0)
(0.999679 -0.000801521 0)
(0.999398 -0.000318987 0)
(0.999278 6.35216e-05 0)
(0.999669 -0.000478681 0)
(0.999999 -0.0004307 0)
(0.999689 -0.000348424 0)
(0.998926 -0.000501039 0)
(0.998374 7.90375e-05 0)
(0.998813 0.00103279 0)
(0.999393 0.001507 0)
(0.999498 0.0019619 0)
(0.999826 0.0025506 0)
(1.00088 0.00266723 0)
(1.00149 0.0025618 0)
(1.00124 0.00276805 0)
(1.00094 0.00322681 0)
(1.00142 0.00339776 0)
(1.0021 0.00335722 0)
(1.00224 0.00343888 0)
(0.999994 -0.000243238 0)
(0.999736 -0.000726961 0)
(0.999512 -0.000407743 0)
(0.999322 9.16592e-05 0)
(0.999682 -0.00040367 0)
(1.00006 -0.000500592 0)
(0.999751 -0.000264741 0)
(0.999015 -0.000256558 0)
(0.99857 0.00018509 0)
(0.999008 0.00100318 0)
(0.999547 0.00149788 0)
(0.99966 0.00193719 0)
(0.99995 0.00246256 0)
(1.00091 0.00259156 0)
(1.00153 0.0025256 0)
(1.00138 0.0027076 0)
(1.00109 0.0031473 0)
(1.00147 0.00336633 0)
(1.00212 0.00336453 0)
(1.00234 0.00339731 0)
(0.999996 -0.000214762 0)
(0.999783 -0.000642949 0)
(0.999624 -0.000486866 0)
(0.999378 9.55612e-05 0)
(0.999687 -0.000294253 0)
(1.00012 -0.000537219 0)
(0.999841 -0.000235582 0)
(0.999113 -2.94536e-05 0)
(0.998746 0.000330981 0)
(0.999195 0.000983504 0)
(0.999708 0.00146776 0)
(0.999823 0.00190415 0)
(1.00007 0.0023962 0)
(1.00094 0.00252896 0)
(1.00157 0.00248834 0)
(1.00152 0.00264433 0)
(1.00125 0.0030604 0)
(1.00154 0.00331157 0)
(1.00214 0.00334893 0)
(1.00241 0.00336914 0)
(0.999999 -0.000194656 0)
(0.999821 -0.000552231 0)
(0.999731 -0.000550274 0)
(0.999448 7.1292e-05 0)
(0.999688 -0.000169276 0)
(1.00017 -0.000527917 0)
(0.999957 -0.000250462 0)
(0.999229 0.000162656 0)
(0.998901 0.000503788 0)
(0.999365 0.000988976 0)
(0.999874 0.00142011 0)
(0.999991 0.0018577 0)
(1.0002 0.00233642 0)
(1.00098 0.00248394 0)
(1.00162 0.00245661 0)
(1.00166 0.00258048 0)
(1.00142 0.00296467 0)
(1.00163 0.00323994 0)
(1.00217 0.00330609 0)
(1.00247 0.00333598 0)
(1 -0.000181416 0)
(0.999849 -0.000459914 0)
(0.999829 -0.000592983 0)
(0.999533 2.12467e-05 0)
(0.999691 -4.69412e-05 0)
(1.00021 -0.000456654 0)
(1.00009 -0.000290762 0)
(0.999373 0.000284065 0)
(0.999043 0.000683714 0)
(0.999512 0.00104005 0)
(1.00004 0.0013801 0)
(1.00017 0.00179444 0)
(1.00034 0.00227244 0)
(1.00103 0.00244342 0)
(1.00166 0.00243411 0)
(1.00178 0.00252526 0)
(1.0016 0.00286381 0)
(1.00174 0.0031562 0)
(1.00222 0.00324662 0)
(1.00252 0.00328222 0)
(1.00001 -0.000172365 0)
(0.999869 -0.000373791 0)
(0.999915 -0.000607511 0)
(0.999629 -5.00638e-05 0)
(0.999705 6.0045e-05 0)
(1.00023 -0.000330605 0)
(1.00022 -0.000318074 0)
(0.999547 0.000327822 0)
(0.999189 0.000846163 0)
(0.999635 0.0011266 0)
(1.00018 0.00136263 0)
(1.00035 0.00171942 0)
(1.00049 0.00219881 0)
(1.00109 0.00240122 0)
(1.00171 0.00241715 0)
(1.0019 0.00248584 0)
(1.00177 0.00276873 0)
(1.00187 0.00305889 0)
(1.00228 0.00317839 0)
(1.00258 0.00320385 0)
(1.00001 -0.000164511 0)
(0.999883 -0.000297573 0)
(0.999985 -0.000591816 0)
(0.999735 -0.000131417 0)
(0.999734 0.000141671 0)
(1.00023 -0.000178057 0)
(1.00034 -0.000306784 0)
(0.999745 0.000314487 0)
(0.999349 0.000964963 0)
(0.99974 0.00123868 0)
(1.00031 0.00137533 0)
(1.00052 0.00165322 0)
(1.00066 0.00210513 0)
(1.00117 0.00234955 0)
(1.00176 0.00239529 0)
(1.002 0.00245449 0)
(1.00194 0.00269019 0)
(1.00201 0.00295357 0)
(1.00235 0.00310508 0)
(1.00265 0.00311299 0)
(1.00002 -0.000156579 0)
(0.999893 -0.000233389 0)
(1.00004 -0.000548473 0)
(0.999844 -0.000204492 0)
(0.999784 0.000186028 0)
(1.00022 -1.94005e-05 0)
(1.00044 -0.000239964 0)
(0.999957 0.000276561 0)
(0.999535 0.00100849 0)
(0.999836 0.00135084 0)
(1.0004 0.0014283 0)
(1.00068 0.00160959 0)
(1.00083 0.00200642 0)
(1.00127 0.002279 0)
(1.00182 0.00236659 0)
(1.0021 0.00241996 0)
(1.0021 0.00262556 0)
(1.00215 0.00285028 0)
(1.00242 0.00302514 0)
(1.00271 0.00302534 0)
(1.00002 -0.000147232 0)
(0.999901 -0.000179987 0)
(1.00008 -0.000483559 0)
(0.999949 -0.000258959 0)
(0.999852 0.000197861 0)
(1.00021 0.000131911 0)
(1.00051 -0.000124957 0)
(1.00016 0.000243519 0)
(0.999744 0.000981995 0)
(0.999945 0.00142498 0)
(1.00048 0.00150791 0)
(1.0008 0.00159513 0)
(1.001 0.00191907 0)
(1.00138 0.00219018 0)
(1.00189 0.00232449 0)
(1.00219 0.00238019 0)
(1.00224 0.00256439 0)
(1.0023 0.0027539 0)
(1.00251 0.00293549 0)
(1.00276 0.00294525 0)
(1.00003 -0.000135036 0)
(0.99991 -0.000138039 0)
(1.0001 -0.000403869 0)
(1.00005 -0.000285679 0)
(0.999939 0.000182513 0)
(1.00022 0.000267137 0)
(1.00056 1.47952e-05 0)
(1.00034 0.000237571 0)
(0.999971 0.00091749 0)
(1.00008 0.00144697 0)
(1.00054 0.00158474 0)
(1.0009 0.0016216 0)
(1.00115 0.00185208 0)
(1.00151 0.00209463 0)
(1.00197 0.00225938 0)
(1.00228 0.00233068 0)
(1.00237 0.00250022 0)
(1.00244 0.00266224 0)
(1.0026 0.00283964 0)
(1.00281 0.00286945 0)
(1.00003 -0.00011843 0)
(0.99992 -0.000107595 0)
(1.00012 -0.000316346 0)
(1.00013 -0.000282129 0)
(1.00004 0.000151203 0)
(1.00023 0.000365169 0)
(1.00059 0.000171762 0)
(1.00049 0.000282083 0)
(1.0002 0.00084525 0)
(1.00023 0.00141137 0)
(1.00061 0.00163375 0)
(1.00097 0.0016702 0)
(1.00127 0.00182045 0)
(1.00163 0.00200928 0)
(1.00206 0.00218025 0)
(1.00238 0.00226595 0)
(1.0025 0.00243186 0)
(1.00257 0.00256977 0)
(1.0027 0.00273691 0)
(1.00285 0.0027861 0)
(1.00003 -9.89713e-05 0)
(0.999931 -8.49818e-05 0)
(1.00013 -0.000229243 0)
(1.0002 -0.000248166 0)
(1.00015 0.00011908 0)
(1.00027 0.000419753 0)
(1.00061 0.000323162 0)
(1.00061 0.000369322 0)
(1.00041 0.000796287 0)
(1.00041 0.0013377 0)
(1.0007 0.00164411 0)
(1.00103 0.00171176 0)
(1.00136 0.00181919 0)
(1.00174 0.00194288 0)
(1.00216 0.0020992 0)
(1.00248 0.00218354 0)
(1.00261 0.00235362 0)
(1.0027 0.0024774 0)
(1.0028 0.00262846 0)
(1.0029 0.00269322 0)
(1.00003 -7.70658e-05 0)
(0.999945 -6.81823e-05 0)
(1.00014 -0.000149831 0)
(1.00026 -0.000187784 0)
(1.00025 9.64085e-05 0)
(1.00033 0.000444494 0)
(1.00063 0.000449705 0)
(1.0007 0.000472859 0)
(1.00059 0.000781218 0)
(1.00059 0.00125654 0)
(1.00081 0.00160763 0)
(1.00109 0.0017355 0)
(1.00143 0.00183186 0)
(1.00182 0.00190412 0)
(1.00224 0.00202957 0)
(1.00258 0.00209497 0)
(1.00273 0.00225818 0)
(1.00281 0.00238196 0)
(1.00291 0.00251399 0)
(1.00295 0.00258565 0)
(1.00003 -5.3709e-05 0)
(0.999961 -5.222e-05 0)
(1.00015 -8.19654e-05 0)
(1.0003 -0.000113497 0)
(1.00035 9.27225e-05 0)
(1.0004 0.000449859 0)
(1.00066 0.000548228 0)
(1.00076 0.000581846 0)
(1.00074 0.000802632 0)
(1.00077 0.00119245 0)
(1.00094 0.00153855 0)
(1.00117 0.00172768 0)
(1.00148 0.00184104 0)
(1.00188 0.00188276 0)
(1.0023 0.00197426 0)
(1.00266 0.00201493 0)
(1.00285 0.00215118 0)
(1.00292 0.00227794 0)